<?xml version="1.0"?>
<VTKFile type="UnstructuredGrid"  version="0.1"  >
<UnstructuredGrid>
<Piece  NumberOfPoints="11902" NumberOfCells="23402">
<Points>
<DataArray  type="Float64"  NumberOfComponents="3"  format="ascii">-5 -5 0  5 -5 0  5 5 0  -5 5 0  2.066206632679886 -0.001694980438209536 0  -4.9 -5 0  -4.8 -5 0  -4.7 -5 0  -4.6 -5 0  -4.5 -5 0  -4.4 -5 0  -4.3 -5 0  -4.2 -5 0  -4.1 -5 0  -4 -5 0  -3.9 -5 0  -3.8 -5 0  -3.7 -5 0  -3.6 -5 0  -3.5 -5 0  -3.4 -5 0  -3.3 -5 0  -3.2 -5 0  -3.1 -5 0  -3 -5 0  -2.9 -5 0  -2.8 -5 0  -2.7 -5 0  -2.6 -5 0  -2.5 -5 0  -2.4 -5 0  -2.3 -5 0  -2.2 -5 0  -2.1 -5 0  -2 -5 0  -1.9 -5 0  -1.8 -5 0  -1.7 -5 0  -1.6 -5 0  -1.5 -5 0  -1.4 -5 0  -1.3 -5 0  -1.2 -5 0  -1.1 -5 0  -1 -5 0  -0.9000000000000004 -5 0  -0.7999999999999998 -5 0  -0.7000000000000002 -5 0  -0.5999999999999996 -5 0  -0.5 -5 0  -0.4000000000000004 -5 0  -0.2999999999999998 -5 0  -0.2000000000000002 -5 0  -0.09999999999999964 -5 0  0 -5 0  0.09999999999999964 -5 0  0.2000000000000002 -5 0  0.2999999999999998 -5 0  0.4000000000000004 -5 0  0.5 -5 0  0.5999999999999996 -5 0  0.7000000000000002 -5 0  0.7999999999999998 -5 0  0.9000000000000004 -5 0  1 -5 0  1.1 -5 0  1.2 -5 0  1.3 -5 0  1.4 -5 0  1.5 -5 0  1.6 -5 0  1.7 -5 0  1.8 -5 0  1.9 -5 0  2 -5 0  2.1 -5 0  2.2 -5 0  2.3 -5 0  2.4 -5 0  2.5 -5 0  2.6 -5 0  2.7 -5 0  2.8 -5 0  2.9 -5 0  3 -5 0  3.1 -5 0  3.199999999999999 -5 0  3.300000000000001 -5 0  3.4 -5 0  3.5 -5 0  3.6 -5 0  3.699999999999999 -5 0  3.800000000000001 -5 0  3.9 -5 0  4 -5 0  4.1 -5 0  4.199999999999999 -5 0  4.300000000000001 -5 0  4.4 -5 0  4.5 -5 0  4.6 -5 0  4.699999999999999 -5 0  4.800000000000001 -5 0  4.9 -5 0  5 -4.9 0  5 -4.8 0  5 -4.7 0  5 -4.6 0  5 -4.5 0  5 -4.4 0  5 -4.3 0  5 -4.2 0  5 -4.1 0  5 -4 0  5 -3.9 0  5 -3.8 0  5 -3.7 0  5 -3.6 0  5 -3.5 0  5 -3.4 0  5 -3.3 0  5 -3.2 0  5 -3.1 0  5 -3 0  5 -2.9 0  5 -2.8 0  5 -2.7 0  5 -2.6 0  5 -2.5 0  5 -2.4 0  5 -2.3 0  5 -2.2 0  5 -2.1 0  5 -2 0  5 -1.9 0  5 -1.8 0  5 -1.7 0  5 -1.6 0  5 -1.5 0  5 -1.4 0  5 -1.3 0  5 -1.2 0  5 -1.1 0  5 -1 0  5 -0.9000000000000004 0  5 -0.7999999999999998 0  5 -0.7000000000000002 0  5 -0.5999999999999996 0  5 -0.5 0  5 -0.4000000000000004 0  5 -0.2999999999999998 0  5 -0.2000000000000002 0  5 -0.09999999999999964 0  5 0 0  5 0.09999999999999964 0  5 0.2000000000000002 0  5 0.2999999999999998 0  5 0.4000000000000004 0  5 0.5 0  5 0.5999999999999996 0  5 0.7000000000000002 0  5 0.7999999999999998 0  5 0.9000000000000004 0  5 1 0  5 1.1 0  5 1.2 0  5 1.3 0  5 1.4 0  5 1.5 0  5 1.6 0  5 1.7 0  5 1.8 0  5 1.9 0  5 2 0  5 2.1 0  5 2.2 0  5 2.3 0  5 2.4 0  5 2.5 0  5 2.6 0  5 2.7 0  5 2.8 0  5 2.9 0  5 3 0  5 3.1 0  5 3.199999999999999 0  5 3.300000000000001 0  5 3.4 0  5 3.5 0  5 3.6 0  5 3.699999999999999 0  5 3.800000000000001 0  5 3.9 0  5 4 0  5 4.1 0  5 4.199999999999999 0  5 4.300000000000001 0  5 4.4 0  5 4.5 0  5 4.6 0  5 4.699999999999999 0  5 4.800000000000001 0  5 4.9 0  4.9 5 0  4.8 5 0  4.7 5 0  4.6 5 0  4.5 5 0  4.4 5 0  4.3 5 0  4.2 5 0  4.1 5 0  4 5 0  3.9 5 0  3.8 5 0  3.7 5 0  3.6 5 0  3.5 5 0  3.4 5 0  3.3 5 0  3.2 5 0  3.1 5 0  3 5 0  2.9 5 0  2.8 5 0  2.7 5 0  2.6 5 0  2.5 5 0  2.4 5 0  2.3 5 0  2.2 5 0  2.1 5 0  2 5 0  1.9 5 0  1.8 5 0  1.7 5 0  1.6 5 0  1.5 5 0  1.4 5 0  1.3 5 0  1.2 5 0  1.1 5 0  1 5 0  0.9000000000000004 5 0  0.7999999999999998 5 0  0.7000000000000002 5 0  0.5999999999999996 5 0  0.5 5 0  0.4000000000000004 5 0  0.2999999999999998 5 0  0.2000000000000002 5 0  0.09999999999999964 5 0  0 5 0  -0.09999999999999964 5 0  -0.2000000000000002 5 0  -0.2999999999999998 5 0  -0.4000000000000004 5 0  -0.5 5 0  -0.5999999999999996 5 0  -0.7000000000000002 5 0  -0.7999999999999998 5 0  -0.9000000000000004 5 0  -1 5 0  -1.1 5 0  -1.2 5 0  -1.3 5 0  -1.4 5 0  -1.5 5 0  -1.6 5 0  -1.7 5 0  -1.8 5 0  -1.9 5 0  -2 5 0  -2.1 5 0  -2.2 5 0  -2.3 5 0  -2.4 5 0  -2.5 5 0  -2.6 5 0  -2.7 5 0  -2.8 5 0  -2.9 5 0  -3 5 0  -3.1 5 0  -3.199999999999999 5 0  -3.300000000000001 5 0  -3.4 5 0  -3.5 5 0  -3.6 5 0  -3.699999999999999 5 0  -3.800000000000001 5 0  -3.9 5 0  -4 5 0  -4.1 5 0  -4.199999999999999 5 0  -4.300000000000001 5 0  -4.4 5 0  -4.5 5 0  -4.6 5 0  -4.699999999999999 5 0  -4.800000000000001 5 0  -4.9 5 0  -5 4.9 0  -5 4.8 0  -5 4.7 0  -5 4.6 0  -5 4.5 0  -5 4.4 0  -5 4.3 0  -5 4.2 0  -5 4.1 0  -5 4 0  -5 3.9 0  -5 3.8 0  -5 3.7 0  -5 3.6 0  -5 3.5 0  -5 3.4 0  -5 3.3 0  -5 3.2 0  -5 3.1 0  -5 3 0  -5 2.9 0  -5 2.8 0  -5 2.7 0  -5 2.6 0  -5 2.5 0  -5 2.4 0  -5 2.3 0  -5 2.2 0  -5 2.1 0  -5 2 0  -5 1.9 0  -5 1.8 0  -5 1.7 0  -5 1.6 0  -5 1.5 0  -5 1.4 0  -5 1.3 0  -5 1.2 0  -5 1.1 0  -5 1 0  -5 0.9000000000000004 0  -5 0.7999999999999998 0  -5 0.7000000000000002 0  -5 0.5999999999999996 0  -5 0.5 0  -5 0.4000000000000004 0  -5 0.2999999999999998 0  -5 0.2000000000000002 0  -5 0.09999999999999964 0  -5 0 0  -5 -0.09999999999999964 0  -5 -0.2000000000000002 0  -5 -0.2999999999999998 0  -5 -0.4000000000000004 0  -5 -0.5 0  -5 -0.5999999999999996 0  -5 -0.7000000000000002 0  -5 -0.7999999999999998 0  -5 -0.9000000000000004 0  -5 -1 0  -5 -1.1 0  -5 -1.2 0  -5 -1.3 0  -5 -1.4 0  -5 -1.5 0  -5 -1.6 0  -5 -1.7 0  -5 -1.8 0  -5 -1.9 0  -5 -2 0  -5 -2.1 0  -5 -2.2 0  -5 -2.3 0  -5 -2.4 0  -5 -2.5 0  -5 -2.6 0  -5 -2.7 0  -5 -2.8 0  -5 -2.9 0  -5 -3 0  -5 -3.1 0  -5 -3.199999999999999 0  -5 -3.300000000000001 0  -5 -3.4 0  -5 -3.5 0  -5 -3.6 0  -5 -3.699999999999999 0  -5 -3.800000000000001 0  -5 -3.9 0  -5 -4 0  -5 -4.1 0  -5 -4.199999999999999 0  -5 -4.300000000000001 0  -5 -4.4 0  -5 -4.5 0  -5 -4.6 0  -5 -4.699999999999999 0  -5 -4.800000000000001 0  -5 -4.9 0  2.145874199054873 0.2210808004973996 0  2.011926881798182 0.3913068288952862 0  2.087274838520226 0.6364834049078156 0  1.815554535502822 0.752232641998734 0  1.719312500015162 0.9333908442613418 0  1.555927927415202 1.044068441988912 0  1.448977449046523 1.194762903679129 0  1.235987692638588 1.213487058418556 0  1.109359175118606 1.359182259062969 0  0.9514203090777213 1.452703869192653 0  0.7825816882309 1.484243889323281 0  0.6359369821942211 1.52911851313602 0  0.45519462346424 1.59873996537571 0  0.2943086489835322 1.623529304433789 0  0.1331188410942417 1.664574684511462 0  -0.02164478760450708 1.655312403336257 0  -0.2278260380541032 1.622302681280918 0  -0.3909429765309689 1.621536466872578 0  -0.5401061802069194 1.572444484004319 0  -0.700368577603403 1.505412909576844 0  -0.8733222826755243 1.470614652422393 0  -1.019674126367106 1.374396514455012 0  -1.17952246346105 1.29455069042439 0  -1.386980973100739 1.262719477419622 0  -1.420841482603744 1.060782766111122 0  -1.646005952082171 0.9894474143030052 0  -1.816311922190943 0.86607461484031 0  -1.876182933578141 0.6910151806541286 0  -2.014680566722873 0.5219504414160344 0  -2.092990241601231 0.3034606296190598 0  -2.119222013824853 0.1005647996451646 0  -2.027325399872538 -0.1198868453900443 0  -2.197475643842766 -0.337543090282018 0  -1.972270917749527 -0.488525701879103 0  -1.865436926137411 -0.6769820720874551 0  -1.8239710078025 -0.8626422010551978 0  -1.582182903983357 -0.9529521036870049 0  -1.50097741760481 -1.115842789705813 0  -1.356219116213953 -1.227308395532575 0  -1.177995763342496 -1.285815135409119 0  -1.030081267492938 -1.394010636296135 0  -0.8669448672816108 -1.482421520295329 0  -0.7045517486527113 -1.532127040878117 0  -0.5340803048498504 -1.570618492991245 0  -0.3804729410876431 -1.633132637677733 0  -0.2125500279237921 -1.631218854252343 0  -0.04854785665289812 -1.654103147513976 0  0.1391232704185379 -1.648951711861163 0  0.2916438892285871 -1.641109628980985 0  0.4669439885333418 -1.607275936118994 0  0.62105540482703 -1.55554842266015 0  0.7856605051520057 -1.477962654699807 0  0.9559762450008431 -1.458790795801893 0  1.124737015577862 -1.357920031140958 0  1.281738171958221 -1.290517008442834 0  1.416892286181063 -1.169493663678229 0  1.562463945522858 -1.041728572492449 0  1.735789544699864 -0.918902062696165 0  1.846683992035676 -0.7784255953579147 0  1.950620241793101 -0.5919834690062307 0  2.07869363341721 -0.415464296945744 0  2.099368636379717 -0.2136325444280599 0  -2.449749577275455 4.920128706543261 0  -2.449722777842743 -4.912697365954819 0  4.911758153804278 2.448761657666515 0  4.919772663820885 -2.450090229988779 0  2.447636774196446 -4.898296630632561 0  2.44200802647792 4.902027544571549 0  -4.911788118520209 -2.44877101736984 0  -4.911822254467143 2.448775450371377 0  -1.749904142526088 4.914036748330824 0  -1.745620049119377 -4.91734700243116 0  4.921780599408146 1.744533777542451 0  4.910478490165899 -1.748472826784469 0  -4.910774924031658 -1.748159295613474 0  -4.911619605137227 1.747898340046609 0  1.747251818774065 4.908101199599212 0  1.748834297490446 -4.896629989718179 0  -1.150026383761065 4.912621495708995 0  -1.130765233305651 -4.920174180010119 0  -4.910246018353937 -1.148173393363564 0  -4.910089086904449 1.147967435082903 0  1.144941314049336 -4.916527979551947 0  1.150030207774527 4.912603728983177 0  4.910388161273328 1.146454001506009 0  4.92109052888431 -1.152113386890413 0  -0.5473133654597521 -4.914233672028359 0  -0.5470311557836911 4.92255166701857 0  -4.908641693814702 -0.5487550746955874 0  -4.908679174884321 0.5472945892869964 0  4.907926457001992 -0.5490756891243838 0  4.919508867861295 0.5457763948147547 0  0.5431808322129992 -4.901726177787365 0  0.5517808180918902 4.919522338444333 0  -4.913008637483307 -3.049128161219416 0  4.919510203072474 3.047069691291223 0  4.912531067827477 -3.049124103632868 0  -4.91387314698456 3.046205772835562 0  3.056254355612228 -4.918868069521469 0  -3.049626295622212 -4.912819253839684 0  3.053177519223983 4.914926048940591 0  -3.049101339104036 4.91376387090132 0  -4.907603554814636 -0.04991573783259486 0  0.04516760865021244 -4.916256751068887 0  0.04961802310051033 4.92297400551976 0  4.91459617340052 -0.05129721222936038 0  3.546298175824403 -4.920021247029316 0  -3.549646277185321 4.913042572263185 0  -3.549620844808749 -4.913055802921905 0  4.919928
[...]
<PointData  Vectors="f_3028"> 
<DataArray  type="Float64"  Name="f_3028"  NumberOfComponents="3" format="ascii">-1.5464663646481563e-01 -1.8045807637481198e-01 0.0000000000000000e+00  1.6912588400316766e-01 -1.4308208246879453e-01 0.0000000000000000e+00  9.8444626819120945e-02 1.1499364542440710e-01 0.0000000000000000e+00  -1.6296201760908208e-01 1.8607422592311754e-01 0.0000000000000000e+00  4.1050480476569868e+00 -2.1540857391390165e+00 0.0000000000000000e+00  5.9561925875258298e-02 -1.3665358895187421e+00 0.0000000000000000e+00  5.0056893641756868e-02 -2.2185496141870478e+00 0.0000000000000000e+00  5.3143470711554869e-02 -3.6620524572441098e+00 0.0000000000000000e+00  4.0546335123272929e-02 -4.5271140926133659e+00 0.0000000000000000e+00  -9.9251244811749767e-02 -5.8820326007586168e+00 0.0000000000000000e+00  2.0231730194545262e-02 -7.2258976790995311e+00 0.0000000000000000e+00  3.5289791554140033e-02 -8.2395660819725034e+00 0.0000000000000000e+00  -1.6351184753464098e-02 -9.4784136376300943e+00 0.0000000000000000e+00  6.1607852959255138e-02 -1.0445989024151745e+01 0.0000000000000000e+00  6.2826098200645927e-02 -1.1857203797921434e+01 0.0000000000000000e+00  -9.7065010484830294e-03 -1.2800844305891962e+01 0.0000000000000000e+00  -1.7011700705553974e-02 -1.4040822029319019e+01 0.0000000000000000e+00  7.6841750514409996e-03 -1.5249085482567075e+01 0.0000000000000000e+00  5.2567470240043020e-03 -1.6390990850427396e+01 0.0000000000000000e+00  -6.4022687014247482e-03 -1.7552741018726245e+01 0.0000000000000000e+00  4.1982128178263715e-03 -1.8762844467814926e+01 0.0000000000000000e+00  2.4935716201675978e-02 -1.9932169881887397e+01 0.0000000000000000e+00  -3.5732971436753681e-03 -2.0861094998125601e+01 0.0000000000000000e+00  -8.1266592957200991e-03 -2.2143927061147807e+01 0.0000000000000000e+00  -3.1920625936578413e-02 -2.3428198595142572e+01 0.0000000000000000e+00  8.3733041146689363e-02 -2.4333440237731914e+01 0.0000000000000000e+00  3.7666602650866847e-02 -2.5644094318213984e+01 0.0000000000000000e+00  4.4949770858307730e-02 -2.6496232033904146e+01 0.0000000000000000e+00  7.4786639181179476e-02 -2.7756810561961927e+01 0.0000000000000000e+00  -3.5185852747608840e-02 -2.8642212712414771e+01 0.0000000000000000e+00  -1.1888130014881069e-02 -2.9857260635986044e+01 0.0000000000000000e+00  -4.2965204222376744e-03 -3.0992097554992618e+01 0.0000000000000000e+00  5.5238486763625749e-02 -3.1794767584597807e+01 0.0000000000000000e+00  4.0100451288605295e-02 -3.3017247625783241e+01 0.0000000000000000e+00  4.0137534630538485e-02 -3.3742371071979136e+01 0.0000000000000000e+00  -9.0406599399069504e-02 -3.4849330909149018e+01 0.0000000000000000e+00  3.9192102856007591e-02 -3.5891141735408944e+01 0.0000000000000000e+00  6.1839692382621740e-03 -3.6646220296237132e+01 0.0000000000000000e+00  -1.2841354677205670e-03 -3.7494798432102897e+01 0.0000000000000000e+00  -1.4917422986961565e-03 -3.8309873677085925e+01 0.0000000000000000e+00  6.8921673282257628e-03 -3.9088901550723016e+01 0.0000000000000000e+00  -3.9624832438469572e-02 -3.9897926804708263e+01 0.0000000000000000e+00  4.8367072336785236e-02 -4.0509910042414489e+01 0.0000000000000000e+00  2.5902676772864661e-02 -4.1144366290204339e+01 0.0000000000000000e+00  1.9845406316101724e-02 -4.1794257079826750e+01 0.0000000000000000e+00  -1.1204862550239838e-02 -4.2357069918050627e+01 0.0000000000000000e+00  4.7022019205449406e-02 -4.2741254878054107e+01 0.0000000000000000e+00  -3.4701876459964344e-02 -4.3264762545044952e+01 0.0000000000000000e+00  1.9298470672208749e-02 -4.3696913345105166e+01 0.0000000000000000e+00  -4.1356982181840569e-03 -4.3963788111315360e+01 0.0000000000000000e+00  1.4121709156825247e-03 -4.4246574631693399e+01 0.0000000000000000e+00  -9.9266556360500620e-04 -4.4457952488397055e+01 0.0000000000000000e+00  4.6490637099378648e-04 -4.4610011251679843e+01 0.0000000000000000e+00  2.4024411753539502e-04 -4.4700839520709692e+01 0.0000000000000000e+00  2.0598079002310901e-03 -4.4731007401758895e+01 0.0000000000000000e+00  8.0902403981290936e-04 -4.4711867720332037e+01 0.0000000000000000e+00  8.7700851631332712e-03 -4.4610925677426827e+01 0.0000000000000000e+00  -1.2275451711759035e-02 -4.4423654104923038e+01 0.0000000000000000e+00  -5.8774154738957772e-03 -4.4260736777943897e+01 0.0000000000000000e+00  -2.3580210365316604e-02 -4.3927784293453030e+01 0.0000000000000000e+00  7.6763357061961583e-03 -4.3656451753279917e+01 0.0000000000000000e+00  6.6284442779140041e-03 -4.3247424557484756e+01 0.0000000000000000e+00  -4.8398441817668362e-03 -4.2783461936847203e+01 0.0000000000000000e+00  -9.7628383481691275e-04 -4.2298865577318111e+01 0.0000000000000000e+00  5.8903849733886477e-03 -4.1741736692042664e+01 0.0000000000000000e+00  -1.3119839039170163e-02 -4.1138853279624058e+01 0.0000000000000000e+00  -8.4143281194565007e-03 -4.0467512534032018e+01 0.0000000000000000e+00  9.1923295070682441e-03 -3.9862296099593543e+01 0.0000000000000000e+00  -2.1778074553117414e-02 -3.9058754960282002e+01 0.0000000000000000e+00  2.5088566476504287e-02 -3.8272335654118407e+01 0.0000000000000000e+00  -3.1681475230768731e-02 -3.7463682532968861e+01 0.0000000000000000e+00  5.7915400855703706e-03 -3.6565767908228949e+01 0.0000000000000000e+00  1.5659107128588895e-02 -3.5755242816956439e+01 0.0000000000000000e+00  -2.2867699471751889e-02 -3.4798189019909707e+01 0.0000000000000000e+00  1.6129960963583271e-02 -3.3827553753826578e+01 0.0000000000000000e+00  -1.2000606900136058e-02 -3.2847216865933845e+01 0.0000000000000000e+00  5.2224225961167020e-03 -3.1865143423167524e+01 0.0000000000000000e+00  -2.1569737131474111e-02 -3.0856549794171325e+01 0.0000000000000000e+00  -7.0180785089230709e-03 -2.9761162078769626e+01 0.0000000000000000e+00  9.8239762847436955e-03 -2.8850391545275038e+01 0.0000000000000000e+00  1.7899482912116151e-03 -2.7702520917319120e+01 0.0000000000000000e+00  8.7968369412317858e-03 -2.6589645188533748e+01 0.0000000000000000e+00  -3.1378510924641362e-02 -2.5504934558145447e+01 0.0000000000000000e+00  -1.1299009680231457e-02 -2.4284350164475811e+01 0.0000000000000000e+00  2.0090214589272667e-02 -2.3285242116109643e+01 0.0000000000000000e+00  -3.0731744327323153e-02 -2.2065198906413023e+01 0.0000000000000000e+00  1.6098098035534209e-03 -2.0981479848772295e+01 0.0000000000000000e+00  1.1811601161209563e-02 -1.9873843469790295e+01 0.0000000000000000e+00  1.2928337087050544e-02 -1.8651427353287232e+01 0.0000000000000000e+00  -3.6254962690767889e-02 -1.7538095755072675e+01 0.0000000000000000e+00  7.2969768738060953e-03 -1.6302177828256504e+01 0.0000000000000000e+00  7.9072791133838975e-03 -1.5257411804811978e+01 0.0000000000000000e+00  -2.8756332977657399e-02 -1.4001339073014288e+01 0.0000000000000000e+00  -5.9086116158295972e-04 -1.2889868701190156e+01 0.0000000000000000e+00  1.5789572899275146e-02 -1.1692254481822355e+01 0.0000000000000000e+00  -8.8132807194789828e-04 -1.0506643579012197e+01 0.0000000000000000e+00  -1.5572342524503154e-02 -9.3631398052514250e+00 0.0000000000000000e+00  -1.1822163576419686e-02 -8.1453147674518327e+00 0.0000000000000000e+00  2.2967502045690015e-02 -7.1057503673501516e+00 0.0000000000000000e+00  -3.5164378863176159e-02 -5.8458716112286293e+00 0.0000000000000000e+00  8.4267480618392468e-03 -4.7028933103975081e+00 0.0000000000000000e+00  1.9259743835547457e-02 -3.5013016199506040e+00 0.0000000000000000e+00  -3.0176198970429911e-02 -2.3248942709583131e+00 0.0000000000000000e+00  -3.7154083896065615e-02 -1.3456974142431761e+00 0.0000000000000000e+00  1.4004497900016357e+00 3.3657766114683130e-02 0.0000000000000000e+00  2.2471495235226384e+00 8.5780585932003106e-02 0.0000000000000000e+00  3.6161975136492006e+00 6.2789195847717222e-02 0.0000000000000000e+00  4.6214825403005859e+00 -1.9188311753805126e-02 0.0000000000000000e+00  5.8722264904769057e+00 9.0497891797238772e-03 0.0000000000000000e+00  7.0238580937221267e+00 -6.4902459691624365e-03 0.0000000000000000e+00  8.1911937993353092e+00 1.2863816992244460e-03 0.0000000000000000e+00  9.3630940207455939e+00 -1.9043733637018848e-03 0.0000000000000000e+00  1.0525988471856422e+01 5.6807065444074102e-04 0.0000000000000000e+00  1.1714361151666132e+01 -3.4882348943478285e-04 0.0000000000000000e+00  1.2864589694279909e+01 -3.6074188452035539e-05 0.0000000000000000e+00  1.4043792581358975e+01 4.0026451656387388e-03 0.0000000000000000e+00  1.5172236803376432e+01 1.6379149438588000e-03 0.0000000000000000e+00  1.6377675549001324e+01 -7.8193046109418587e-03 0.0000000000000000e+00  1.7508468828223087e+01 3.9749212920346406e-03 0.0000000000000000e+00  1.8703208470254687e+01 3.3478354102149765e-03 0.0000000000000000e+00  1.9821231417459110e+01 -3.3219933537176460e-03 0.0000000000000000e+00  2.0950906721180036e+01 7.7929677697036563e-03 0.0000000000000000e+00  2.2131113245324023e+01 -7.6451849733008195e-03 0.0000000000000000e+00  2.3229760158041486e+01 -5.1398458603622993e-03 0.0000000000000000e+00  2.4380030088716669e+01 1.0580049437501253e-02 0.0000000000000000e+00  2.5504860092830818e+01 -1.1353552427386619e-02 0.0000000000000000e+00  2.6547089239858742e+01 8.1852780319690392e-03 0.0000000000000000e+00  2.7658780907709385e+01 1.9691596071808545e-03 0.0000000000000000e+00  2.8755125497793760e+01 4.8810956181499776e-03 0.0000000000000000e+00  2.9828880358213301e+01 -2.9548364402604567e-03 0.0000000000000000e+00  3.0863598477327276e+01 -2.0906449414882780e-03 0.0000000000000000e+00  3.1869398222609693e+01 -1.5405255781815999e-03 0.0000000000000000e+00  3.2866891517752300e+01 1.2572467259585067e-04 0.0000000000000000e+00  3.3840344515800446e+01 -3.6594934815292784e-04 0.0000000000000000e+00  3.4787683468818422e+01 2.4416276729929579e-04 0.0000000000000000e+00  3.5705251893106272e+01 -2.2853225860977569e-03 0.0000000000000000e+00  3.6582340408256677e+01 -9.1140521741734932e-04 0.0000000000000000e+00  3.7449826629541001e+01 4.3849911949345030e-03 0.0000000000000000e+00  3.8280607075812306e+01 -6.9129011652140195e-03 0.0000000000000000e+00  3.9021420768051740e+01 7.0538541869683939e-03 0.0000000000000000e+00  3.9770693191322721e+01 -6.3208019966253654e-04 0.0000000000000000e+00  4.0461201764849420e+01 8.0410334723433063e-03 0.0000000000000000e+00  4.1098669573189412e+01 1.0293700844269919e-02 0.0000000000000000e+00  4.1734479170951552e+01 -3.0833926919176968e-02 0.0000000000000000e+00  4.2330263177840607e+01 2.2502457390159821e-02 0.0000000000000000e+00  4.2780800204186932e+01 -9.7359147764294243e-03 0.0000000000000000e+00  4.3245484764657675e+01 1.3471455378560682e-03 0.0000000000000000e+00  4.3640193675316169e+01 -3.0805268590235980e-03 0.0000000000000000e+00  4.3959273017787908e+01 6.5983580173493992e-03 0.0000000000000000e+00  4.4236676606221899e+01 -1.1223216157242473e-03 0.0000000000000000e+00  4.4462466921310622e+01 5.0624078563702248e-04 0.0000000000000000e+00  4.4623587452639626e+01 -7.3160774776820890e-04 0.0000000000000000e+00  4.4722522369479194e+01 -2.8642749138358607e-04 0.0000000000000000e+00  4.4757112177761968e+01 6.0857349895771667e-04 0.0000000000000000e+00  4.4732480452318683e+01 6.6362849590625224e-04 0.0000000000000000e+00  4.4649216115475170e+01 -1.6416725347860978e-03 0.0000000000000000e+00  4.4498970153782984e+01 1.7809737119777475e-03 0.0000000000000000e+00  4.4288559637176959e+01 1.7547878695661634e-04 0.0000000000000000e+00  4.4028522126709376e+01 -3.1749397345447834e-03 0.0000000000000000e+00  4.3697527823697492e+01 3.7163810515770451e-03 0.0000000000000000e+00  4.3307073234462109e+01 -1.1595003535653523e-04 0.0000000000000000e+00  4.2872337907950268e+01 -4.4003266113108166e-03 0.0000000000000000e+00  4.2363723448095101e+01 9.8715503909382711e-04 0.0000000000000000e+00  4.1826844479336543e+01 2.2657953953539381e-03 0.0000000000000000e+00  4.1229306646159316e+01 -2.9598605815072013e-03 0.0000000000000000e+00  4.0607023328499771e+01 5.9542678765141437e-05 0.0000000000000000e+00  3.9900810456320336e+01 2.0928246056808298e-03 0.0000000000000000e+00  3.9170880578553870e+01 -1.9195197156782751e-03 0.0000000000000000e+00  3.8414200966577347e+01 6.9990968313874691e-03 0.0000000000000000e+00  3.7572366467449697e+01 -5.2055955614178613e-03 0.0000000000000000e+00  3.6743044273912183e+01 -7.0188571861700653e-03 0.0000000000000000e+00  3.5846712716039200e+01 8.9935680227058723e-03 0.0000000000000000e+00  3.4907543386010900e+01 -2.4815764349164827e-03 0.0000000000000000e+00  3.3969498749227192e+01 -4.6900835556916952e-03 0.0000000000000000e+00  3.2988914904910942e+01 3.9165979767196036e-03 0.0000000000000000e+00  3.1992556569556790e+01 3.5152725284409037e-03 0.0000000000000000e+00  3.0964709344425906e+01 -8.4754587092079068e-04 0.0000000000000000e+00  2.9929030042531814e+01 -4.1605594951129079e-05 0.0000000000000000e+00  2.8870995255847770e+01 2.1433452237730817e-03 0.0000000000000000e+00  2.7790295502038880e+01 -1.3705406392900707e-03 0.0000000000000000e+00  2.6722742538686202e+01 -2.2261205024759296e-03 0.0000000000000000e+00  2.5635940961468709e+01 6.6769250438388841e-03 0.0000000000000000e+00  2.4480757837160311e+01 -9.1453500191098804e-03 0.0000000000000000e+00  2.3352398707317398e+01 -9.8788231014183218e-04 0.0000000000000000e+00  2.2218650935617589e+01 -1.0304827820866247e-03 0.0000000000000000e+00  2.1113595375084987e+01 -3.8764430981571500e-04 0.0000000000000000e+00  1.9964616850935698e+01 9.4199250962187960e-03 0.0000000000000000e+00  1.8767025005035254e+01 -8.2411130436041338e-03 0.0000000000000000e+00  1.7606412472548463e+01 -1.0898242087927106e-03 0.0000000000000000e+00  1.6440465637374199e+01 5.6647774907771882e-04 0.0000000000000000e+00  1.5248073443977525e+01 3.9914958941240711e-03 0.0000000000000000e+00  1.4111060878738604e+01 1.7276115271245582e-03 0.0000000000000000e+00  1.2920760416566447e+01 -2.5758959683049622e-03 0.0000000000000000e+00  1.1759586622169879e+01 1.1083249263979104e-03 0.0000000000000000e+00  1.0585959407823159e+01 3.9839106550242096e-03 0.0000000000000000e+00  9.4347624531831062e+00 -1.4687736561232799e-03 0.0000000000000000e+00  8.2351736079408351e+00 -3.6126233112935748e-03 0.0000000000000000e+00  7.0591574476225833e+00 6.7658548361124692e-03 0.0000000000000000e+00  5.9037145673797395e+00 -1.1720325397062808e-02 0.0000000000000000e+00  4.7557273674030620e+00 -4.9719217030634354e-03 0.0000000000000000e+00  3.5679043597365001e+00 1.6220502333080197e-02 0.0000000000000000e+00  2.3419912379237275e+00 3.1289462307876716e-04 0.0000000000000000e+00  1.2728326442384721e+00 -4.2538859298840999e-02 0.0000000000000000e+00  -6.8457861533140069e-02 1.3143356160676154e+00 0.0000000000000000e+00  1.7134827309361285e-02 2.2825918904369447e+00 0.0000000000000000e+00  -2.8990656486417007e-02 3.5158809424454769e+00 0.0000000000000000e+00  -2.2756855320862024e-02 4.5224986711158008e+00 0.0000000000000000e+00  9.8789109918986887e-02 5.8797049675917759e+00 0.0000000000000000e+00  -2.4527776204090253e-02 7.2537307523651320e+00 0.0000000000000000e+00  -7.0624038639808803e-02 8.1126925407331480e+00 0.0000000000000000e+00  -1.0092195884380895e-01 9.4963178654233289e+00 0.0000000000000000e+00  2.8763301172078579e-02 1.0459938336163040e+01 0.0000000000000000e+00  3.1452779562450822e-02 1.1761761018241003e+01 0.0000000000000000e+00  -2.9181152748485165e-02 1.2943716956070322e+01 0.0000000000000000e+00  2.0985004386550609e-02 1.4076969315687954e+01 0.0000000000000000e+00  5.0366791349964824e-03 1.5357359374487624e+01 0.0000000000000000e+00  -4.0147819097311188e-03 1.6365966035231459e+01 0.0000000000000000e+00  -1.3515908575154412e-02 1.7609668236313201e+01 0.0000000000000000e+00  -5.7769967338858717e-03 1.8730187426977164e+01 0.0000000000000000e+00  1.6118639064634441e-02 1.9931708837084670e+01 0.0000000000000000e+00  -5.2538546204790038e-03 2.1123111544681329e+01 0.0000000000000000e+00  -1.2231757793481875e-02 2.2231792931440413e+01 0.0000000000000000e+00  -3.0744061685440863e-03 2.3438168775905012e+01 0.0000000000000000e+00  -1.1770026933447199e-02 2.4386545723599621e+01 0.0000000000000000e+00  2.6215604141048600e-02 2.5642325679551490e+01 0.0000000000000000e+00  -2.1855092870371271e-02 2.6719213594179845e+01 0.0000000000000000e+00  2.5861801565635879e-02 2.7822664195070939e+01 0.0000000000000000e+00  8.6797391728430911e-03 2.8986232307151191e+01 0.0000000000000000e+00  -6.0441679060664145e-02 2.9843554705307941e+01 0.0000000000000000e+00  -5.0208497303307661e-02 3.1103421448142932e+01 0.0000000000000000e+00  1.0449851303718132e-02 3.1947305159686515e+01 0.0000000000000000e+00  -3.2496970074409368e-02 3.3009105712525034e+01 0.0000000000000000e+00  -1.6236797467170411e-02 3.3854782606793869e+01 0.0000000000000000e+00  8.0017708446519717e-02 3.4943739268023371e+01 0.0000000000000000e+00  -2.8119873580107192e-02 3.6012899037137593e+01 0.0000000000000000e+00  -4.2848825364705266e-02 3.6684514399657459e+01 0.0000000000000000e+00  -4.6659061559271443e-02 3.7713881410121978e+01 0.0000000000000000e+00  6.0841278615652427e-03 3.8354343787848350e+01 0.0000000000000000e+00  1.4720773184837737e-02 3.9237842445192321e+01 0.0000000000000000e+00  -6.1263224224087382e-03 4.0002006587488999e+01 0.0000000000000000e+00  -1.7946186609891712e-03 4.0677952122765838e+01 0.0000000000000000e+00  1.2770684556427398e-03 4.1326292719078523e+01 0.0000000000000000e+00  1.5425150383213289e-03 4.1955265166427530e+01 0.0000000000000000e+00  -1.1272591895334931e-02 4.2516842524018202e+01 0.0000000000000000e+00  5.5948762831689168e-04 4.2921423820158289e+01 0.0000000000000000e+00  -3.5762241751391627e-04 4.3424192356833245e+01 0.0000000000000000e+00  4.8325113833103178e-03 4.3827282832454443e+01 0.0000000000000000e+00  -9.0206382789920492e-03 4.4150567650523669e+01 0.0000000000000000e+00  8.7937132745398595e-03 4.4439518964930514e+01 0.0000000000000000e+00  -3.1410983045606208e-03 4.4634811522801805e+01 0.0000000000000000e+00  -7.8564403631470325e-03 4.4802393136402145e+01 0.0000000000000000e+00  1.9152848931993621e-03 4.4891347983985675e+01 0.0000000000000000e+00  1.8302294212118790e-03 4.4928457734345329e+01 0.0000000000000000e+00  8.1044397628994118e-03 4.4887921290691651e+01 0.0000000000000000e+00  -9.0749733397233034e-03 4.4802460410635533e+01 0.0000000000000000e+00  4.1066791981435166e-03 4.4650466127688127e+01 0.0000000000000000e+00  -7.3888016806679512e-03 4.4428423528621273e+01 0.0000000000000000e+00  1.0472998237649111e-02 4.4153964668722338e+01 0.0000000000000000e+00  -9.1178568869148061e-03 4.3792409354719524e+01 0.0000000000000000e+00  1.9974459705384154e-02 4.3464405490174535e+01 0.0000000000000000e+00  2.3516932751674911e-02 4.2922836123952287e+01 0.0000000000000000e+00  1.2985841560700335e-02 4.2532930615171793e+01 0.0000000000000000e+00  4.7897626753538931e-02 4.1893471479490984e+01 0.0000000000000000e+00  -2.3057253178864433e-02 4.1406563314065018e+01 0.0000000000000000e+00  -8.3574887143563811e-03 4.0678787422694057e+01 0.0000000000000000e+00  9.3071581845060314e-03 3.9946026104621886e+01 0.0000000000000000e+00  -2.1289915787863030e-03 3.9231004810209988e+01 0.0000000000000000e+00  -7.1315713398722915e-04 3.8454207353848702e+01 0.0000000000000000e+00  -3.0599238883045553e-03 3.7615255009341546e+01 0.0000000000000000e+00  3.5723024313939131e-03 3.6769325044383145e+01 0.0000000000000000e+00  -1.7304954727067917e-02 3.5868787134267237e+01 0.0000000000000000e+00  3.1527764535152832e-02 3.4945681947103260e+01 0.0000000000000000e+00  -2.2392912352415233e-02 3.3918140939805106e+01 0.0000000000000000e+00  2.4716181035649543e-02 3.3072837367768862e+01 0.0000000000000000e+00  6.5865744502529820e-03 3.2072965551885851e+01 0.0000000000000000e+00  -2.6928856262681340e-02 3.0997926240223659e+01 0.0000000000000000e+00  1.7752168967076227e-02 2.9936784851020462e+01 0.0000000000000000e+00  -2.2321864577813887e-02 2.8887536899293195e+01 0.0000000000000000e+00  1.0725792020208800e-02 2.7748320022085785e+01 0.0000000000000000e+00  -4.7723693577790592e-03 2.6643258793738138e+01 0.0000000000000000e+00  4.5869216756111407e-02 2.5723303715558732e+01 0.