<?xml version="1.0"?>
<VTKFile type="UnstructuredGrid"  version="0.1"  >
<UnstructuredGrid>
<Piece  NumberOfPoints="11902" NumberOfCells="23402">
<Points>
<DataArray  type="Float64"  NumberOfComponents="3"  format="ascii">-5 -5 0  5 -5 0  5 5 0  -5 5 0  1.967060271857188 -0.0002734531143379823 0  -4.9 -5 0  -4.8 -5 0  -4.7 -5 0  -4.6 -5 0  -4.5 -5 0  -4.4 -5 0  -4.3 -5 0  -4.2 -5 0  -4.1 -5 0  -4 -5 0  -3.9 -5 0  -3.8 -5 0  -3.7 -5 0  -3.6 -5 0  -3.5 -5 0  -3.4 -5 0  -3.3 -5 0  -3.2 -5 0  -3.1 -5 0  -3 -5 0  -2.9 -5 0  -2.8 -5 0  -2.7 -5 0  -2.6 -5 0  -2.5 -5 0  -2.4 -5 0  -2.3 -5 0  -2.2 -5 0  -2.1 -5 0  -2 -5 0  -1.9 -5 0  -1.8 -5 0  -1.7 -5 0  -1.6 -5 0  -1.5 -5 0  -1.4 -5 0  -1.3 -5 0  -1.2 -5 0  -1.1 -5 0  -1 -5 0  -0.9000000000000004 -5 0  -0.7999999999999998 -5 0  -0.7000000000000002 -5 0  -0.5999999999999996 -5 0  -0.5 -5 0  -0.4000000000000004 -5 0  -0.2999999999999998 -5 0  -0.2000000000000002 -5 0  -0.09999999999999964 -5 0  0 -5 0  0.09999999999999964 -5 0  0.2000000000000002 -5 0  0.2999999999999998 -5 0  0.4000000000000004 -5 0  0.5 -5 0  0.5999999999999996 -5 0  0.7000000000000002 -5 0  0.7999999999999998 -5 0  0.9000000000000004 -5 0  1 -5 0  1.1 -5 0  1.2 -5 0  1.3 -5 0  1.4 -5 0  1.5 -5 0  1.6 -5 0  1.7 -5 0  1.8 -5 0  1.9 -5 0  2 -5 0  2.1 -5 0  2.2 -5 0  2.3 -5 0  2.4 -5 0  2.5 -5 0  2.6 -5 0  2.7 -5 0  2.8 -5 0  2.9 -5 0  3 -5 0  3.1 -5 0  3.199999999999999 -5 0  3.300000000000001 -5 0  3.4 -5 0  3.5 -5 0  3.6 -5 0  3.699999999999999 -5 0  3.800000000000001 -5 0  3.9 -5 0  4 -5 0  4.1 -5 0  4.199999999999999 -5 0  4.300000000000001 -5 0  4.4 -5 0  4.5 -5 0  4.6 -5 0  4.699999999999999 -5 0  4.800000000000001 -5 0  4.9 -5 0  5 -4.9 0  5 -4.8 0  5 -4.7 0  5 -4.6 0  5 -4.5 0  5 -4.4 0  5 -4.3 0  5 -4.2 0  5 -4.1 0  5 -4 0  5 -3.9 0  5 -3.8 0  5 -3.7 0  5 -3.6 0  5 -3.5 0  5 -3.4 0  5 -3.3 0  5 -3.2 0  5 -3.1 0  5 -3 0  5 -2.9 0  5 -2.8 0  5 -2.7 0  5 -2.6 0  5 -2.5 0  5 -2.4 0  5 -2.3 0  5 -2.2 0  5 -2.1 0  5 -2 0  5 -1.9 0  5 -1.8 0  5 -1.7 0  5 -1.6 0  5 -1.5 0  5 -1.4 0  5 -1.3 0  5 -1.2 0  5 -1.1 0  5 -1 0  5 -0.9000000000000004 0  5 -0.7999999999999998 0  5 -0.7000000000000002 0  5 -0.5999999999999996 0  5 -0.5 0  5 -0.4000000000000004 0  5 -0.2999999999999998 0  5 -0.2000000000000002 0  5 -0.09999999999999964 0  5 0 0  5 0.09999999999999964 0  5 0.2000000000000002 0  5 0.2999999999999998 0  5 0.4000000000000004 0  5 0.5 0  5 0.5999999999999996 0  5 0.7000000000000002 0  5 0.7999999999999998 0  5 0.9000000000000004 0  5 1 0  5 1.1 0  5 1.2 0  5 1.3 0  5 1.4 0  5 1.5 0  5 1.6 0  5 1.7 0  5 1.8 0  5 1.9 0  5 2 0  5 2.1 0  5 2.2 0  5 2.3 0  5 2.4 0  5 2.5 0  5 2.6 0  5 2.7 0  5 2.8 0  5 2.9 0  5 3 0  5 3.1 0  5 3.199999999999999 0  5 3.300000000000001 0  5 3.4 0  5 3.5 0  5 3.6 0  5 3.699999999999999 0  5 3.800000000000001 0  5 3.9 0  5 4 0  5 4.1 0  5 4.199999999999999 0  5 4.300000000000001 0  5 4.4 0  5 4.5 0  5 4.6 0  5 4.699999999999999 0  5 4.800000000000001 0  5 4.9 0  4.9 5 0  4.8 5 0  4.7 5 0  4.6 5 0  4.5 5 0  4.4 5 0  4.3 5 0  4.2 5 0  4.1 5 0  4 5 0  3.9 5 0  3.8 5 0  3.7 5 0  3.6 5 0  3.5 5 0  3.4 5 0  3.3 5 0  3.2 5 0  3.1 5 0  3 5 0  2.9 5 0  2.8 5 0  2.7 5 0  2.6 5 0  2.5 5 0  2.4 5 0  2.3 5 0  2.2 5 0  2.1 5 0  2 5 0  1.9 5 0  1.8 5 0  1.7 5 0  1.6 5 0  1.5 5 0  1.4 5 0  1.3 5 0  1.2 5 0  1.1 5 0  1 5 0  0.9000000000000004 5 0  0.7999999999999998 5 0  0.7000000000000002 5 0  0.5999999999999996 5 0  0.5 5 0  0.4000000000000004 5 0  0.2999999999999998 5 0  0.2000000000000002 5 0  0.09999999999999964 5 0  0 5 0  -0.09999999999999964 5 0  -0.2000000000000002 5 0  -0.2999999999999998 5 0  -0.4000000000000004 5 0  -0.5 5 0  -0.5999999999999996 5 0  -0.7000000000000002 5 0  -0.7999999999999998 5 0  -0.9000000000000004 5 0  -1 5 0  -1.1 5 0  -1.2 5 0  -1.3 5 0  -1.4 5 0  -1.5 5 0  -1.6 5 0  -1.7 5 0  -1.8 5 0  -1.9 5 0  -2 5 0  -2.1 5 0  -2.2 5 0  -2.3 5 0  -2.4 5 0  -2.5 5 0  -2.6 5 0  -2.7 5 0  -2.8 5 0  -2.9 5 0  -3 5 0  -3.1 5 0  -3.199999999999999 5 0  -3.300000000000001 5 0  -3.4 5 0  -3.5 5 0  -3.6 5 0  -3.699999999999999 5 0  -3.800000000000001 5 0  -3.9 5 0  -4 5 0  -4.1 5 0  -4.199999999999999 5 0  -4.300000000000001 5 0  -4.4 5 0  -4.5 5 0  -4.6 5 0  -4.699999999999999 5 0  -4.800000000000001 5 0  -4.9 5 0  -5 4.9 0  -5 4.8 0  -5 4.7 0  -5 4.6 0  -5 4.5 0  -5 4.4 0  -5 4.3 0  -5 4.2 0  -5 4.1 0  -5 4 0  -5 3.9 0  -5 3.8 0  -5 3.7 0  -5 3.6 0  -5 3.5 0  -5 3.4 0  -5 3.3 0  -5 3.2 0  -5 3.1 0  -5 3 0  -5 2.9 0  -5 2.8 0  -5 2.7 0  -5 2.6 0  -5 2.5 0  -5 2.4 0  -5 2.3 0  -5 2.2 0  -5 2.1 0  -5 2 0  -5 1.9 0  -5 1.8 0  -5 1.7 0  -5 1.6 0  -5 1.5 0  -5 1.4 0  -5 1.3 0  -5 1.2 0  -5 1.1 0  -5 1 0  -5 0.9000000000000004 0  -5 0.7999999999999998 0  -5 0.7000000000000002 0  -5 0.5999999999999996 0  -5 0.5 0  -5 0.4000000000000004 0  -5 0.2999999999999998 0  -5 0.2000000000000002 0  -5 0.09999999999999964 0  -5 0 0  -5 -0.09999999999999964 0  -5 -0.2000000000000002 0  -5 -0.2999999999999998 0  -5 -0.4000000000000004 0  -5 -0.5 0  -5 -0.5999999999999996 0  -5 -0.7000000000000002 0  -5 -0.7999999999999998 0  -5 -0.9000000000000004 0  -5 -1 0  -5 -1.1 0  -5 -1.2 0  -5 -1.3 0  -5 -1.4 0  -5 -1.5 0  -5 -1.6 0  -5 -1.7 0  -5 -1.8 0  -5 -1.9 0  -5 -2 0  -5 -2.1 0  -5 -2.2 0  -5 -2.3 0  -5 -2.4 0  -5 -2.5 0  -5 -2.6 0  -5 -2.7 0  -5 -2.8 0  -5 -2.9 0  -5 -3 0  -5 -3.1 0  -5 -3.199999999999999 0  -5 -3.300000000000001 0  -5 -3.4 0  -5 -3.5 0  -5 -3.6 0  -5 -3.699999999999999 0  -5 -3.800000000000001 0  -5 -3.9 0  -5 -4 0  -5 -4.1 0  -5 -4.199999999999999 0  -5 -4.300000000000001 0  -5 -4.4 0  -5 -4.5 0  -5 -4.6 0  -5 -4.699999999999999 0  -5 -4.800000000000001 0  -5 -4.9 0  1.957371577055832 0.1911507261894474 0  1.927766154241751 0.380343212990254 0  1.878989130104632 0.565407768886853 0  1.811081694371123 0.7455783677111265 0  1.725221817157416 0.9174826581116822 0  1.621872215931368 1.080663695882684 0  1.503039571344995 1.232422591619581 0  1.369084418768902 1.372187595889528 0  1.221755534934459 1.498566197447983 0  1.062344758745122 1.609819883209646 0  0.8930962702645624 1.704710932497498 0  0.7149209566207455 1.783149440389728 0  0.5298468023108769 1.843763472781875 0  0.3399669486414379 1.8860438438474 0  0.1461410245905219 1.909785469670448 0  -0.04810407652748432 1.914475121175563 0  -0.2431186451253263 1.900130085780846 0  -0.4350256902644102 1.866870542881229 0  -0.6225257390257268 1.81544096979192 0  -0.8043905079287774 1.746011897437469 0  -0.97862539673337 1.659053065700391 0  -1.142952884690244 1.555818645543287 0  -1.29655410831545 1.436947662407007 0  -1.437317183788196 1.303747740558745 0  -1.563378088650679 1.157689440517416 0  -1.674756376142076 0.9998148384186432 0  -1.769310460174821 0.8320418909253706 0  -1.846069824601517 0.6562610025166332 0  -1.904784896081385 0.4734175307927279 0  -1.943937437201259 0.2857343531821295 0  -1.963626124850066 0.09557877110653401 0  -1.963736042629776 -0.0957793252751592 0  -1.944264652661416 -0.2861197011514256 0  -1.904195160837386 -0.4734082672760257 0  -1.846235153314637 -0.6561829504431336 0  -1.769521061839344 -0.8324514601277295 0  -1.674805672967297 -1.00007822850578 0  -1.563591326458188 -1.15788108947463 0  -1.437294807979178 -1.303953090485646 0  -1.296683537546487 -1.437242639763648 0  -1.143273501573062 -1.556131175197593 0  -0.9782053321768087 -1.659125791537913 0  -0.8045038021621091 -1.74621630180461 0  -0.6223888148227223 -1.815895007941793 0  -0.434977983619495 -1.867515670513258 0  -0.2427238239877784 -1.900613445714687 0  -0.04828231954922273 -1.91475519137817 0  0.1459666595881885 -1.910071885676404 0  0.3395792478927929 -1.886422873500454 0  0.5297673900484168 -1.844029943816927 0  0.7146302201358519 -1.783564951976214 0  0.8931962287877373 -1.705180051657679 0  1.062777487085475 -1.610179084278973 0  1.221922799087731 -1.498903023184337 0  1.369168388918858 -1.372612679872466 0  1.502820107392546 -1.232850555609678 0  1.622108871882088 -1.080600383648469 0  1.72528635017823 -0.9174653081316411 0  1.810911301078871 -0.7455023533489925 0  1.878807253176317 -0.5658180865673355 0  1.927795517456507 -0.3804555357419853 0  1.957239595758652 -0.1911845726887522 0  -2.449753105031153 4.920403402506309 0  -2.449742064629242 -4.913011061367834 0  4.912856056412179 2.449633273123957 0  4.920761541473131 -2.450922587536511 0  2.447657184057398 -4.898667762481013 0  2.442014877779149 4.902387278110347 0  -4.912863437433323 -2.449634340532497 0  -4.912875428612996 2.449637480913309 0  -1.749740789991384 4.914250071829159 0  -1.745466478284111 -4.917567177521206 0  4.923577095093842 1.74559524639399 0  4.912529423163303 -1.749607367002469 0  -4.912783540438931 -1.749300963316297 0  -4.913589061494489 1.749027761142303 0  1.747032911086653 4.908352992671403 0  1.748625692744117 -4.896918928616806 0  -1.149804168497129 4.912670483418165 0  -1.130543657058584 -4.920320825063611 0  -4.913242866630601 -1.14929598098567 0  -4.913078642295237 1.149093334446825 0  1.1447406992446 -4.91662213301793 0  1.149793738549497 4.912699611032767 0  4.913422781854853 1.147586499011764 0  4.923757655142141 -1.153188047740732 0  -0.5471688019949928 -4.91420811643614 0  -0.5469103125319886 4.922488359488761 0  -4.912553567600144 -0.5494572047132662 0  -4.912582668209829 0.5480037601511489 0  4.91194994215008 -0.5497923386207173 0  4.923020748251948 0.546437009243959 0  0.5429783579237596 -4.901714565460998 0  0.5516445935103356 4.919463740826913 0  -4.913560966735843 -3.049711044368135 0  4.920024671393898 3.047632858547523 0  4.913091699979896 -3.049716190524715 0  -4.914407455751257 3.046787924324791 0  3.056377993181266 -4.919116948219687 0  -3.04976347595132 -4.913108847514466 0  3.053312137005307 4.915193278518448 0  -3.049226191543872 4.91402699043477 0  -4.911875370585522 -0.04998305713426184 0  0.04514784948781408 -4.916181654257282 0  0.04960146251962515 4.922885061695173 0  4.918609062324186 -0.05136053870163561 0  3.546464265054564 -4.920227184008785 0  -3.549818284800548 4.913238145765796 0  -3.549807200709407 -4.913244428871519 0  
[...]
<PointData  Vectors="f_538"> 
<DataArray  type="Float64"  Name="f_538"  NumberOfComponents="3" format="ascii">-1.7030320806826460e-01 -1.9872206602206821e-01 0.0000000000000000e+00  1.8652443567587548e-01 -1.5780960044592154e-01 0.0000000000000000e+00  1.0810564083745069e-01 1.2625443441027057e-01 0.0000000000000000e+00  -1.7901952235104912e-01 2.0440457723752242e-01 0.0000000000000000e+00  1.1462868937737507e+01 -1.3560490606730260e+00 0.0000000000000000e+00  6.5658375071816141e-02 -1.5041651007540926e+00 0.0000000000000000e+00  5.4935492881908451e-02 -2.4423048245416146e+00 0.0000000000000000e+00  5.8665103968073923e-02 -4.0309027026827149e+00 0.0000000000000000e+00  4.4519265676825202e-02 -4.9832171647927064e+00 0.0000000000000000e+00  -1.0924212514236326e-01 -6.4750405374050368e+00 0.0000000000000000e+00  2.2482952705029174e-02 -7.9540948070232202e+00 0.0000000000000000e+00  3.8799378587151254e-02 -9.0698105737842845e+00 0.0000000000000000e+00  -1.7727363310556136e-02 -1.0432982680860377e+01 0.0000000000000000e+00  6.7099845999528590e-02 -1.1497998184773845e+01 0.0000000000000000e+00  6.9645862593541497e-02 -1.3050538221651845e+01 0.0000000000000000e+00  -1.0946943275778016e-02 -1.4089879465475589e+01 0.0000000000000000e+00  -1.8606030874062034e-02 -1.5454236469769279e+01 0.0000000000000000e+00  8.4128319338410435e-03 -1.6783664172372319e+01 0.0000000000000000e+00  5.7435737233780971e-03 -1.8040123042754416e+01 0.0000000000000000e+00  -7.0274792066300712e-03 -1.9318389758305678e+01 0.0000000000000000e+00  4.5496819799787777e-03 -2.0649476826374148e+01 0.0000000000000000e+00  2.7599286456216187e-02 -2.1935348438641132e+01 0.0000000000000000e+00  -4.3169824465253319e-03 -2.2957956213299578e+01 0.0000000000000000e+00  -8.6947870241293971e-03 -2.4368778963734414e+01 0.0000000000000000e+00  -3.4974504853501821e-02 -2.5781002235581024e+01 0.0000000000000000e+00  9.1417626414654882e-02 -2.6776117505619506e+01 0.0000000000000000e+00  4.1571588135415623e-02 -2.8217851198129726e+01 0.0000000000000000e+00  4.9068676132313728e-02 -2.9154224209532448e+01 0.0000000000000000e+00  8.1901960214744482e-02 -3.0539953386860720e+01 0.0000000000000000e+00  -3.8635087101564984e-02 -3.1513347240282933e+01 0.0000000000000000e+00  -1.2983999755858946e-02 -3.2848173085499248e+01 0.0000000000000000e+00  -4.9099710403778521e-03 -3.4094654758582180e+01 0.0000000000000000e+00  6.0688146225129469e-02 -3.4976582696643796e+01 0.0000000000000000e+00  4.3588495643680010e-02 -3.6319300557717909e+01 0.0000000000000000e+00  4.4063405918248463e-02 -3.7115507170275691e+01 0.0000000000000000e+00  -9.8947405309804976e-02 -3.8330188342652463e+01 0.0000000000000000e+00  4.2649173402257962e-02 -3.9473783756328928e+01 0.0000000000000000e+00  6.7279106651621937e-03 -4.0302348795470841e+01 0.0000000000000000e+00  -1.4242433932444047e-03 -4.1233361880602473e+01 0.0000000000000000e+00  -1.6863118498119567e-03 -4.2127477676868772e+01 0.0000000000000000e+00  7.6029735242417896e-03 -4.2981785836570708e+01 0.0000000000000000e+00  -4.3744125467520101e-02 -4.3868794011840336e+01 0.0000000000000000e+00  5.3457164854679655e-02 -4.4539828248355434e+01 0.0000000000000000e+00  2.8339346755421577e-02 -4.5234558344714401e+01 0.0000000000000000e+00  2.1591482018756797e-02 -4.5946636544576208e+01 0.0000000000000000e+00  -1.2555887873977947e-02 -4.6563740358130396e+01 0.0000000000000000e+00  5.1865169339922607e-02 -4.6984822733241458e+01 0.0000000000000000e+00  -3.8054085038930652e-02 -4.7558200792456994e+01 0.0000000000000000e+00  2.1119954471586114e-02 -4.8031774151677681e+01 0.0000000000000000e+00  -4.5165638225521934e-03 -4.8324216420003090e+01 0.0000000000000000e+00  1.5549715323627479e-03 -4.8634322741396431e+01 0.0000000000000000e+00  -1.0823229514506968e-03 -4.8866287869532293e+01 0.0000000000000000e+00  5.1936633639522293e-04 -4.9033413982637327e+01 0.0000000000000000e+00  2.6375805929619735e-04 -4.9133628687063926e+01 0.0000000000000000e+00  2.2708135283698973e-03 -4.9167542598413576e+01 0.0000000000000000e+00  9.3264009193131541e-04 -4.9147460209964855e+01 0.0000000000000000e+00  9.5069723298513258e-03 -4.9038236638119479e+01 0.0000000000000000e+00  -1.3469874208774664e-02 -4.8834837224999262e+01 0.0000000000000000e+00  -6.2341567749684317e-03 -4.8657405299793503e+01 0.0000000000000000e+00  -2.5895928416600270e-02 -4.8294894467989415e+01 0.0000000000000000e+00  8.4367042814374720e-03 -4.7998818223234451e+01 0.0000000000000000e+00  7.2542757069800805e-03 -4.7552656746741398e+01 0.0000000000000000e+00  -5.3270848598136232e-03 -4.7046158431281647e+01 0.0000000000000000e+00  -1.0480592028030281e-03 -4.6516943932792188e+01 0.0000000000000000e+00  6.4304693659524813e-03 -4.5908147429184389e+01 0.0000000000000000e+00  -1.4275293868797730e-02 -4.5249073643838877e+01 0.0000000000000000e+00  -9.4400739516726315e-03 -4.4515281335439390e+01 0.0000000000000000e+00  1.0306869402359637e-02 -4.3853213658551752e+01 0.0000000000000000e+00  -2.3916603315831106e-02 -4.2973109061642141e+01 0.0000000000000000e+00  2.7396075685506456e-02 -4.2112167109575196e+01 0.0000000000000000e+00  -3.4479069467181156e-02 -4.1226447107729527e+01 0.0000000000000000e+00  6.1132223074943006e-03 -4.0242892295948906e+01 0.0000000000000000e+00  1.7441886304913473e-02 -3.9354225917154686e+01 0.0000000000000000e+00  -2.5029645172220418e-02 -3.8303816334137650e+01 0.0000000000000000e+00  1.7616001367156679e-02 -3.7239226998418360e+01 0.0000000000000000e+00  -1.3070274354513845e-02 -3.6163544748757893e+01 0.0000000000000000e+00  5.8164870416287963e-03 -3.5085333342450618e+01 0.0000000000000000e+00  -2.3635655161168646e-02 -3.3977808422108268e+01 0.0000000000000000e+00  -7.6034916859974745e-03 -3.2774302058858574e+01 0.0000000000000000e+00  1.0909560591061494e-02 -3.1773080095344195e+01 0.0000000000000000e+00  1.8633334742540687e-03 -3.0511338566426549e+01 0.0000000000000000e+00  9.8014092742811556e-03 -2.9288113694641734e+01 0.0000000000000000e+00  -3.4489442717843689e-02 -2.8095324372434128e+01 0.0000000000000000e+00  -1.2137894394424661e-02 -2.6752133053507997e+01 0.0000000000000000e+00  2.1895984533346333e-02 -2.5652746060866601e+01 0.0000000000000000e+00  -3.3611293557082339e-02 -2.4310367855802305e+01 0.0000000000000000e+00  1.8383545472705827e-03 -2.3117312338442940e+01 0.0000000000000000e+00  1.2851056408405746e-02 -2.1898264198327301e+01 0.0000000000000000e+00  1.4286876896093146e-02 -2.0552518238735736e+01 0.0000000000000000e+00  -3.9917985096753691e-02 -1.9326545472499909e+01 0.0000000000000000e+00  8.3591091661232488e-03 -1.7964574195988291e+01 0.0000000000000000e+00  8.3643092078557451e-03 -1.6813657366883668e+01 0.0000000000000000e+00  -3.1532561870633996e-02 -1.5430601817009320e+01 0.0000000000000000e+00  -6.5827863560955478e-04 -1.4205732272621695e+01 0.0000000000000000e+00  1.7289191878110250e-02 -1.2886529528547257e+01 0.0000000000000000e+00  -9.4626988641637890e-04 -1.1580211718048938e+01 0.0000000000000000e+00  -1.7283222931340804e-02 -1.0319914710511751e+01 0.0000000000000000e+00  -1.2787332766310316e-02 -8.9775528897581918e+00 0.0000000000000000e+00  2.5048072607839918e-02 -7.8316328439298148e+00 0.0000000000000000e+00  -3.8669615298782982e-02 -6.4435519728664072e+00 0.0000000000000000e+00  9.2639634255399003e-03 -5.1835607370409758e+00 0.0000000000000000e+00  2.1095881102436181e-02 -3.8593625776951859e+00 0.0000000000000000e+00  -3.3275173606042180e-02 -2.5627263703270118e+00 0.0000000000000000e+00  -4.1048618729725421e-02 -1.4832059790843002e+00 0.0000000000000000e+00  1.5435815011186331e+00 3.7202744015029508e-02 0.0000000000000000e+00  2.4770816505245006e+00 9.4384768781035258e-02 0.0000000000000000e+00  3.9857906971900907e+00 6.9331793226987237e-02 0.0000000000000000e+00  5.0942626899896508e+00 -2.1127447404117004e-02 0.0000000000000000e+00  6.4729142999345681e+00 1.0013480110059069e-02 0.0000000000000000e+00  7.7424337197981288e+00 -7.1040808885295985e-03 0.0000000000000000e+00  9.0293475108189245e+00 1.4717304223617626e-03 0.0000000000000000e+00  1.0321368425387680e+01 -2.0347841583452158e-03 0.0000000000000000e+00  1.1603571400155072e+01 6.6385510384248125e-04 0.0000000000000000e+00  1.2913896568146027e+01 -3.1073232305113199e-04 0.0000000000000000e+00  1.4182295038378232e+01 -4.2280019389277363e-05 0.0000000000000000e+00  1.5482715410891029e+01 4.5690541449079749e-03 0.0000000000000000e+00  1.6727285968367198e+01 1.7985252928854078e-03 0.0000000000000000e+00  1.8056807347948922e+01 -8.4709474245839734e-03 0.0000000000000000e+00  1.9304155128570144e+01 4.3301782917915419e-03 0.0000000000000000e+00  2.0622249558406864e+01 3.8531796191549703e-03 0.0000000000000000e+00  2.1855677453695488e+01 -3.5567375781918667e-03 0.0000000000000000e+00  2.3102057536026862e+01 8.5631330523324306e-03 0.0000000000000000e+00  2.4404264573634357e+01 -8.1928218981788380e-03 0.0000000000000000e+00  2.5616831484523065e+01 -5.7128265134564465e-03 0.0000000000000000e+00  2.6886439087345558e+01 1.1715330362673727e-02 0.0000000000000000e+00  2.8128062722481907e+01 -1.2227314782797096e-02 0.0000000000000000e+00  2.9278727767990123e+01 8.7831485337986435e-03 0.0000000000000000e+00  3.0506073372495987e+01 2.3563208226983572e-03 0.0000000000000000e+00  3.1715944342531508e+01 5.3774374166468374e-03 0.0000000000000000e+00  3.2901037962559066e+01 -3.0448901481796033e-03 0.0000000000000000e+00  3.4043137380989371e+01 -2.2000642740078744e-03 0.0000000000000000e+00  3.5153624068517573e+01 -1.6070806153241153e-03 0.0000000000000000e+00  3.6254918282925061e+01 2.3573301624592048e-04 0.0000000000000000e+00  3.7329591028604071e+01 -3.2026750643819358e-04 0.0000000000000000e+00  3.8375315562865339e+01 3.4979324191503281e-04 0.0000000000000000e+00  3.9388239500178095e+01 -2.3988834283187625e-03 0.0000000000000000e+00  4.0356507249756618e+01 -1.0010455065564004e-03 0.0000000000000000e+00  4.1313742349398346e+01 4.7119222745975646e-03 0.0000000000000000e+00  4.2230244073972351e+01 -7.2299205227212681e-03 0.0000000000000000e+00  4.3047335272444883e+01 7.2780295958647110e-03 0.0000000000000000e+00  4.3873625826912928e+01 -4.6853201907746819e-04 0.0000000000000000e+00  4.4634348738396660e+01 8.3131716727205679e-03 0.0000000000000000e+00  4.5335301466278352e+01 1.1147118795016274e-02 0.0000000000000000e+00  4.6034991720587840e+01 -3.2780852248584735e-02 0.0000000000000000e+00  4.6689216815218181e+01 2.3813748570234321e-02 0.0000000000000000e+00  4.7184183676448974e+01 -1.0339889615492384e-02 0.0000000000000000e+00  4.7693392463498959e+01 1.4752200468743377e-03 0.0000000000000000e+00  4.8125340257896873e+01 -3.2736279445045725e-03 0.0000000000000000e+00  4.8473849895689725e+01 6.7497373872451487e-03 0.0000000000000000e+00  4.8775739274785330e+01 -1.1588663761280642e-03 0.0000000000000000e+00  4.9019857150810758e+01 4.6497277299721606e-04 0.0000000000000000e+00  4.9192307685849947e+01 -7.4193510313838498e-04 0.0000000000000000e+00  4.9295910185801361e+01 -3.0618354439933222e-04 0.0000000000000000e+00  4.9328561841536278e+01 6.2701596202813421e-04 0.0000000000000000e+00  4.9295350750797532e+01 7.0773287296762829e-04 0.0000000000000000e+00  4.9197542804131679e+01 -1.7774542604178853e-03 0.0000000000000000e+00  4.9025673091520694e+01 1.9509790176977270e-03 0.0000000000000000e+00  4.8787195144662562e+01 2.2296540292114506e-04 0.0000000000000000e+00  4.8494289261422210e+01 -3.3730633208350399e-03 0.0000000000000000e+00  4.8123129798175043e+01 3.9897361079337459e-03 0.0000000000000000e+00  4.7686268619193690e+01 -2.4357570532829071e-05 0.0000000000000000e+00  4.7201140381086439e+01 -4.7611024825651958e-03 0.0000000000000000e+00  4.6634182996075424e+01 1.2750866874564829e-03 0.0000000000000000e+00  4.6036285651951182e+01 2.3653683798514707e-03 0.0000000000000000e+00  4.5371698501520342e+01 -3.0357616228616174e-03 0.0000000000000000e+00  4.4680663358984624e+01 -1.0618716500400456e-05 0.0000000000000000e+00  4.3897299265449590e+01 2.1709745217459169e-03 0.0000000000000000e+00  4.3087806095347233e+01 -1.9278820287947482e-03 0.0000000000000000e+00  4.2249749540970981e+01 7.2721826315934593e-03 0.0000000000000000e+00  4.1318505607681324e+01 -5.5584022319093377e-03 0.0000000000000000e+00  4.0401380106569185e+01 -7.6627987325900227e-03 0.0000000000000000e+00  3.9410942774222711e+01 9.6329869780552753e-03 0.0000000000000000e+00  3.8373310289865778e+01 -2.7481134832337650e-03 0.0000000000000000e+00  3.7337206360540399e+01 -4.9634513385834111e-03 0.0000000000000000e+00  3.6254632866751322e+01 4.2444639879727856e-03 0.0000000000000000e+00  3.5155640132597881e+01 3.6608071846120239e-03 0.0000000000000000e+00  3.4022393262281234e+01 -9.7851566696052902e-04 0.0000000000000000e+00  3.2880588953556305e+01 -1.0608222443174658e-04 0.0000000000000000e+00  3.1714726513412991e+01 2.1993264610718952e-03 0.0000000000000000e+00  3.0524747061203126e+01 -1.6091402982060955e-03 0.0000000000000000e+00  2.9349131537201604e+01 -2.5207201538216262e-03 0.0000000000000000e+00  2.8153050572570066e+01 7.0650631022335583e-03 0.0000000000000000e+00  2.6882294863619418e+01 -1.0034300186718005e-02 0.0000000000000000e+00  2.5641137366805133e+01 -1.1075041659316372e-03 0.0000000000000000e+00  2.4394217449299319e+01 -1.1813731212673313e-03 0.0000000000000000e+00  2.3179272461958035e+01 -5.3589425915359602e-04 0.0000000000000000e+00  2.1916450643033169e+01 1.0177166905015906e-02 0.0000000000000000e+00  2.0600443092308726e+01 -9.0552902361741242e-03 0.0000000000000000e+00  1.9325240266700632e+01 -1.2448767641082175e-03 0.0000000000000000e+00  1.8044380933849574e+01 5.3638520401991284e-04 0.0000000000000000e+00  1.6734657095983632e+01 4.3728376629274717e-03 0.0000000000000000e+00  1.5485963453617746e+01 1.7923352976035268e-03 0.0000000000000000e+00  1.4179030741947759e+01 -2.8582506512118879e-03 0.0000000000000000e+00  1.2904235732089237e+01 1.1418798074159246e-03 0.0000000000000000e+00  1.1615909200565021e+01 4.3267282997147731e-03 0.0000000000000000e+00  1.0352356531535033e+01 -1.6792502187395926e-03 0.0000000000000000e+00  9.0359141884912706e+00 -4.0012648646089426e-03 0.0000000000000000e+00  7.7454176352128048e+00 7.3492064660845829e-03 0.0000000000000000e+00  6.4775214446749940e+00 -1.2908523221516184e-02 0.0000000000000000e+00  5.2178721050446413e+00 -5.5026143972498956e-03 0.0000000000000000e+00  3.9145758818119076e+00 1.7753069199246359e-02 0.0000000000000000e+00  2.5695108262940218e+00 3.0393615420911660e-04 0.0000000000000000e+00  1.3963728868851486e+00 -4.6753120078572755e-02 0.0000000000000000e+00  -7.5184266465339586e-02 1.4418656923206576e+00 0.0000000000000000e+00  1.8742879593538170e-02 2.5042528690370931e+00 0.0000000000000000e+00  -3.1794519622570704e-02 3.8574541679179166e+00 0.0000000000000000e+00  -2.5001164369079235e-02 4.9617370538602383e+00 0.0000000000000000e+00  1.0851968153446073e-01 6.4508780223485287e+00 0.0000000000000000e+00  -2.7173531271872015e-02 7.9577347702717818e+00 0.0000000000000000e+00  -7.6941940894728000e-02 8.9001168793982899e+00 0.0000000000000000e+00  -1.1099773622950421e-01 1.0417144299238149e+01 0.0000000000000000e+00  3.1725478679768854e-02 1.1474795181997907e+01 0.0000000000000000e+00  3.4264393589602239e-02 1.2901926327848370e+01 0.0000000000000000e+00  -3.1849579492952661e-02 1.4198205139235778e+01 0.0000000000000000e+00  2.2975527433678880e-02 1.5440411876524614e+01 0.0000000000000000e+00  5.1692118486887243e-03 1.6843756382430289e+01 0.0000000000000000e+00  -3.9618653191160983e-03 1.7949396076168529e+01 0.0000000000000000e+00  -1.4990348103377989e-02 1.9313091731800117e+01 0.0000000000000000e+00  -6.1855693046584887e-03 2.0541097174343562e+01 0.0000000000000000e+00  1.7521629704661278e-02 2.1857331642758588e+01 0.0000000000000000e+00  -5.6498987202425223e-03 2.3162275155625398e+01 0.0000000000000000e+00  -1.3310951345394367e-02 2.4376355230426348e+01 0.0000000000000000e+00  -3.5181876496441261e-03 2.5697266107515034e+01 0.0000000000000000e+00  -1.2468162314873656e-02 2.6736094829623045e+01 0.0000000000000000e+00  2.8386783206267960e-02 2.8110978544327377e+01 0.0000000000000000e+00  -2.3593944122095444e-02 2.9289410703700081e+01 0.0000000000000000e+00  2.8132697265914205e-02 3.0496606832463950e+01 0.0000000000000000e+00  9.6109415602366119e-03 3.1769375569517610e+01 0.0000000000000000e+00  -6.5967832941671328e-02 3.2707134637640046e+01 0.0000000000000000e+00  -5.4518931100325747e-02 3.4085184409027860e+01 0.0000000000000000e+00  1.1374201542071687e-02 3.5007644806463666e+01 0.0000000000000000e+00  -3.5313778162172543e-02 3.6167984135705744e+01 0.0000000000000000e+00  -1.7760053267504794e-02 3.7091967271244677e+01 0.0000000000000000e+00  8.7003130462605688e-02 3.8280947806468134e+01 0.0000000000000000e+00  -3.0200646759135891e-02 3.9449368372158098e+01 0.0000000000000000e+00  -4.7308317390902792e-02 4.0182338225581674e+01 0.0000000000000000e+00  -5.0183617121434113e-02 4.1306716085269464e+01 0.0000000000000000e+00  6.3893549671848182e-03 4.2005168512212592e+01 0.0000000000000000e+00  1.6037355667539353e-02 4.2969169144400688e+01 0.0000000000000000e+00  -6.6381146898794891e-03 4.3802623666933520e+01 0.0000000000000000e+00  -1.9717132806561506e-03 4.4539999991742739e+01 0.0000000000000000e+00  1.3874090157853789e-03 4.5246911597053078e+01 0.0000000000000000e+00  1.6054592523349785e-03 4.5932600334669658e+01 0.0000000000000000e+00  -1.2060231709785074e-02 4.6545142456406502e+01 0.0000000000000000e+00  4.2001502993877713e-04 4.6985901407578019e+01 0.0000000000000000e+00  -3.4389096732764319e-04 4.7533791047570894e+01 0.0000000000000000e+00  5.2561611880016122e-03 4.7973282269701649e+01 0.0000000000000000e+00  -9.8626905441953037e-03 4.8325650069711649e+01 0.0000000000000000e+00  9.6268037535659073e-03 4.8640794079195999e+01 0.0000000000000000e+00  -3.4507295035055355e-03 4.8853927750311136e+01 0.0000000000000000e+00  -8.5808965440137188e-03 4.9036824331080233e+01 0.0000000000000000e+00  2.1045783429938804e-03 4.9134336156876081e+01 0.0000000000000000e+00  1.9717743981091202e-03 4.9175402988922258e+01 0.0000000000000000e+00  8.8387293461489585e-03 4.9132072863541531e+01 0.0000000000000000e+00  -9.8835524788367258e-03 4.9039717971957678e+01 0.0000000000000000e+00  4.4652205980069753e-03 4.8875097087298961e+01 0.0000000000000000e+00  -8.0393974717061882e-03 4.8634192908821930e+01 0.0000000000000000e+00  1.1420817767329375e-02 4.8336198339461575e+01 0.0000000000000000e+00  -9.8059213740895757e-03 4.7943541323307279e+01 0.0000000000000000e+00  2.1444633003674430e-02 4.7587103777446686e+01 0.0000000000000000e+00  2.5918428347899272e-02 4.6998322468476921e+01 0.0000000000000000e+00  1.3661701750091173e-02 4.6573934853201173e+01 0.0000000000000000e+00  5.2489162457840334e-02 4.5878903521390853e+01 0.0000000000000000e+00  -2.5248385969606910e-02 4.5348199189823163e+01 0.0000000000000000e+00  -9.1324369951542445e-03 4.4555985687901625e+01 0.0000000000000000e+00  1.0158968286023806e-02 4.3757721923211449e+01 0.0000000000000000e+00  -2.3519870594363975e-03 4.2978664691819695e+01 0.0000000000000000e+00  -8.0401629453115181e-04 4.2131831051230286e+01 0.0000000000000000e+00  -3.3490778130172713e-03 4.1216906537661707e+01 0.0000000000000000e+00  3.8495868718537536e-03 4.0294049909842727e+01 0.0000000000000000e+00  -1.8886498932558501e-02 3.9311405059380462e+01 0.0000000000000000e+00  3.4203353124322232e-02 3.8303714829753574e+01 0.0000000000000000e+00  -2.4266184269561061e-02 3.7181703227135010e+01 0.0000000000000000e+00  2.6604651928647003e-02 3.6258005443126791e+01 0.0000000000000000e+00  7.2176658621156747e-03 3.5164936512922473e+01 0.0000000000000000e+00  -2.9361866968999058e-02 3.3990162121544593e+01 0.0000000000000000e+00  1.9186393219995847e-02 3.2829681071331706e+01 0.0000000000000000e+00  -2.4307723925673604e-02 3.1681988635631928e+01 0.0000000000000000e+00  1.1651548090022203e-02 3.0435828948435695e+01 0.0000000000000000e+00  -5.3822407047461650e-03 2.9226191614776873e+01 0.0000000000000000e+00  5.0342355290304855e-02 2.8218998278757347e+01 0.0