<?xml version="1.0"?>
<VTKFile type="UnstructuredGrid"  version="0.1"  >
<UnstructuredGrid>
<Piece  NumberOfPoints="11902" NumberOfCells="23402">
<Points>
<DataArray  type="Float64"  NumberOfComponents="3"  format="ascii">-5 -5 0  5 -5 0  5 5 0  -5 5 0  1.965207999288287 0.01706922902354522 0  -4.9 -5 0  -4.8 -5 0  -4.7 -5 0  -4.6 -5 0  -4.5 -5 0  -4.4 -5 0  -4.3 -5 0  -4.2 -5 0  -4.1 -5 0  -4 -5 0  -3.9 -5 0  -3.8 -5 0  -3.7 -5 0  -3.6 -5 0  -3.5 -5 0  -3.4 -5 0  -3.3 -5 0  -3.2 -5 0  -3.1 -5 0  -3 -5 0  -2.9 -5 0  -2.8 -5 0  -2.7 -5 0  -2.6 -5 0  -2.5 -5 0  -2.4 -5 0  -2.3 -5 0  -2.2 -5 0  -2.1 -5 0  -2 -5 0  -1.9 -5 0  -1.8 -5 0  -1.7 -5 0  -1.6 -5 0  -1.5 -5 0  -1.4 -5 0  -1.3 -5 0  -1.2 -5 0  -1.1 -5 0  -1 -5 0  -0.9000000000000004 -5 0  -0.7999999999999998 -5 0  -0.7000000000000002 -5 0  -0.5999999999999996 -5 0  -0.5 -5 0  -0.4000000000000004 -5 0  -0.2999999999999998 -5 0  -0.2000000000000002 -5 0  -0.09999999999999964 -5 0  0 -5 0  0.09999999999999964 -5 0  0.2000000000000002 -5 0  0.2999999999999998 -5 0  0.4000000000000004 -5 0  0.5 -5 0  0.5999999999999996 -5 0  0.7000000000000002 -5 0  0.7999999999999998 -5 0  0.9000000000000004 -5 0  1 -5 0  1.1 -5 0  1.2 -5 0  1.3 -5 0  1.4 -5 0  1.5 -5 0  1.6 -5 0  1.7 -5 0  1.8 -5 0  1.9 -5 0  2 -5 0  2.1 -5 0  2.2 -5 0  2.3 -5 0  2.4 -5 0  2.5 -5 0  2.6 -5 0  2.7 -5 0  2.8 -5 0  2.9 -5 0  3 -5 0  3.1 -5 0  3.199999999999999 -5 0  3.300000000000001 -5 0  3.4 -5 0  3.5 -5 0  3.6 -5 0  3.699999999999999 -5 0  3.800000000000001 -5 0  3.9 -5 0  4 -5 0  4.1 -5 0  4.199999999999999 -5 0  4.300000000000001 -5 0  4.4 -5 0  4.5 -5 0  4.6 -5 0  4.699999999999999 -5 0  4.800000000000001 -5 0  4.9 -5 0  5 -4.9 0  5 -4.8 0  5 -4.7 0  5 -4.6 0  5 -4.5 0  5 -4.4 0  5 -4.3 0  5 -4.2 0  5 -4.1 0  5 -4 0  5 -3.9 0  5 -3.8 0  5 -3.7 0  5 -3.6 0  5 -3.5 0  5 -3.4 0  5 -3.3 0  5 -3.2 0  5 -3.1 0  5 -3 0  5 -2.9 0  5 -2.8 0  5 -2.7 0  5 -2.6 0  5 -2.5 0  5 -2.4 0  5 -2.3 0  5 -2.2 0  5 -2.1 0  5 -2 0  5 -1.9 0  5 -1.8 0  5 -1.7 0  5 -1.6 0  5 -1.5 0  5 -1.4 0  5 -1.3 0  5 -1.2 0  5 -1.1 0  5 -1 0  5 -0.9000000000000004 0  5 -0.7999999999999998 0  5 -0.7000000000000002 0  5 -0.5999999999999996 0  5 -0.5 0  5 -0.4000000000000004 0  5 -0.2999999999999998 0  5 -0.2000000000000002 0  5 -0.09999999999999964 0  5 0 0  5 0.09999999999999964 0  5 0.2000000000000002 0  5 0.2999999999999998 0  5 0.4000000000000004 0  5 0.5 0  5 0.5999999999999996 0  5 0.7000000000000002 0  5 0.7999999999999998 0  5 0.9000000000000004 0  5 1 0  5 1.1 0  5 1.2 0  5 1.3 0  5 1.4 0  5 1.5 0  5 1.6 0  5 1.7 0  5 1.8 0  5 1.9 0  5 2 0  5 2.1 0  5 2.2 0  5 2.3 0  5 2.4 0  5 2.5 0  5 2.6 0  5 2.7 0  5 2.8 0  5 2.9 0  5 3 0  5 3.1 0  5 3.199999999999999 0  5 3.300000000000001 0  5 3.4 0  5 3.5 0  5 3.6 0  5 3.699999999999999 0  5 3.800000000000001 0  5 3.9 0  5 4 0  5 4.1 0  5 4.199999999999999 0  5 4.300000000000001 0  5 4.4 0  5 4.5 0  5 4.6 0  5 4.699999999999999 0  5 4.800000000000001 0  5 4.9 0  4.9 5 0  4.8 5 0  4.7 5 0  4.6 5 0  4.5 5 0  4.4 5 0  4.3 5 0  4.2 5 0  4.1 5 0  4 5 0  3.9 5 0  3.8 5 0  3.7 5 0  3.6 5 0  3.5 5 0  3.4 5 0  3.3 5 0  3.2 5 0  3.1 5 0  3 5 0  2.9 5 0  2.8 5 0  2.7 5 0  2.6 5 0  2.5 5 0  2.4 5 0  2.3 5 0  2.2 5 0  2.1 5 0  2 5 0  1.9 5 0  1.8 5 0  1.7 5 0  1.6 5 0  1.5 5 0  1.4 5 0  1.3 5 0  1.2 5 0  1.1 5 0  1 5 0  0.9000000000000004 5 0  0.7999999999999998 5 0  0.7000000000000002 5 0  0.5999999999999996 5 0  0.5 5 0  0.4000000000000004 5 0  0.2999999999999998 5 0  0.2000000000000002 5 0  0.09999999999999964 5 0  0 5 0  -0.09999999999999964 5 0  -0.2000000000000002 5 0  -0.2999999999999998 5 0  -0.4000000000000004 5 0  -0.5 5 0  -0.5999999999999996 5 0  -0.7000000000000002 5 0  -0.7999999999999998 5 0  -0.9000000000000004 5 0  -1 5 0  -1.1 5 0  -1.2 5 0  -1.3 5 0  -1.4 5 0  -1.5 5 0  -1.6 5 0  -1.7 5 0  -1.8 5 0  -1.9 5 0  -2 5 0  -2.1 5 0  -2.2 5 0  -2.3 5 0  -2.4 5 0  -2.5 5 0  -2.6 5 0  -2.7 5 0  -2.8 5 0  -2.9 5 0  -3 5 0  -3.1 5 0  -3.199999999999999 5 0  -3.300000000000001 5 0  -3.4 5 0  -3.5 5 0  -3.6 5 0  -3.699999999999999 5 0  -3.800000000000001 5 0  -3.9 5 0  -4 5 0  -4.1 5 0  -4.199999999999999 5 0  -4.300000000000001 5 0  -4.4 5 0  -4.5 5 0  -4.6 5 0  -4.699999999999999 5 0  -4.800000000000001 5 0  -4.9 5 0  -5 4.9 0  -5 4.8 0  -5 4.7 0  -5 4.6 0  -5 4.5 0  -5 4.4 0  -5 4.3 0  -5 4.2 0  -5 4.1 0  -5 4 0  -5 3.9 0  -5 3.8 0  -5 3.7 0  -5 3.6 0  -5 3.5 0  -5 3.4 0  -5 3.3 0  -5 3.2 0  -5 3.1 0  -5 3 0  -5 2.9 0  -5 2.8 0  -5 2.7 0  -5 2.6 0  -5 2.5 0  -5 2.4 0  -5 2.3 0  -5 2.2 0  -5 2.1 0  -5 2 0  -5 1.9 0  -5 1.8 0  -5 1.7 0  -5 1.6 0  -5 1.5 0  -5 1.4 0  -5 1.3 0  -5 1.2 0  -5 1.1 0  -5 1 0  -5 0.9000000000000004 0  -5 0.7999999999999998 0  -5 0.7000000000000002 0  -5 0.5999999999999996 0  -5 0.5 0  -5 0.4000000000000004 0  -5 0.2999999999999998 0  -5 0.2000000000000002 0  -5 0.09999999999999964 0  -5 0 0  -5 -0.09999999999999964 0  -5 -0.2000000000000002 0  -5 -0.2999999999999998 0  -5 -0.4000000000000004 0  -5 -0.5 0  -5 -0.5999999999999996 0  -5 -0.7000000000000002 0  -5 -0.7999999999999998 0  -5 -0.9000000000000004 0  -5 -1 0  -5 -1.1 0  -5 -1.2 0  -5 -1.3 0  -5 -1.4 0  -5 -1.5 0  -5 -1.6 0  -5 -1.7 0  -5 -1.8 0  -5 -1.9 0  -5 -2 0  -5 -2.1 0  -5 -2.2 0  -5 -2.3 0  -5 -2.4 0  -5 -2.5 0  -5 -2.6 0  -5 -2.7 0  -5 -2.8 0  -5 -2.9 0  -5 -3 0  -5 -3.1 0  -5 -3.199999999999999 0  -5 -3.300000000000001 0  -5 -3.4 0  -5 -3.5 0  -5 -3.6 0  -5 -3.699999999999999 0  -5 -3.800000000000001 0  -5 -3.9 0  -5 -4 0  -5 -4.1 0  -5 -4.199999999999999 0  -5 -4.300000000000001 0  -5 -4.4 0  -5 -4.5 0  -5 -4.6 0  -5 -4.699999999999999 0  -5 -4.800000000000001 0  -5 -4.9 0  2.330121094554334 0.2477393382783467 0  1.95471870748291 0.3723155438750745 0  2.281987900156818 0.679299128139901 0  1.776933172771146 0.6841755734219817 0  1.796542754135093 0.9321967385720956 0  1.54045973682791 1.017534604072625 0  1.395024201777231 1.252077842785185 0  1.186594266778558 1.088990615755901 0  1.144771997578371 1.312726027959392 0  0.9579697699917955 1.452726400530406 0  0.7866047748426527 1.468376567802326 0  0.6527993241331915 1.509528193204313 0  0.467048319072679 1.592576984087911 0  0.2991387514071162 1.62333762477964 0  0.1347158412052653 1.654984924610027 0  -0.02532400484330949 1.648894420952807 0  -0.2333100607095174 1.618112648164802 0  -0.3960428311898718 1.613862824254572 0  -0.5518856871357263 1.567497582625099 0  -0.711014869743519 1.493191519613216 0  -0.8831417541257073 1.456080581749542 0  -1.048371286439809 1.342757417766919 0  -1.195482832477453 1.238688685353249 0  -1.413864803947859 1.283146861762507 0  -1.287447892242411 0.9213520034687868 0  -1.591552590365948 1.035328066240035 0  -1.898774457103902 0.9072291798691359 0  -1.842495140296155 0.6737841081147939 0  -2.106511455088204 0.566855041297513 0  -2.180544048580841 0.3062122064458959 0  -2.250274016978195 0.06286717781908438 0  -1.905841578017648 -0.1346164857459698 0  -2.426186216583516 -0.4097508607437493 0  -1.976725808397227 -0.4459007095069634 0  -1.874088833004402 -0.6615277009467161 0  -1.909545393541204 -0.9445619221606618 0  -1.519950431554768 -0.8543905969388971 0  -1.549067523115798 -1.05524537645198 0  -1.375557740671781 -1.224161615761065 0  -1.17338694265428 -1.238195955339071 0  -1.038321473614595 -1.366901793076646 0  -0.8762072283844732 -1.484971968979504 0  -0.7056908840603282 -1.52112542232187 0  -0.5444206179409847 -1.563711798184399 0  -0.3845255978029095 -1.6269181414582 0  -0.2131476726850097 -1.633961278832953 0  -0.04915310399780826 -1.652655968730788 0  0.1426623781721131 -1.649298361898958 0  0.2936758593382083 -1.640158789571791 0  0.4749110244119399 -1.606937019671476 0  0.6372675486937369 -1.544042487053229 0  0.7793815082409857 -1.435682019159411 0  0.9536379937798567 -1.449390464580562 0  1.126045846684487 -1.335716904801938 0  1.301375085030535 -1.278480802626919 0  1.418161865025645 -1.115806222586592 0  1.532152833870688 -0.9793946327240922 0  1.782294908071368 -0.9379099202096607 0  1.886998346033393 -0.768386464167264 0  1.930629492364753 -0.5605841600604978 0  2.221961148729899 -0.444876180239582 0  2.189425132407631 -0.1873693741155806 0  -2.449839817786581 4.920160994198396 0  -2.44979737098173 -4.912709862137541 0  4.911328898714804 2.448380231329216 0  4.919354106496272 -2.449706209330052 0  2.447718476315194 -4.898289884316161 0  2.442126827234315 4.902043901025969 0  -4.911366432339731 -2.448395118971699 0  -4.911412704109342 2.44839983825814 0  -1.750086241947638 4.914231310203298 0  -1.745779938322313 -4.917507984440797 0  4.921068614138417 1.744065191245094 0  4.909617445037299 -1.747968902614157 0  -4.909980707457452 -1.747665972989571 0  -4.910840716831888 1.747407604462608 0  1.747481296309868 4.908300569285066 0  1.74904367952508 -4.896801297756049 0  -1.150218871522569 4.913002692228253 0  -1.130935410401725 -4.92044121529779 0  -4.909072256572213 -1.14770214279917 0  -4.90891500342059 1.147491736810206 0  1.145109193107662 -4.916822871369665 0  1.150228974802491 4.912958094360928 0  4.909192344677761 1.145964028358789 0  4.919998360935542 -1.151655866173014 0  -0.5474121242637168 -4.914673691931956 0  -0.5471287722355787 4.922997366002879 0  -4.907128888158295 -0.548468925778215 0  -4.907166374544077 0.547004220493214 0  4.906320709316332 -0.548796511557094 0  4.918131993606226 0.5454863245772582 0  0.5433350063784845 -4.902207836849266 0  0.551886718825604 4.919983218056714 0  -4.912798197614974 -3.048880436440668 0  4.919316892603359 3.046831068345548 0  4.912297069495229 -3.048852609836672 0  -4.913673078424446 3.045960503311744 0  3.056242786512819 -4.918812335747368 0  -3.049627688190415 -4.912773720458468 0  3.053186548976436 4.914888452796511 0  -3.049111173184464 4.913727307955155 0  -4.905958401051285 -0.04988842024921558 0  0.04519114700710603 -4.916727385261882 0  0.04963015368498048 4.923450118025003 0  4.913018355306276 -0.05129085895961831 0  3.546249384728222 -4.919956398960839 0  -3.549614247787768 4.91299653286235 0  -3.54957777540099 -4.913009021773828 0  4
[...]
<PointData  Vectors="f_5892"> 
<DataArray  type="Float64"  Name="f_5892"  NumberOfComponents="3" format="ascii">-1.5581257253874603e-01 -1.8181469554454749e-01 0.0000000000000000e+00  1.6946909892600590e-01 -1.4336444385183558e-01 0.0000000000000000e+00  9.9216172527567911e-02 1.1590065931523835e-01 0.0000000000000000e+00  -1.6384774718114420e-01 1.8708006852353806e-01 0.0000000000000000e+00  9.5293542756500731e+00 -3.5616856757416957e+00 0.0000000000000000e+00  5.9966911934656406e-02 -1.3770727718871909e+00 0.0000000000000000e+00  5.0511216217748366e-02 -2.2354733635013355e+00 0.0000000000000000e+00  5.3435193683368881e-02 -3.6898379466097753e+00 0.0000000000000000e+00  4.0908264536116734e-02 -4.5611058787377132e+00 0.0000000000000000e+00  -9.9901626762358614e-02 -5.9251964730855047e+00 0.0000000000000000e+00  2.0268936779786757e-02 -7.2777125632640205e+00 0.0000000000000000e+00  3.5476118210286199e-02 -8.2973496045637685e+00 0.0000000000000000e+00  -1.6603057263231195e-02 -9.5428268648524970e+00 0.0000000000000000e+00  6.2200561281295474e-02 -1.0514978680661567e+01 0.0000000000000000e+00  6.2757581230630105e-02 -1.1931891605901358e+01 0.0000000000000000e+00  -9.5657471951751446e-03 -1.2878153860470780e+01 0.0000000000000000e+00  -1.7041377925077511e-02 -1.4120963133837373e+01 0.0000000000000000e+00  7.6828839614272500e-03 -1.5330763928844565e+01 0.0000000000000000e+00  5.2497502358650585e-03 -1.6472830662774697e+01 0.0000000000000000e+00  -6.3810755682185165e-03 -1.7633398259402014e+01 0.0000000000000000e+00  4.1642622155811009e-03 -1.8840880581548923e+01 0.0000000000000000e+00  2.4714554419048150e-02 -2.0006144449111758e+01 0.0000000000000000e+00  -3.3352896153059099e-03 -2.0930448001247914e+01 0.0000000000000000e+00  -8.0811609543851495e-03 -2.2205463401266616e+01 0.0000000000000000e+00  -3.1829638608363783e-02 -2.3479740936721040e+01 0.0000000000000000e+00  8.3184553020923896e-02 -2.4376798642648509e+01 0.0000000000000000e+00  3.7088276877083791e-02 -2.5673032517826726e+01 0.0000000000000000e+00  4.4491334363110847e-02 -2.6514747591205204e+01 0.0000000000000000e+00  7.3508422896444728e-02 -2.7757442595183633e+01 0.0000000000000000e+00  -3.4448569777931141e-02 -2.8629054785923003e+01 0.0000000000000000e+00  -1.1564810104392644e-02 -2.9822897194530157e+01 0.0000000000000000e+00  -4.2960535463233938e-03 -3.0935808755694286e+01 0.0000000000000000e+00  5.3979473792251320e-02 -3.1721496384588676e+01 0.0000000000000000e+00  3.9221172354667641e-02 -3.2916022187009638e+01 0.0000000000000000e+00  3.9098011316704477e-02 -3.3623251916316292e+01 0.0000000000000000e+00  -8.7763690688598711e-02 -3.4701317124947025e+01 0.0000000000000000e+00  3.8112621417335291e-02 -3.5713377254208339e+01 0.0000000000000000e+00  5.9305711150032629e-03 -3.6445371210038822e+01 0.0000000000000000e+00  -1.2262831457850217e-03 -3.7266732472761575e+01 0.0000000000000000e+00  -1.4172575761641272e-03 -3.8054199940587537e+01 0.0000000000000000e+00  6.5581514535965647e-03 -3.8805539142205866e+01 0.0000000000000000e+00  -3.7821237499387796e-02 -3.9584239122954997e+01 0.0000000000000000e+00  4.6067338358906244e-02 -4.0172490083536324e+01 0.0000000000000000e+00  2.4842281290694351e-02 -4.0781431346696777e+01 0.0000000000000000e+00  1.8850594109563301e-02 -4.1403420598450353e+01 0.0000000000000000e+00  -1.0530679149555994e-02 -4.1940874520366215e+01 0.0000000000000000e+00  4.4505505341483315e-02 -4.2307317003006986e+01 0.0000000000000000e+00  -3.2810283740595587e-02 -4.2805645656968046e+01 0.0000000000000000e+00  1.8182823936823172e-02 -4.3215869071032273e+01 0.0000000000000000e+00  -3.9071354025455272e-03 -4.3468397522209486e+01 0.0000000000000000e+00  1.3323308932901077e-03 -4.3735159433360366e+01 0.0000000000000000e+00  -9.4063079852088551e-04 -4.3933465770038715e+01 0.0000000000000000e+00  4.2982255031309827e-04 -4.4074865464868573e+01 0.0000000000000000e+00  2.4667679202917589e-04 -4.4157536676502225e+01 0.0000000000000000e+00  1.8953718265658081e-03 -4.4182206303626714e+01 0.0000000000000000e+00  5.5472386750957212e-04 -4.4160234889376312e+01 0.0000000000000000e+00  8.7592285707609220e-03 -4.4058747828867382e+01 0.0000000000000000e+00  -1.1751974671637541e-02 -4.3874342335626288e+01 0.0000000000000000e+00  -5.9411541354327411e-03 -4.3715242185799731e+01 0.0000000000000000e+00  -2.2593902822900948e-02 -4.3391022320916633e+01 0.0000000000000000e+00  7.3697834000490186e-03 -4.3127605137948983e+01 0.0000000000000000e+00  6.2954515595232555e-03 -4.2731036078818583e+01 0.0000000000000000e+00  -4.6017383105452355e-03 -4.2281741771635168e+01 0.0000000000000000e+00  -9.5229035993396821e-04 -4.1812426311998962e+01 0.0000000000000000e+00  5.6716304535875039e-03 -4.1273123550887050e+01 0.0000000000000000e+00  -1.2733156180879250e-02 -4.0689553663960631e+01 0.0000000000000000e+00  -7.9614367745646335e-03 -4.0039061976845950e+01 0.0000000000000000e+00  8.7512756881967576e-03 -3.9452332386162723e+01 0.0000000000000000e+00  -2.0917327081678337e-02 -3.8673428908198709e+01 0.0000000000000000e+00  2.4219347698292395e-02 -3.7910316823686763e+01 0.0000000000000000e+00  -3.0793438890664444e-02 -3.7125025984440526e+01 0.0000000000000000e+00  5.6221625855478628e-03 -3.6251549837200429e+01 0.0000000000000000e+00  1.5186931124476628e-02 -3.5462618813959253e+01 0.0000000000000000e+00  -2.2171567151282153e-02 -3.4530560821760787e+01 0.0000000000000000e+00  1.5650927737964830e-02 -3.3583668328137350e+01 0.0000000000000000e+00  -1.1750322770881699e-02 -3.2626326899905450e+01 0.0000000000000000e+00  5.0830335117974055e-03 -3.1665978120722702e+01 0.0000000000000000e+00  -2.1225913539894427e-02 -3.0678540928919023e+01 0.0000000000000000e+00  -6.9386587231364174e-03 -2.9604530876237060e+01 0.0000000000000000e+00  9.6653802626134547e-03 -2.8710574578509338e+01 0.0000000000000000e+00  1.7941543925970539e-03 -2.7582652716222096e+01 0.0000000000000000e+00  8.6354125240004579e-03 -2.6487391366694052e+01 0.0000000000000000e+00  -3.0949521995655503e-02 -2.5418519965426107e+01 0.0000000000000000e+00  -1.1406792581358507e-02 -2.4214252657474585e+01 0.0000000000000000e+00  2.0041962129481762e-02 -2.3227143830156738e+01 0.0000000000000000e+00  -3.0432426838411228e-02 -2.2020434536616150e+01 0.0000000000000000e+00  1.5526193978496969e-03 -2.0947249892939197e+01 0.0000000000000000e+00  1.1761399783742719e-02 -1.9848973817720065e+01 0.0000000000000000e+00  1.2824522041008677e-02 -1.8635611453900054e+01 0.0000000000000000e+00  -3.6060797388576170e-02 -1.7529405925147412e+01 0.0000000000000000e+00  7.0026947699008135e-03 -1.6300276295273367e+01 0.0000000000000000e+00  8.1314103501505877e-03 -1.5260117267224311e+01 0.0000000000000000e+00  -2.8698553086889532e-02 -1.4008244372144432e+01 0.0000000000000000e+00  -5.8546300021266207e-04 -1.2899780697647207e+01 0.0000000000000000e+00  1.5785677923083087e-02 -1.1704199483439089e+01 0.0000000000000000e+00  -8.9235058267328417e-04 -1.0519874936921891e+01 0.0000000000000000e+00  -1.5540220215771838e-02 -9.3769316995064003e+00 0.0000000000000000e+00  -1.1970673499153810e-02 -8.1589841092560373e+00 0.0000000000000000e+00  2.3148496988590245e-02 -7.1187723896509638e+00 0.0000000000000000e+00  -3.5225583446843969e-02 -5.8573542636704099e+00 0.0000000000000000e+00  8.4504907384594027e-03 -4.7127221433873459e+00 0.0000000000000000e+00  1.9357801753166617e-02 -3.5088575766922911e+00 0.0000000000000000e+00  -3.0239998163666182e-02 -2.3300460631443847e+00 0.0000000000000000e+00  -3.7189329964180402e-02 -1.3487862252075866e+00 0.0000000000000000e+00  1.4037030232807715e+00 3.3710669640114835e-02 0.0000000000000000e+00  2.2523303308697513e+00 8.6039224324145180e-02 0.0000000000000000e+00  3.6249606769388474e+00 6.2940444602707243e-02 0.0000000000000000e+00  4.6329214877774616e+00 -1.9268950415053179e-02 0.0000000000000000e+00  5.8875226960666041e+00 9.0736447516592614e-03 0.0000000000000000e+00  7.0431323470085614e+00 -6.5253259586457784e-03 0.0000000000000000e+00  8.2150300927898829e+00 1.2727317441567562e-03 0.0000000000000000e+00  9.3921373118409246e+00 -1.9356870034150208e-03 0.0000000000000000e+00  1.0560912473641642e+01 5.5325985721768438e-04 0.0000000000000000e+00  1.1756142169573804e+01 -3.6855328385840394e-04 0.0000000000000000e+00  1.2913913221886153e+01 -3.9554007003704760e-05 0.0000000000000000e+00  1.4101897526640570e+01 3.9726032820479058e-03 0.0000000000000000e+00  1.5239813522594634e+01 1.6559835421513982e-03 0.0000000000000000e+00  1.6456666433382289e+01 -7.9489406567471756e-03 0.0000000000000000e+00  1.7599430241250708e+01 4.0216978761773376e-03 0.0000000000000000e+00  1.8808307113599927e+01 3.3553167701379613e-03 0.0000000000000000e+00  1.9941077793365665e+01 -3.4255183308751261e-03 0.0000000000000000e+00  2.1087270330019436e+01 7.9227732967060895e-03 0.0000000000000000e+00  2.2286553751168661e+01 -7.8362938537090907e-03 0.0000000000000000e+00  2.3404636465948684e+01 -5.2599019185479183e-03 0.0000000000000000e+00  2.4577271391351655e+01 1.0800645232533325e-02 0.0000000000000000e+00  2.5726069269515563e+01 -1.1719836909138068e-02 0.0000000000000000e+00  2.6792380597657704e+01 8.4273301660987010e-03 0.0000000000000000e+00  2.7932107987252955e+01 1.9239687289231064e-03 0.0000000000000000e+00  2.9058641302571182e+01 5.0446526984966062e-03 0.0000000000000000e+00  3.0164408728496856e+01 -3.0738615981718118e-03 0.0000000000000000e+00  3.1232312322693378e+01 -2.1799959883520383e-03 0.0000000000000000e+00  3.2272714888848284e+01 -1.6313999265586828e-03 0.0000000000000000e+00  3.3307017179209915e+01 9.0086330252007969e-05 0.0000000000000000e+00  3.4318936297840985e+01 -4.1439824712184313e-04 0.0000000000000000e+00  3.5306275053926818e+01 2.2385443440669662e-04 0.0000000000000000e+00  3.6265048815566722e+01 -2.4435154056709914e-03 0.0000000000000000e+00  3.7183952641841145e+01 -9.9915666536223055e-04 0.0000000000000000e+00  3.8095394561772359e+01 4.6887503624780131e-03 0.0000000000000000e+00  3.8970789181468511e+01 -7.4606911888734379e-03 0.0000000000000000e+00  3.9753571439665485e+01 7.6111189449777541e-03 0.0000000000000000e+00  4.0547579415459495e+01 -8.1096072785419825e-04 0.0000000000000000e+00  4.1281576505781942e+01 8.7405069341575728e-03 0.0000000000000000e+00  4.1961506066935016e+01 1.1168321858575175e-02 0.0000000000000000e+00  4.2641630792410062e+01 -3.3534164366395142e-02 0.0000000000000000e+00  4.3280997447590011e+01 2.4589752278491878e-02 0.0000000000000000e+00  4.3766118462513127e+01 -1.0614368821870423e-02 0.0000000000000000e+00  4.4268280660074673e+01 1.4364554266329526e-03 0.0000000000000000e+00  4.4696483055869805e+01 -3.3925751558689728e-03 0.0000000000000000e+00  4.5044083250409713e+01 7.3446578952430942e-03 0.0000000000000000e+00  4.5348065096767321e+01 -1.2645136345986420e-03 0.0000000000000000e+00  4.5597437490285266e+01 5.9224303204151463e-04 0.0000000000000000e+00  4.5777764115720096e+01 -8.3065998854906474e-04 0.0000000000000000e+00  4.5891407290714312e+01 -2.9621893730786387e-04 0.0000000000000000e+00  4.5935834088269054e+01 6.2888048808922036e-04 0.0000000000000000e+00  4.5917016973774309e+01 7.5800185955903409e-04 0.0000000000000000e+00  4.5834870142505501e+01 -1.7289036111811549e-03 0.0000000000000000e+00  4.5680974359134900e+01 1.8624819875263125e-03 0.0000000000000000e+00  4.5462584529546483e+01 1.9512199878988671e-04 0.0000000000000000e+00  4.5190632411769876e+01 -3.4050859766970327e-03 0.0000000000000000e+00  4.4842906805405619e+01 3.9798032361524028e-03 0.0000000000000000e+00  4.4431826639060901e+01 -1.5696303070414618e-04 0.0000000000000000e+00  4.3973367532207696e+01 -4.6895208254472713e-03 0.0000000000000000e+00  4.3436783331366222e+01 9.8529018403578595e-04 0.0000000000000000e+00  4.2870410687083670e+01 2.4669933724264072e-03 0.0000000000000000e+00  4.2240227580176246e+01 -3.2187183229946828e-03 0.0000000000000000e+00  4.1584206887921717e+01 1.0302384208754029e-04 0.0000000000000000e+00  4.0840338122817855e+01 2.2628901324481918e-03 0.0000000000000000e+00  4.0072467115872698e+01 -2.0820403554721576e-03 0.0000000000000000e+00  3.9277325999763384e+01 7.5219732762071695e-03 0.0000000000000000e+00  3.8393737331138816e+01 -5.5689656401021201e-03 0.0000000000000000e+00  3.7524722736011519e+01 -7.3547735125011572e-03 0.0000000000000000e+00  3.6586957254751134e+01 9.5318899207731383e-03 0.0000000000000000e+00  3.5606147665206663e+01 -2.5901038869520603e-03 0.0000000000000000e+00  3.4628349684155360e+01 -4.9504569428198142e-03 0.0000000000000000e+00  3.3608030209614384e+01 4.1463463586492166e-03 0.0000000000000000e+00  3.2572882732122189e+01 3.7430806511221915e-03 0.0000000000000000e+00  3.1506925991748940e+01 -8.5766085127176271e-04 0.0000000000000000e+00  3.0434900158691274e+01 1.6612351868911412e-07 0.0000000000000000e+00  2.9341619516475891e+01 2.2813861409811276e-03 0.0000000000000000e+00  2.8226666961338001e+01 -1.3839574153363999e-03 0.0000000000000000e+00  2.7127289922039768e+01 -2.2482543693643328e-03 0.0000000000000000e+00  2.6009832913281919e+01 6.9258913040975197e-03 0.0000000000000000e+00  2.4823849644417010e+01 -9.3967963297498704e-03 0.0000000000000000e+00  2.3667403320783489e+01 -9.7226998072971760e-04 0.0000000000000000e+00  2.2507231159879098e+01 -1.0203054476254718e-03 0.0000000000000000e+00  2.1377950522982886e+01 -3.4897247665426366e-04 0.0000000000000000e+00  2.0205391849275003e+01 9.6423213596263779e-03 0.0000000000000000e+00  1.8984817849755704e+01 -8.4052181712887444e-03 0.0000000000000000e+00  1.7803507266481365e+01 -1.0630075315594090e-03 0.0000000000000000e+00  1.6618169991522041e+01 6.2051722888616188e-04 0.0000000000000000e+00  1.5407295827234289e+01 4.0764793126822525e-03 0.0000000000000000e+00  1.4253851016332703e+01 1.7779373962125663e-03 0.0000000000000000e+00  1.3047461568025939e+01 -2.5927027186997678e-03 0.0000000000000000e+00  1.1871618238559208e+01 1.1495360991006683e-03 0.0000000000000000e+00  1.0684110326945040e+01 4.0412899200089449e-03 0.0000000000000000e+00  9.5201222114862922e+00 -1.4783119432930875e-03 0.0000000000000000e+00  8.3079539101670861e+00 -3.6360170622082200e-03 0.0000000000000000e+00  7.1202864546532991e+00 6.8512589899304309e-03 0.0000000000000000e+00  5.9539620661250359e+00 -1.1821949474395516e-02 0.0000000000000000e+00  4.7956360957026476e+00 -4.9999826945608438e-03 0.0000000000000000e+00  3.5975058550256689e+00 1.6366031540781915e-02 0.0000000000000000e+00  2.3612556803958547e+00 3.2090607843952927e-04 0.0000000000000000e+00  1.2832844619047297e+00 -4.2867441787366047e-02 0.0000000000000000e+00  -6.8972605259167319e-02 1.3251005077135110e+00 0.0000000000000000e+00  1.7286030123391256e-02 2.3011306699248699e+00 0.0000000000000000e+00  -2.9228688310770606e-02 3.5441610864136956e+00 0.0000000000000000e+00  -2.2924351881333304e-02 4.5585495419898683e+00 0.0000000000000000e+00  9.9457010678569518e-02 5.9256825447509112e+00 0.0000000000000000e+00  -2.4539436448889694e-02 7.3092916511516659e+00 0.0000000000000000e+00  -7.1302097989976360e-02 8.1737178698057082e+00 0.0000000000000000e+00  -1.0129586747793787e-01 9.5657524466652308e+00 0.0000000000000000e+00  2.8798774849480731e-02 1.0534078045429149e+01 0.0000000000000000e+00  3.1626718399620335e-02 1.1841889998513164e+01 0.0000000000000000e+00  -2.9314009162876086e-02 1.3028205591688611e+01 0.0000000000000000e+00  2.1095461492789701e-02 1.4164653591821283e+01 0.0000000000000000e+00  5.2238076046542863e-03 1.5447384299280955e+01 0.0000000000000000e+00  -4.2328561091616217e-03 1.6456748137191060e+01 0.0000000000000000e+00  -1.3521148798021425e-02 1.7699939261232085e+01 0.0000000000000000e+00  -5.8234145676259556e-03 1.8818703133043787e+01 0.0000000000000000e+00  1.6069227589140832e-02 2.0016797987294151e+01 0.0000000000000000e+00  -5.2320283504278817e-03 2.1203287767277946e+01 0.0000000000000000e+00  -1.2096659584365031e-02 2.2305746279910274e+01 0.0000000000000000e+00  -2.9508015563519058e-03 2.3503332421552308e+01 0.0000000000000000e+00  -1.1814116608322451e-02 2.4443556011438226e+01 0.0000000000000000e+00  2.5832765970445395e-02 2.5686387892388733e+01 0.0000000000000000e+00  -2.1593378009623142e-02 2.6750590369984351e+01 0.0000000000000000e+00  2.5471534168983609e-02 2.7838759048245354e+01 0.0000000000000000e+00  8.5875538177223980e-03 2.8984308388256562e+01 0.0000000000000000e+00  -5.9331990899759858e-02 2.9826780642641278e+01 0.0000000000000000e+00  -4.9206414670890153e-02 3.1062464140439616e+01 0.0000000000000000e+00  1.0060515802715808e-02 3.1888482482292726e+01 0.0000000000000000e+00  -3.1736646816129137e-02 3.2926410918359380e+01 0.0000000000000000e+00  -1.5824516157403920e-02 3.3751012886602162e+01 0.0000000000000000e+00  7.7808325191168468e-02 3.4811009405496158e+01 0.0000000000000000e+00  -2.7276993418529398e-02 3.5848586729990146e+01 0.0000000000000000e+00  -4.1199446753931480e-02 3.6499516858548809e+01 0.0000000000000000e+00  -4.5122038465370003e-02 3.7494616454251272e+01 0.0000000000000000e+00  5.9277255380355571e-03 3.8113280618321745e+01 0.0000000000000000e+00  1.3978560865297909e-02 3.8964108097405266e+01 0.0000000000000000e+00  -5.8007320916949974e-03 3.9698485483725086e+01 0.0000000000000000e+00  -1.6973375734169228e-03 4.0346770496849707e+01 0.0000000000000000e+00  1.2302563803828260e-03 4.0967453517211922e+01 0.0000000000000000e+00  1.4591828430264200e-03 4.1568178536013676e+01 0.0000000000000000e+00  -1.0715892864355241e-02 4.2103439552287924e+01 0.0000000000000000e+00  6.2775366699552846e-04 4.2488811464669965e+01 0.0000000000000000e+00  -4.9464796051050303e-04 4.2966220689330200e+01 0.0000000000000000e+00  4.6169546590722685e-03 4.3347816153817980e+01 0.0000000000000000e+00  -8.4559280600022962e-03 4.3653449164525618e+01 0.0000000000000000e+00  8.2857647294524994e-03 4.3925587244526724e+01 0.0000000000000000e+00  -2.9984763231195926e-03 4.4108792802978414e+01 0.0000000000000000e+00  -7.3275735725955599e-03 4.4265161150495679e+01 0.0000000000000000e+00  1.6986260341491440e-03 4.4346501899339145e+01 0.0000000000000000e+00  1.8406041214687671e-03 4.4378625109462831e+01 0.0000000000000000e+00  7.6288942189755536e-03 4.4336742226638108e+01 0.0000000000000000e+00  -8.5866233174848056e-03 4.4252678549493936e+01 0.0000000000000000e+00  3.9534700753350261e-03 4.4104849592127110e+01 0.0000000000000000e+00  -7.0182812811982621e-03 4.3890571478442240e+01 0.0000000000000000e+00  9.9377142053958863e-03 4.3626330341841815e+01 0.0000000000000000e+00  -8.7769430380516232e-03 4.3278744028258487e+01 0.0000000000000000e+00  1.9249434404618584e-02 4.2963589209477334e+01 0.0000000000000000e+00  2.2265454634599620e-02 4.2443493834546771e+01 0.0000000000000000e+00  1.2719364301508926e-02 4.2069268834156048e+01 0.0000000000000000e+00  4.5609638819565750e-02 4.1454355496321575e+01 0.0000000000000000e+00  -2.2101755360420011e-02 4.0986268072170837e+01 0.0000000000000000e+00  -7.8906277353418437e-03 4.0285920587132260e+01 0.0000000000000000e+00  8.8858715350467014e-03 3.9580302480452723e+01 0.0000000000000000e+00  -2.0041892485827884e-03 3.8890439762884533e+01 0.0000000000000000e+00  -6.7748502284539389e-04 3.8140277712310208e+01 0.0000000000000000e+00  -2.9203793220904609e-03 3.7329048268576187e+01 0.0000000000000000e+00  3.4229610770464694e-03 3.6509840102555884e+01 0.0000000000000000e+00  -1.6711090820110807e-02 3.5636327432511251e+01 0.0000000000000000e+00  3.0734528245711205e-02 3.4739637719297903e+01 0.0000000000000000e+00  -2.1706728903342125e-02 3.3739079988881976e+01 0.0000000000000000e+00  2.4100720133362306e-02 3.2915196059752297e+01 0.0000000000000000e+00  6.3720084284770240e-03 3.1939315959723782e+01 0.0000000000000000e+00  -2.6312200296092842e-02 3.0887882441008568e+01 0.0000000000000000e+00  1.7361874092749200e-02 2.9848429072904668e+01 0.0000000000000000e+00  -2.1828844822856505e-02 2.8818566812280618e+01 0.0000000000000000e+00  1.0653516985907309e-02 2.7698775044834054e+01 0.0000000000000000e+00  -4.6037812582248221e-03 2.6610516388181871e+01 0.0000000000000000e+00  4.5112792124960582e-02 2.5703203963428365e+01 0.0