<?xml version="1.0"?>
<VTKFile type="UnstructuredGrid"  version="0.1"  >
<UnstructuredGrid>
<Piece  NumberOfPoints="11902" NumberOfCells="23402">
<Points>
<DataArray  type="Float64"  NumberOfComponents="3"  format="ascii">-5 -5 0  5 -5 0  5 5 0  -5 5 0  1.924968963197645 0.01248306140279396 0  -4.9 -5 0  -4.8 -5 0  -4.7 -5 0  -4.6 -5 0  -4.5 -5 0  -4.4 -5 0  -4.3 -5 0  -4.2 -5 0  -4.1 -5 0  -4 -5 0  -3.9 -5 0  -3.8 -5 0  -3.7 -5 0  -3.6 -5 0  -3.5 -5 0  -3.4 -5 0  -3.3 -5 0  -3.2 -5 0  -3.1 -5 0  -3 -5 0  -2.9 -5 0  -2.8 -5 0  -2.7 -5 0  -2.6 -5 0  -2.5 -5 0  -2.4 -5 0  -2.3 -5 0  -2.2 -5 0  -2.1 -5 0  -2 -5 0  -1.9 -5 0  -1.8 -5 0  -1.7 -5 0  -1.6 -5 0  -1.5 -5 0  -1.4 -5 0  -1.3 -5 0  -1.2 -5 0  -1.1 -5 0  -1 -5 0  -0.9000000000000004 -5 0  -0.7999999999999998 -5 0  -0.7000000000000002 -5 0  -0.5999999999999996 -5 0  -0.5 -5 0  -0.4000000000000004 -5 0  -0.2999999999999998 -5 0  -0.2000000000000002 -5 0  -0.09999999999999964 -5 0  0 -5 0  0.09999999999999964 -5 0  0.2000000000000002 -5 0  0.2999999999999998 -5 0  0.4000000000000004 -5 0  0.5 -5 0  0.5999999999999996 -5 0  0.7000000000000002 -5 0  0.7999999999999998 -5 0  0.9000000000000004 -5 0  1 -5 0  1.1 -5 0  1.2 -5 0  1.3 -5 0  1.4 -5 0  1.5 -5 0  1.6 -5 0  1.7 -5 0  1.8 -5 0  1.9 -5 0  2 -5 0  2.1 -5 0  2.2 -5 0  2.3 -5 0  2.4 -5 0  2.5 -5 0  2.6 -5 0  2.7 -5 0  2.8 -5 0  2.9 -5 0  3 -5 0  3.1 -5 0  3.199999999999999 -5 0  3.300000000000001 -5 0  3.4 -5 0  3.5 -5 0  3.6 -5 0  3.699999999999999 -5 0  3.800000000000001 -5 0  3.9 -5 0  4 -5 0  4.1 -5 0  4.199999999999999 -5 0  4.300000000000001 -5 0  4.4 -5 0  4.5 -5 0  4.6 -5 0  4.699999999999999 -5 0  4.800000000000001 -5 0  4.9 -5 0  5 -4.9 0  5 -4.8 0  5 -4.7 0  5 -4.6 0  5 -4.5 0  5 -4.4 0  5 -4.3 0  5 -4.2 0  5 -4.1 0  5 -4 0  5 -3.9 0  5 -3.8 0  5 -3.7 0  5 -3.6 0  5 -3.5 0  5 -3.4 0  5 -3.3 0  5 -3.2 0  5 -3.1 0  5 -3 0  5 -2.9 0  5 -2.8 0  5 -2.7 0  5 -2.6 0  5 -2.5 0  5 -2.4 0  5 -2.3 0  5 -2.2 0  5 -2.1 0  5 -2 0  5 -1.9 0  5 -1.8 0  5 -1.7 0  5 -1.6 0  5 -1.5 0  5 -1.4 0  5 -1.3 0  5 -1.2 0  5 -1.1 0  5 -1 0  5 -0.9000000000000004 0  5 -0.7999999999999998 0  5 -0.7000000000000002 0  5 -0.5999999999999996 0  5 -0.5 0  5 -0.4000000000000004 0  5 -0.2999999999999998 0  5 -0.2000000000000002 0  5 -0.09999999999999964 0  5 0 0  5 0.09999999999999964 0  5 0.2000000000000002 0  5 0.2999999999999998 0  5 0.4000000000000004 0  5 0.5 0  5 0.5999999999999996 0  5 0.7000000000000002 0  5 0.7999999999999998 0  5 0.9000000000000004 0  5 1 0  5 1.1 0  5 1.2 0  5 1.3 0  5 1.4 0  5 1.5 0  5 1.6 0  5 1.7 0  5 1.8 0  5 1.9 0  5 2 0  5 2.1 0  5 2.2 0  5 2.3 0  5 2.4 0  5 2.5 0  5 2.6 0  5 2.7 0  5 2.8 0  5 2.9 0  5 3 0  5 3.1 0  5 3.199999999999999 0  5 3.300000000000001 0  5 3.4 0  5 3.5 0  5 3.6 0  5 3.699999999999999 0  5 3.800000000000001 0  5 3.9 0  5 4 0  5 4.1 0  5 4.199999999999999 0  5 4.300000000000001 0  5 4.4 0  5 4.5 0  5 4.6 0  5 4.699999999999999 0  5 4.800000000000001 0  5 4.9 0  4.9 5 0  4.8 5 0  4.7 5 0  4.6 5 0  4.5 5 0  4.4 5 0  4.3 5 0  4.2 5 0  4.1 5 0  4 5 0  3.9 5 0  3.8 5 0  3.7 5 0  3.6 5 0  3.5 5 0  3.4 5 0  3.3 5 0  3.2 5 0  3.1 5 0  3 5 0  2.9 5 0  2.8 5 0  2.7 5 0  2.6 5 0  2.5 5 0  2.4 5 0  2.3 5 0  2.2 5 0  2.1 5 0  2 5 0  1.9 5 0  1.8 5 0  1.7 5 0  1.6 5 0  1.5 5 0  1.4 5 0  1.3 5 0  1.2 5 0  1.1 5 0  1 5 0  0.9000000000000004 5 0  0.7999999999999998 5 0  0.7000000000000002 5 0  0.5999999999999996 5 0  0.5 5 0  0.4000000000000004 5 0  0.2999999999999998 5 0  0.2000000000000002 5 0  0.09999999999999964 5 0  0 5 0  -0.09999999999999964 5 0  -0.2000000000000002 5 0  -0.2999999999999998 5 0  -0.4000000000000004 5 0  -0.5 5 0  -0.5999999999999996 5 0  -0.7000000000000002 5 0  -0.7999999999999998 5 0  -0.9000000000000004 5 0  -1 5 0  -1.1 5 0  -1.2 5 0  -1.3 5 0  -1.4 5 0  -1.5 5 0  -1.6 5 0  -1.7 5 0  -1.8 5 0  -1.9 5 0  -2 5 0  -2.1 5 0  -2.2 5 0  -2.3 5 0  -2.4 5 0  -2.5 5 0  -2.6 5 0  -2.7 5 0  -2.8 5 0  -2.9 5 0  -3 5 0  -3.1 5 0  -3.199999999999999 5 0  -3.300000000000001 5 0  -3.4 5 0  -3.5 5 0  -3.6 5 0  -3.699999999999999 5 0  -3.800000000000001 5 0  -3.9 5 0  -4 5 0  -4.1 5 0  -4.199999999999999 5 0  -4.300000000000001 5 0  -4.4 5 0  -4.5 5 0  -4.6 5 0  -4.699999999999999 5 0  -4.800000000000001 5 0  -4.9 5 0  -5 4.9 0  -5 4.8 0  -5 4.7 0  -5 4.6 0  -5 4.5 0  -5 4.4 0  -5 4.3 0  -5 4.2 0  -5 4.1 0  -5 4 0  -5 3.9 0  -5 3.8 0  -5 3.7 0  -5 3.6 0  -5 3.5 0  -5 3.4 0  -5 3.3 0  -5 3.2 0  -5 3.1 0  -5 3 0  -5 2.9 0  -5 2.8 0  -5 2.7 0  -5 2.6 0  -5 2.5 0  -5 2.4 0  -5 2.3 0  -5 2.2 0  -5 2.1 0  -5 2 0  -5 1.9 0  -5 1.8 0  -5 1.7 0  -5 1.6 0  -5 1.5 0  -5 1.4 0  -5 1.3 0  -5 1.2 0  -5 1.1 0  -5 1 0  -5 0.9000000000000004 0  -5 0.7999999999999998 0  -5 0.7000000000000002 0  -5 0.5999999999999996 0  -5 0.5 0  -5 0.4000000000000004 0  -5 0.2999999999999998 0  -5 0.2000000000000002 0  -5 0.09999999999999964 0  -5 0 0  -5 -0.09999999999999964 0  -5 -0.2000000000000002 0  -5 -0.2999999999999998 0  -5 -0.4000000000000004 0  -5 -0.5 0  -5 -0.5999999999999996 0  -5 -0.7000000000000002 0  -5 -0.7999999999999998 0  -5 -0.9000000000000004 0  -5 -1 0  -5 -1.1 0  -5 -1.2 0  -5 -1.3 0  -5 -1.4 0  -5 -1.5 0  -5 -1.6 0  -5 -1.7 0  -5 -1.8 0  -5 -1.9 0  -5 -2 0  -5 -2.1 0  -5 -2.2 0  -5 -2.3 0  -5 -2.4 0  -5 -2.5 0  -5 -2.6 0  -5 -2.7 0  -5 -2.8 0  -5 -2.9 0  -5 -3 0  -5 -3.1 0  -5 -3.199999999999999 0  -5 -3.300000000000001 0  -5 -3.4 0  -5 -3.5 0  -5 -3.6 0  -5 -3.699999999999999 0  -5 -3.800000000000001 0  -5 -3.9 0  -5 -4 0  -5 -4.1 0  -5 -4.199999999999999 0  -5 -4.300000000000001 0  -5 -4.4 0  -5 -4.5 0  -5 -4.6 0  -5 -4.699999999999999 0  -5 -4.800000000000001 0  -5 -4.9 0  2.39591113377673 0.2641780616455002 0  1.957840312803389 0.3653642773195923 0  2.343911970451229 0.7179737004690944 0  1.77904968879138 0.6761507407805449 0  1.844913136714458 0.935990853594079 0  1.543553413264058 1.021034586997162 0  1.323805049154718 1.285245192354616 0  1.175086382330499 1.010619258099799 0  1.156953426994539 1.268918600114805 0  0.9627285111463781 1.438367437731596 0  0.7915801130009614 1.455786114873014 0  0.6596846518645431 1.49092068635489 0  0.470484134114984 1.576025077806337 0  0.3001011184794985 1.609530891369757 0  0.1347010991593484 1.637337274599662 0  -0.02649842293271719 1.632882451230411 0  -0.2343833752275713 1.604484653954915 0  -0.3964569228477829 1.596294801322482 0  -0.5530786439246876 1.551514041921543 0  -0.7152023782000652 1.478386021302821 0  -0.8866324734607094 1.438274094297364 0  -1.062823136239279 1.322381153294272 0  -1.211522799896258 1.203509227431897 0  -1.383516294437936 1.265220859801372 0  -1.247294875631695 0.8543895271527373 0  -1.552531825684648 1.074502482871489 0  -1.955035183917296 0.926367830573173 0  -1.836254065358922 0.6724455954298797 0  -2.161878184115842 0.601508803875041 0  -2.228831701718065 0.311776553026862 0  -2.321113385137753 0.04889286147009875 0  -1.87102695511185 -0.1223831464668142 0  -2.494928950931503 -0.4729695892794836 0  -1.99533853818682 -0.4365945457385157 0  -1.893335672387217 -0.6586237040626299 0  -1.911839156105216 -1.001212575997936 0  -1.520122190658612 -0.8278600879355211 0  -1.558291002330839 -0.9934985235873128 0  -1.380501291254187 -1.211573070564856 0  -1.170599118863407 -1.209403148126261 0  -1.038398868317721 -1.340999747156223 0  -0.8771428700130608 -1.471508044975616 0  -0.7043357501627493 -1.504933780000628 0  -0.5450033568343318 -1.544988963784376 0  -0.3840305771858999 -1.606257684765263 0  -0.2122915729798839 -1.617825580447631 0  -0.04836842386740038 -1.635007640027939 0  0.1439574194344431 -1.632752844469901 0  0.2934432794785328 -1.624029607574718 0  0.4751487363090279 -1.591649842068702 0  0.6408288359497575 -1.52409838413322 0  0.7702034763577099 -1.394974481968116 0  0.9466366379290301 -1.431875504568594 0  1.125698077385419 -1.322266666472581 0  1.311495344146527 -1.264086933677163 0  1.415414946551876 -1.073382516907445 0  1.51011880723516 -0.9290206177094996 0  1.809677980528671 -0.9536768605336784 0  1.910683263183355 -0.7569155035081323 0  1.914597911504591 -0.5370577992808234 0  2.286450571343863 -0.461203059273647 0  2.236424229483563 -0.1705270700992826 0  -2.449898362282272 4.920190318699667 0  -2.449855517790753 -4.912735921442259 0  4.911121556189404 2.448212639166831 0  4.919151115002336 -2.449537045110413 0  2.447783875647143 -4.898307016976236 0  2.442206448777969 4.902067096909724 0  -4.911166402798112 -2.448234088218388 0  -4.911211427633164 2.448235508996508 0  -1.75018764556305 4.914350648488934 0  -1.745877037683728 -4.917620205287436 0  4.920732369368055 1.74386169752518 0  4.909210477549203 -1.747749754498865 0  -4.909609576797064 -1.747454227891909 0  -4.910467921917451 1.747195985973182 0  1.747609816143233 4.908427329159515 0  1.749171578880803 -4.896923015567367 0  -1.150319942447829 4.913219211372433 0  -1.131029944752557 -4.920609805774794 0  -4.908532956264313 -1.147500718923358 0  -4.908367226906156 1.14729108795644 0  1.145203741826941 -4.91700615452952 0  1.150332815158999 4.913163688212884 0  4.908640243184109 1.145754513132565 0  4.919494256036404 -1.151460815379632 0  -0.5474641110972533 -4.914934868218311 0  -0.5471787892926006 4.923243193646035 0  -4.906442774028964 -0.5483459640826007 0  -4.906475106228585 0.5468854948397996 0  4.905594117443177 -0.5486798439503029 0  4.917508562451321 0.5453636687462819 0  0.543420135792969 -4.902493286483693 0  0.5519398409971242 4.92023908396562 0  -4.912698051451134 -3.048776015670245 0  4.919222217189726 3.046726589855452 0  4.912182038371895 -3.048732760476874 0  -4.913573350407841 3.045853332889583 0  3.056250567705653 -4.918789672987054 0  -3.049647766589766 -4.912765122531209 0  3.053204879695161 4.914877201787077 0  -3.049128085915118 4.913714853832068 0  -4.905214182473181 -0.04987332572401788 0  0.04520544688981977 -4.917002738516977 0  0.04963559986425625 4.923711439015973 0  4.91230852684773 -0.05128894944181013 0  3.546235637053087 -4.919928946855642 0  -3.549608115467364 4.912976422053585 0  -3.549571302232149 -4.91299046549057
[...]
<PointData  Scalars="f_23"> 
<DataArray  type="Float64"  Name="f_23"  format="ascii">0.0000000000000000e+00  0.0000000000000000e+00  0.0000000000000000e+00  0.0000000000000000e+00  2.2720406056147365e+02  0.0000000000000000e+00  0.0000000000000000e+00  0.0000000000000000e+00  0.0000000000000000e+00  0.0000000000000000e+00  0.0000000000000000e+00  0.0000000000000000e+00  0.0000000000000000e+00  0.0000000000000000e+00  0.0000000000000000e+00  0.0000000000000000e+00  0.0000000000000000e+00  0.0000000000000000e+00  0.0000000000000000e+00  0.0000000000000000e+00  0.0000000000000000e+00  0.0000000000000000e+00  0.0000000000000000e+00  0.0000000000000000e+00  0.0000000000000000e+00  0.0000000000000000e+00  0.0000000000000000e+00  0.0000000000000000e+00  0.0000000000000000e+00  0.0000000000000000e+00  0.0000000000000000e+00  0.0000000000000000e+00  0.0000000000000000e+00  0.0000000000000000e+00  0.0000000000000000e+00  0.0000000000000000e+00  0.0000000000000000e+00  0.0000000000000000e+00  0.0000000000000000e+00  0.0000000000000000e+00  0.0000000000000000e+00  0.0000000000000000e+00  0.0000000000000000e+00  0.0000000000000000e+00  0.0000000000000000e+00  0.0000000000000000e+00  0.0000000000000000e+00  0.0000000000000000e+00  0.0000000000000000e+00  0.0000000000000000e+00  0.0000000000000000e+00  0.0000000000000000e+00  0.0000000000000000e+00  0.0000000000000000e+00  0.0000000000000000e+00  0.0000000000000000e+00  0.0000000000000000e+00  0.0000000000000000e+00  0.0000000000000000e+00  0.0000000000000000e+00  0.0000000000000000e+00  0.0000000000000000e+00  0.0000000000000000e+00  0.0000000000000000e+00  0.0000000000000000e+00  0.0000000000000000e+00  0.0000000000000000e+00  0.0000000000000000e+00  0.0000000000000000e+00  0.0000000000000000e+00  0.0000000000000000e+00  0.0000000000000000e+00  0.0000000000000000e+00  0.0000000000000000e+00  0.0000000000000000e+00  0.0000000000000000e+00  0.0000000000000000e+00  0.0000000000000000e+00  0.0000000000000000e+00  0.0000000000000000e+00  0.0000000000000000e+00  0.0000000000000000e+00  0.0000000000000000e+00  0.0000000000000000e+00  0.0000000000000000e+00  0.0000000000000000e+00  0.0000000000000000e+00  0.0000000000000000e+00  0.0000000000000000e+00  0.0000000000000000e+00  0.0000000000000000e+00  0.0000000000000000e+00  0.0000000000000000e+00  0.0000000000000000e+00  0.0000000000000000e+00  0.0000000000000000e+00  0.0000000000000000e+00  0.0000000000000000e+00  0.0000000000000000e+00  0.0000000000000000e+00  0.0000000000000000e+00  0.0000000000000000e+00  0.0000000000000000e+00  0.0000000000000000e+00  0.0000000000000000e+00  0.0000000000000000e+00  0.0000000000000000e+00  0.0000000000000000e+00  0.0000000000000000e+00  0.0000000000000000e+00  0.0000000000000000e+00  0.0000000000000000e+00  0.0000000000000000e+00  0.0000000000000000e+00  0.0000000000000000e+00  0.0000000000000000e+00  0.0000000000000000e+00  0.0000000000000000e+00  0.0000000000000000e+00  0.0000000000000000e+00  0.0000000000000000e+00  0.0000000000000000e+00  0.0000000000000000e+00  0.0000000000000000e+00  0.0000000000000000e+00  0.0000000000000000e+00  0.0000000000000000e+00  0.0000000000000000e+00  0.0000000000000000e+00  0.0000000000000000e+00  0.0000000000000000e+00  0.0000000000000000e+00  0.0000000000000000e+00  0.0000000000000000e+00  0.0000000000000000e+00  0.0000000000000000e+00  0.0000000000000000e+00  0.0000000000000000e+00  0.0000000000000000e+00  0.0000000000000000e+00  0.0000000000000000e+00  0.0000000000000000e+00  0.0000000000000000e+00  0.0000000000000000e+00  0.0000000000000000e+00  0.0000000000000000e+00  0.0000000000000000e+00  0.0000000000000000e+00  0.0000000000000000e+00  0.0000000000000000e+00  0.0000000000000000e+00  0.0000000000000000e+00  0.0000000000000000e+00  0.0000000000000000e+00  0.0000000000000000e+00  0.0000000000000000e+00  0.0000000000000000e+00  0.0000000000000000e+00  0.0000000000000000e+00  0.0000000000000000e+00  0.0000000000000000e+00  0.0000000000000000e+00  0.0000000000000000e+00  0.0000000000000000e+00  0.0000000000000000e+00  0.0000000000000000e+00  0.0000000000000000e+00  0.0000000000000000e+00  0.0000000000000000e+00  0.0000000000000000e+00  0.0000000000000000e+00  0.0000000000000000e+00  0.0000000000000000e+00  0.0000000000000000e+00  0.0000000000000000e+00  0.0000000000000000e+00  0.0000000000000000e+00  0.0000000000000000e+00  0.0000000000000000e+00  0.0000000000000000e+00  0.0000000000000000e+00  0.0000000000000000e+00  0.0000000000000000e+00  0.0000000000000000e+00  0.0000000000000000e+00  0.0000000000000000e+00  0.0000000000000000e+00  0.0000000000000000e+00  0.0000000000000000e+00  0.0000000000000000e+00  0.0000000000000000e+00  0.0000000000000000e+00  0.0000000000000000e+00  0.0000000000000000e+00  0.0000000000000000e+00  0.0000000000000000e+00  0.0000000000000000e+00  0.0000000000000000e+00  0.0000000000000000e+00  0.0000000000000000e+00  0.0000000000000000e+00  0.0000000000000000e+00  0.0000000000000000e+00  0.0000000000000000e+00  0.0000000000000000e+00  0.0000000000000000e+00  0.0000000000000000e+00  0.0000000000000000e+00  0.0000000000000000e+00  0.0000000000000000e+00  0.0000000000000000e+00  0.0000000000000000e+00  0.0000000000000000e+00  0.0000000000000000e+00  0.0000000000000000e+00  0.0000000000000000e+00  0.0000000000000000e+00  0.0000000000000000e+00  0.0000000000000000e+00  0.0000000000000000e+00  0.0000000000000000e+00  0.0000000000000000e+00  0.0000000000000000e+00  0.0000000000000000e+00  0.0000000000000000e+00  0.0000000000000000e+00  0.0000000000000000e+00  0.0000000000000000e+00  0.0000000000000000e+00  0.0000000000000000e+00  0.0000000000000000e+00  0.0000000000000000e+00  0.0000000000000000e+00  0.0000000000000000e+00  0.0000000000000000e+00  0.0000000000000000e+00  0.0000000000000000e+00  0.0000000000000000e+00  0.0000000000000000e+00  0.0000000000000000e+00  0.0000000000000000e+00  0.0000000000000000e+00  0.0000000000000000e+00  0.0000000000000000e+00  0.0000000000000000e+00  0.0000000000000000e+00  0.0000000000000000e+00  0.0000000000000000e+00  0.0000000000000000e+00  0.0000000000000000e+00  0.0000000000000000e+00  0.0000000000000000e+00  0.0000000000000000e+00  0.0000000000000000e+00  0.0000000000000000e+00  0.0000000000000000e+00  0.0000000000000000e+00  0.0000000000000000e+00  0.0000000000000000e+00  0.0000000000000000e+00  0.0000000000000000e+00  0.0000000000000000e+00  0.0000000000000000e+00  0.0000000000000000e+00  0.0000000000000000e+00  0.0000000000000000e+00  0.0000000000000000e+00  0.0000000000000000e+00  0.0000000000000000e+00  0.0000000000000000e+00  0.0000000000000000e+00  0.0000000000000000e+00  0.0000000000000000e+00  0.0000000000000000e+00  0.0000000000000000e+00  0.0000000000000000e+00  0.0000000000000000e+00  0.0000000000000000e+00  0.0000000000000000e+00  0.0000000000000000e+00  0.0000000000000000e+00  0.0000000000000000e+00  0.0000000000000000e+00  0.0000000000000000e+00  0.0000000000000000e+00  0.0000000000000000e+00  0.0000000000000000e+00  0.0000000000000000e+00  0.0000000000000000e+00  0.0000000000000000e+00  0.0000000000000000e+00  0.0000000000000000e+00  0.0000000000000000e+00  0.0000000000000000e+00  0.0000000000000000e+00  0.0000000000000000e+00  0.0000000000000000e+00  0.0000000000000000e+00  0.0000000000000000e+00  0.0000000000000000e+00  0.0000000000000000e+00  0.0000000000000000e+00  0.0000000000000000e+00  0.0000000000000000e+00  0.0000000000000000e+00  0.0000000000000000e+00  0.0000000000000000e+00  0.0000000000000000e+00  0.0000000000000000e+00  0.0000000000000000e+00  0.0000000000000000e+00  0.0000000000000000e+00  0.0000000000000000e+00  0.0000000000000000e+00  0.0000000000000000e+00  0.0000000000000000e+00  0.0000000000000000e+00  0.0000000000000000e+00  0.0000000000000000e+00  0.0000000000000000e+00  0.0000000000000000e+00  0.0000000000000000e+00  0.0000000000000000e+00  0.0000000000000000e+00  0.0000000000000000e+00  0.0000000000000000e+00  0.0000000000000000e+00  0.0000000000000000e+00  0.0000000000000000e+00  0.0000000000000000e+00  0.0000000000000000e+00  0.0000000000000000e+00  0.0000000000000000e+00  0.0000000000000000e+00  0.0000000000000000e+00  0.0000000000000000e+00  0.0000000000000000e+00  0.0000000000000000e+00  0.0000000000000000e+00  0.0000000000000000e+00  0.0000000000000000e+00  0.0000000000000000e+00  0.0000000000000000e+00  0.0000000000000000e+00  0.0000000000000000e+00  0.0000000000000000e+00  0.0000000000000000e+00  0.0000000000000000e+00  0.0000000000000000e+00  0.0000000000000000e+00  0.0000000000000000e+00  0.0000000000000000e+00  0.0000000000000000e+00  0.0000000000000000e+00  0.0000000000000000e+00  0.0000000000000000e+00  0.0000000000000000e+00  0.0000000000000000e+00  0.0000000000000000e+00  0.0000000000000000e+00  0.0000000000000000e+00  0.0000000000000000e+00  0.0000000000000000e+00  0.0000000000000000e+00  0.0000000000000000e+00  0.0000000000000000e+00  0.0000000000000000e+00  0.0000000000000000e+00  0.0000000000000000e+00  0.0000000000000000e+00  0.0000000000000000e+00  0.0000000000000000e+00  0.0000000000000000e+00  0.0000000000000000e+00  0.0000000000000000e+00  0.0000000000000000e+00  0.0000000000000000e+00  0.0000000000000000e+00  0.0000000000000000e+00  0.0000000000000000e+00  0.0000000000000000e+00  0.0000000000000000e+00  0.0000000000000000e+00  0.0000000000000000e+00  0.0000000000000000e+00  0.0000000000000000e+00  0.0000000000000000e+00  0.0000000000000000e+00  0.0000000000000000e+00  0.0000000000000000e+00  0.0000000000000000e+00  0.0000000000000000e+00  0.0000000000000000e+00  0.0000000000000000e+00  0.0000000000000000e+00  0.0000000000000000e+00  0.0000000000000000e+00  0.0000000000000000e+00  0.0000000000000000e+00  0.0000000000000000e+00  0.0000000000000000e+00  2.2459820867646798e+02  2.2832928841039680e+02  2.2386187309006559e+02  2.3021499572033827e+02  2.2968831829918210e+02  2.2880736992781385e+02  2.2567925897045117e+02  2.1838878856022211e+02  2.1346810637436104e+02  2.1211113065296365e+02  2.1272052734228913e+02  2.1215695816460311e+02  2.1050921979496670e+02  2.1039436794275952e+02  2.1051345098390843e+02  2.1145543134116627e+02  2.1197658649244590e+02  2.1075933454193915e+02  2.1067273455388101e+02  2.1151392691383023e+02  2.1151321631864607e+02  2.1254029991024686e+02  2.1451491273636807e+02  2.0660285408390939e+02  2.3032450399389870e+02  2.3014572884768307e+02  2.3493392342247824e+02  2.3229934751417073e+02  2.3283258587420258e+02  2.3283189143685453e+02  2.3112711187950990e+02  2.2994098567595867e+02  2.2407904705976853e+02  2.2983114597840861e+02  2.2593077753476041e+02  2.1562705099617310e+02  2.3101833976681147e+02  2.2550252136664139e+02  2.2067942312263173e+02  2.1906266491784825e+02  2.1417963708653289e+02  2.1278074728285972e+02  2.1278243819392637e+02  2.1197856330951578e+02  2.1091819218931056e+02  2.1098844485840851e+02  2.1104322337456668e+02  2.1114008223711690e+02  2.1061586253850658e+02  2.1032149226339237e+02  2.1100828034963570e+02  2.1478856410080135e+02  2.1456923590781847e+02  2.1604554689647441e+02  2.1561190433722831e+02  2.1758062956766756e+02  2.2104828810532436e+02  2.1945228562422028e+02  2.2159763215135024e+02  2.2434168341147833e+02  2.2320387492215440e+02  2.2441238640024881e+02  2.3462270748988194e+00  2.5744950025490008e+00  2.6756551601246255e+00  2.4247991632902197e+00  2.9923964714491653e+00  2.8891993323232819e+00  2.6807589624618076e+00  2.6672110625389722e+00  3.0911641923427919e+00  2.9901269300779605e+00  2.9653006953459005e+00  3.3827258801239033e+00  3.3861950299924408e+00  3.3412954896035609e+00  3.3125401393131813e+00  3.7256228290680875e+00  3.5216586968529926e+00  3.2414671740984682e+00  3.8827304350062164e+00  3.8781416251748864e+00  3.3760986154369657e+00  3.5269443391363668e+00  3.8712226637519147e+00  3.4002300140741437e+00  3.7068534082469333e+00  3.3326008390063104e+00  4.2712852413090348e+00  4.2635375908916995e+00  4.2972649518556629e+00  3.7603515145026440e+00  4.2455124837092715e+00  3.4644157703735430e+00  2.0321421026512922e+00  1.8774489115244541e+00  2.0321670962511376e+00  2.0050228841795739e+00  1.8491091018231154e+00  2.0067327271138731e+00  1.9481936772143573e+00  1.9724947205115193e+00  4.4189464035590227e+00  3.6866591382963607e+00  3.3786375142422793e+00  4.0815857141761658e+00  1.3749942107480060e+00  1.4919382139621595e+00  1.4976093102068107e+00  1.3884327473899503e+00  1.5125453672894060e+00  1.4652241969953914e+00  1.4801677094608856e+00  1.4616331260916731e+00  1.0570668633842930e+00  1.2142169032314694e+00  1.0821354734863851e+00  1.0914759340891755e+00  1.0044066930790985e+00  1.0882887817111344e+00  1.0643631760729366e+00  1.0721565408356419e+00  7.8427499374776666e-01  6.1724342953878930e-01  5.6952486976481309e-01  6.7218581532543831e-01  6.5922997202945588e-01  6.6462765748754671e-01  6.5386027197046281e-01  6.9740876242852856e-01  4.3922449175001796e+00  3.8304650325633181e+00  3.5541613977881354e+00  3.8416877685495985e+00  3.7888437151906547e+00  3.6452832585909150e+00  4.1139526098801467e+00  4.1406028683787053e+00  3.6700041794650593e+00  2.9552621857177495e+00  4.2217780940438816e+00  3.6005655399098417e+00  3.3538908634423565e+00  3.5063124397682293e+00  4.1323301421939220e+00  3.6791114715187287e+00  3.6663914299261919e+00  3.3479758680170866e+00  4.0621662035341810e+00  3.3653778278689654e+00  3.4020550835903620e+00  3.0734519083754783e+00  3.0962900611057540e+00  3.0344595089485722e+00  2.4381895628605101e+00  2.8918468521953327e+00  2.8431405279820616e+00  3.0822901109175094e+00  2.3510882514706051e+00  2.4206604978213040e+00  2.3587978284841506e+00  2.3268883002623020e+00  2.5906304248362604e+00  2.3630871293366975e+00  2.2535381108360468e+00  2.0053831989323219e+00  3.6027271798915822e-01  3.5497241881480607e-01  3.4499817894980273e-01  3.8391976233346869e-01  3.6009984966575559e-01  3.7671491363301568e-01  3.5547651793991020e-01  2.9666580006361637e-01  4.3953886055237934e+00  4.1208718684376731e+00  4.5050597037309394e+00  3.8968998519639282e+00  2.7420121037955498e+00  2.8839165675185625e+00  2.8761256540539901e+00  3.0937543339016806e+00  2.8901652706279508e+00  2.7452560885357356e+00  2.9474659709276514e+00  2.8434729870120181e+00  1.7943285420088251e+00  2.0732984353947792e+00  2.0402926392015202e+00  1.8305497851360097e+00  1.7224372570515916e+00  1.8657146284534800e+00  1.7663993138566187e+00  1.8005995221166087e+00  1.2752350308007532e+00  8.6298583887172042e-01  1.3080850057641369e+00  9.4996176530130538e-01  1.1854996960427093e+00  8.8489483064473484e-01  1.3015753526184468e+00  8.8229254892028763e-01  1.2883337424720127e+00  1.0521251097028503e+00  1.2978133824231171e+00  8.8012104304004479e-01  1.2949936379948337e+00  8.6716926557767326e-01  1.3478097036618231e+00  9.0605690598725885e-01  1.7093812731403432e-01  1.5443045404470798e-01  1.5418853733265972e-01  1.6720711572530783e-01  4.4111892568912507e+00  8.8189083465599438e+00  8.7789053021269350e+00  1.3221780889830413e+01  1.3149238646974235e+01  1.7620455227390242e+01  1.7513176079462504e+01  2.2016847211964706e+01  2.1859734095486182e+01  2.6409195183020390e+01  2.6192678781958953e+01  3.0798066689926944e+01  3.0512894277670526e+01  3.5182944524303267e+01  3.4819568383026187e+01  3.9563735203190191e+01  3.9107107998825029e+01  4.3936670908266230e+01  4.3385511520593326e+01  4.8293511384052167e+01  4.7639236447657559e+01  4.8889319148977194e+01  5.2651825174154894e+01  5.1866246902323404e+01  5.6994826960843518e+01  5.6071644861075789e+01  6.1300456768588951e+01  6.0236649008196068e+01  6.5578544459292459e+01  6.4358039446923357e+01  6.9810913639565570e+01  6.8426897682462027e+01  7.1123313436852371e+01  7.3984456587447283e+01  7.2431344548502068e+01  7.8111113956965013e+01  7.6365945199764155e+01  8.2172509124880705e+01  8.0212660975410287e+01  8.6131671667454526e+01  8.3968661855768943e+01  8.9985548524854053e+01  8.7610344244734847e+01  9.2315669688234578e+01  9.3718740532348576e+01  9.1127659180685868e+01  9.7317409103450203e+01  9.4500630211576023e+01  8.8463253845179437e+01  9.1644015459855083e+01  9.7726314879971795e+01  9.4689124571610705e+01  8.8805853747231268e+01  9.1656295781949396e+01  8.5983974839284457e+01  8.8635582399624965e+01  9.4333134366364618e+01  9.1126767018772966e+01  8.5623783874258436e+01  8.7941537907358793e+01  8.2626603476398628e+01  8.4780011943945027e+01  9.0098337057536071e+01  8.6774944681979676e+01  8.1644160809948843e+01  8.3484784669805208e+01  8.8605439845682284e+01  8.5164613834736159e+01  8.0228220339525791e+01  8.1763839819813782e+01  8.6679023610346206e+01  8.3138219048253291e+01  8.8024325258306220e+01  7.7005484402177942e+01  8.4347903447615678e+01  8.9196640928165664e+01  8.5390117185420422e+01  9.0194169205237259e+01  8.6262906225965040e+01  9.1014968123622040e+01  8.6965055226719898e+01  9.1657741327497007e+01  8.2392979628872155e+01  8.7495696421163146e+01  9.2122762616854715e+01  8.7855002145154913e+01  9.2410527651916752e+01  8.8044057152780596e+01  9.2522473586873502e+01  8.8064115694512452e+01  9.2460816270635121e+01  8.7917675927577648e+01  9.2228149264150630e+01  8.7607311433681431e+01  9.1828094478801262e+01  8.3685341729459907e+01  9.5134936106957227e+01  2.1473359364244709e+02  8.7136115406071340e+01  9.1264680201944287e+01  8.6509025236679960e+01  9.0542435811406435e+01  2.0739815621809987e+02  8.5730096965439202e+01  8.9666483639159793e+01  2.0477584558946467e+02  8.4804324626356347e+01  8.8642322288712151e+01  9.3644375757881349e+01  9.2514473787698648e+01  8.7475678906202603e+01  9.1241591085684533e+01  9.7092760422926773e+01  8.1007421548427757e+01  8.6173208154947062e+01  8.9832967222553478e+01  9.5027611132137523e+01  9.3505279488670809e+01  8.8294284518440335e+01  9.1854190438443084e+01  9.7183353326785038e+01  9.5413140560277370e+01  9.0081228307105846e+01  9.3522924303224812e+01  9.8963821048778385e+01  9.6950002467784472e+01  9.1520228494307744e+01  9.4825194993833207e+01  1.0036422267132569e+02  9.8107724761644889e+01  9.2599533913631547e+01  9.5751517491320328e+01  1.0134672058120643e+02  9.8860402482017420e+01  9.3308127253389159e+01  9.6290646767963736e+01  1.0191780394374292e+02  9.9217008743555283e+01  1.0491577117601609e+02  1.0207857507336307e+02  9.6440769494382238e+01  9.9170026466112958e+01  1.0486636765500897e+02  1.0182132105358103e+02  9.6198853552113462e+01  9.8718363659278964e+01  1.0438590893986492e+02  1.0114716941597372e+02  1.0685428161469628e+02  1.0347609117067601e+02  1.0921727174624736e+02  1.0569623271361827e+02  1.0005993348760452e+02  1.0214368561772369e+02  1.0779865183169863e+02  1.0410704508047490e+02  1.0977407703942325e+02  1.0594126539590970e+02  1.1161335955715306e+02  1.0763756247685849e+02  1.1330738374069485e+02  1.0918735321587127e+02  1.0366133748038538e+02  1.0507573141502560e+02  1.1058269396091164e+02  1.0633803683336005e+02  1.1181322529707452e+02  1.0743619885800891e+02  1.1287497559614644e+02  1.0836496593311931e+02  1.1376969637680440e+02  1.0911822636026551e+02  1.1447215341408558e+02  1.0969356124761427e+02  1.1497599747071777e+02  1.1007961251398703e+02  1.1529045774953589e+02  1.1027574642161160e+02  1.1543418676222937e+02  1.1028248319556769e+02  1.1535430869355908e+02  1.1008977546798094e+02  1.1503295482518415e+02  1.0968908549219481e+02  1.1452705428095257e+02  1.0909093636358477e+02  1.1381812842085569e+02  1.0446335947204668e+02  1.0378333736105967e+02  9.9360256546305166e+01  9.8606374596595145e+01  9.4382270780198141e+01  9.3564788093421512e+01  8.9532063575959981e+01  8.8659273249319980e+01  8.4810844412602989e+01  8.3891102310542337e+01  8.7615233540268335e+01  8.0220431938990416e+01  1.0308973454242241e+02  8.2806610425998954e+01  8.6401573233270881e+01  8.1561126158640135e+01  8.5021073057556180e+01  8.0154746844024615e+01  8.3476430852244562e+01  7.8590173006118945e+01  8.1771228062178025e+01  7.6873844063170210e+01  7.3865200652779691e+01  7.9910344905362507e+01  7.2142816914424685e+01  6.9298935315045028e+01  6.7573858437992726e+01  6.4887529296689536e