<?xml version="1.0"?>
<VTKFile type="UnstructuredGrid"  version="0.1"  >
<UnstructuredGrid>
<Piece  NumberOfPoints="11902" NumberOfCells="23402">
<Points>
<DataArray  type="Float64"  NumberOfComponents="3"  format="ascii">-5 -5 0  5 -5 0  5 5 0  -5 5 0  1.252623105321993 -0.0008056009613154077 0  -4.9 -5 0  -4.8 -5 0  -4.7 -5 0  -4.6 -5 0  -4.5 -5 0  -4.4 -5 0  -4.3 -5 0  -4.2 -5 0  -4.1 -5 0  -4 -5 0  -3.9 -5 0  -3.8 -5 0  -3.7 -5 0  -3.6 -5 0  -3.5 -5 0  -3.4 -5 0  -3.3 -5 0  -3.2 -5 0  -3.1 -5 0  -3 -5 0  -2.9 -5 0  -2.8 -5 0  -2.7 -5 0  -2.6 -5 0  -2.5 -5 0  -2.4 -5 0  -2.3 -5 0  -2.2 -5 0  -2.1 -5 0  -2 -5 0  -1.9 -5 0  -1.8 -5 0  -1.7 -5 0  -1.6 -5 0  -1.5 -5 0  -1.4 -5 0  -1.3 -5 0  -1.2 -5 0  -1.1 -5 0  -1 -5 0  -0.9000000000000004 -5 0  -0.7999999999999998 -5 0  -0.7000000000000002 -5 0  -0.5999999999999996 -5 0  -0.5 -5 0  -0.4000000000000004 -5 0  -0.2999999999999998 -5 0  -0.2000000000000002 -5 0  -0.09999999999999964 -5 0  0 -5 0  0.09999999999999964 -5 0  0.2000000000000002 -5 0  0.2999999999999998 -5 0  0.4000000000000004 -5 0  0.5 -5 0  0.5999999999999996 -5 0  0.7000000000000002 -5 0  0.7999999999999998 -5 0  0.9000000000000004 -5 0  1 -5 0  1.1 -5 0  1.2 -5 0  1.3 -5 0  1.4 -5 0  1.5 -5 0  1.6 -5 0  1.7 -5 0  1.8 -5 0  1.9 -5 0  2 -5 0  2.1 -5 0  2.2 -5 0  2.3 -5 0  2.4 -5 0  2.5 -5 0  2.6 -5 0  2.7 -5 0  2.8 -5 0  2.9 -5 0  3 -5 0  3.1 -5 0  3.199999999999999 -5 0  3.300000000000001 -5 0  3.4 -5 0  3.5 -5 0  3.6 -5 0  3.699999999999999 -5 0  3.800000000000001 -5 0  3.9 -5 0  4 -5 0  4.1 -5 0  4.199999999999999 -5 0  4.300000000000001 -5 0  4.4 -5 0  4.5 -5 0  4.6 -5 0  4.699999999999999 -5 0  4.800000000000001 -5 0  4.9 -5 0  5 -4.9 0  5 -4.8 0  5 -4.7 0  5 -4.6 0  5 -4.5 0  5 -4.4 0  5 -4.3 0  5 -4.2 0  5 -4.1 0  5 -4 0  5 -3.9 0  5 -3.8 0  5 -3.7 0  5 -3.6 0  5 -3.5 0  5 -3.4 0  5 -3.3 0  5 -3.2 0  5 -3.1 0  5 -3 0  5 -2.9 0  5 -2.8 0  5 -2.7 0  5 -2.6 0  5 -2.5 0  5 -2.4 0  5 -2.3 0  5 -2.2 0  5 -2.1 0  5 -2 0  5 -1.9 0  5 -1.8 0  5 -1.7 0  5 -1.6 0  5 -1.5 0  5 -1.4 0  5 -1.3 0  5 -1.2 0  5 -1.1 0  5 -1 0  5 -0.9000000000000004 0  5 -0.7999999999999998 0  5 -0.7000000000000002 0  5 -0.5999999999999996 0  5 -0.5 0  5 -0.4000000000000004 0  5 -0.2999999999999998 0  5 -0.2000000000000002 0  5 -0.09999999999999964 0  5 0 0  5 0.09999999999999964 0  5 0.2000000000000002 0  5 0.2999999999999998 0  5 0.4000000000000004 0  5 0.5 0  5 0.5999999999999996 0  5 0.7000000000000002 0  5 0.7999999999999998 0  5 0.9000000000000004 0  5 1 0  5 1.1 0  5 1.2 0  5 1.3 0  5 1.4 0  5 1.5 0  5 1.6 0  5 1.7 0  5 1.8 0  5 1.9 0  5 2 0  5 2.1 0  5 2.2 0  5 2.3 0  5 2.4 0  5 2.5 0  5 2.6 0  5 2.7 0  5 2.8 0  5 2.9 0  5 3 0  5 3.1 0  5 3.199999999999999 0  5 3.300000000000001 0  5 3.4 0  5 3.5 0  5 3.6 0  5 3.699999999999999 0  5 3.800000000000001 0  5 3.9 0  5 4 0  5 4.1 0  5 4.199999999999999 0  5 4.300000000000001 0  5 4.4 0  5 4.5 0  5 4.6 0  5 4.699999999999999 0  5 4.800000000000001 0  5 4.9 0  4.9 5 0  4.8 5 0  4.7 5 0  4.6 5 0  4.5 5 0  4.4 5 0  4.3 5 0  4.2 5 0  4.1 5 0  4 5 0  3.9 5 0  3.8 5 0  3.7 5 0  3.6 5 0  3.5 5 0  3.4 5 0  3.3 5 0  3.2 5 0  3.1 5 0  3 5 0  2.9 5 0  2.8 5 0  2.7 5 0  2.6 5 0  2.5 5 0  2.4 5 0  2.3 5 0  2.2 5 0  2.1 5 0  2 5 0  1.9 5 0  1.8 5 0  1.7 5 0  1.6 5 0  1.5 5 0  1.4 5 0  1.3 5 0  1.2 5 0  1.1 5 0  1 5 0  0.9000000000000004 5 0  0.7999999999999998 5 0  0.7000000000000002 5 0  0.5999999999999996 5 0  0.5 5 0  0.4000000000000004 5 0  0.2999999999999998 5 0  0.2000000000000002 5 0  0.09999999999999964 5 0  0 5 0  -0.09999999999999964 5 0  -0.2000000000000002 5 0  -0.2999999999999998 5 0  -0.4000000000000004 5 0  -0.5 5 0  -0.5999999999999996 5 0  -0.7000000000000002 5 0  -0.7999999999999998 5 0  -0.9000000000000004 5 0  -1 5 0  -1.1 5 0  -1.2 5 0  -1.3 5 0  -1.4 5 0  -1.5 5 0  -1.6 5 0  -1.7 5 0  -1.8 5 0  -1.9 5 0  -2 5 0  -2.1 5 0  -2.2 5 0  -2.3 5 0  -2.4 5 0  -2.5 5 0  -2.6 5 0  -2.7 5 0  -2.8 5 0  -2.9 5 0  -3 5 0  -3.1 5 0  -3.199999999999999 5 0  -3.300000000000001 5 0  -3.4 5 0  -3.5 5 0  -3.6 5 0  -3.699999999999999 5 0  -3.800000000000001 5 0  -3.9 5 0  -4 5 0  -4.1 5 0  -4.199999999999999 5 0  -4.300000000000001 5 0  -4.4 5 0  -4.5 5 0  -4.6 5 0  -4.699999999999999 5 0  -4.800000000000001 5 0  -4.9 5 0  -5 4.9 0  -5 4.8 0  -5 4.7 0  -5 4.6 0  -5 4.5 0  -5 4.4 0  -5 4.3 0  -5 4.2 0  -5 4.1 0  -5 4 0  -5 3.9 0  -5 3.8 0  -5 3.7 0  -5 3.6 0  -5 3.5 0  -5 3.4 0  -5 3.3 0  -5 3.2 0  -5 3.1 0  -5 3 0  -5 2.9 0  -5 2.8 0  -5 2.7 0  -5 2.6 0  -5 2.5 0  -5 2.4 0  -5 2.3 0  -5 2.2 0  -5 2.1 0  -5 2 0  -5 1.9 0  -5 1.8 0  -5 1.7 0  -5 1.6 0  -5 1.5 0  -5 1.4 0  -5 1.3 0  -5 1.2 0  -5 1.1 0  -5 1 0  -5 0.9000000000000004 0  -5 0.7999999999999998 0  -5 0.7000000000000002 0  -5 0.5999999999999996 0  -5 0.5 0  -5 0.4000000000000004 0  -5 0.2999999999999998 0  -5 0.2000000000000002 0  -5 0.09999999999999964 0  -5 0 0  -5 -0.09999999999999964 0  -5 -0.2000000000000002 0  -5 -0.2999999999999998 0  -5 -0.4000000000000004 0  -5 -0.5 0  -5 -0.5999999999999996 0  -5 -0.7000000000000002 0  -5 -0.7999999999999998 0  -5 -0.9000000000000004 0  -5 -1 0  -5 -1.1 0  -5 -1.2 0  -5 -1.3 0  -5 -1.4 0  -5 -1.5 0  -5 -1.6 0  -5 -1.7 0  -5 -1.8 0  -5 -1.9 0  -5 -2 0  -5 -2.1 0  -5 -2.2 0  -5 -2.3 0  -5 -2.4 0  -5 -2.5 0  -5 -2.6 0  -5 -2.7 0  -5 -2.8 0  -5 -2.9 0  -5 -3 0  -5 -3.1 0  -5 -3.199999999999999 0  -5 -3.300000000000001 0  -5 -3.4 0  -5 -3.5 0  -5 -3.6 0  -5 -3.699999999999999 0  -5 -3.800000000000001 0  -5 -3.9 0  -5 -4 0  -5 -4.1 0  -5 -4.199999999999999 0  -5 -4.300000000000001 0  -5 -4.4 0  -5 -4.5 0  -5 -4.6 0  -5 -4.699999999999999 0  -5 -4.800000000000001 0  -5 -4.9 0  1.246703173720417 0.1204510263280386 0  1.227154305233835 0.2360127020406238 0  1.195716314790323 0.3481420673331888 0  1.149039582311486 0.4543438934211752 0  1.091237505590888 0.5568235109758138 0  1.022333885343419 0.6529051064105642 0  0.939859384551195 0.747907283399975 0  0.854105183825937 0.8259741718168309 0  0.7605366076136524 0.8983823566303436 0  0.6608388686401055 0.9609851324136398 0  0.5486508330931541 1.016888478110635 0  0.4419826104939856 1.059425696650166 0  0.3232457817376342 1.095747718663923 0  0.205902404232254 1.120258549659194 0  0.08804668034156819 1.135058547263633 0  -0.03360701885693951 1.138479838027394 0  -0.1455807928295572 1.130145589231811 0  -0.2625881479291289 1.110892391814094 0  -0.3826384365732378 1.079680538139099 0  -0.4944180443496343 1.040275644822764 0  -0.6046546673868018 0.9910995662073184 0  -0.7099990640837452 0.9308955987572313 0  -0.8063321839557789 0.8643651035259095 0  -0.9007786531917547 0.7860212663928107 0  -0.9820767283924871 0.6996237675556041 0  -1.055854515902529 0.6082280833594592 0  -1.119542301112362 0.5084034768062288 0  -1.17228806633085 0.3996195287278713 0  -1.21224605450757 0.2900051857649178 0  -1.238823360771949 0.1771107196695452 0  -1.252265666645539 0.05921437647142109 0  -1.251978232009987 -0.05707353545740042 0  -1.240213515969081 -0.1728302391359044 0  -1.211307392797055 -0.2920483194024264 0  -1.170780909067892 -0.4008075982896508 0  -1.117814257913195 -0.5093422653837981 0  -1.055021883933595 -0.6056774695539549 0  -0.9809501292025625 -0.7003272756688634 0  -0.8968682668690263 -0.7877159933138399 0  -0.8063809906086693 -0.8638411681717429 0  -0.7099917603114321 -0.9316091440965595 0  -0.6052135613029244 -0.991968548035242 0  -0.495050657490215 -1.041125857156204 0  -0.3828887141792038 -1.079324527653154 0  -0.26609810382841 -1.108983742263504 0  -0.1499166727298621 -1.126279593953307 0  -0.03228626761487693 -1.134636805047746 0  0.09286378654951731 -1.132034814851127 0  0.2066653904784091 -1.119237668297985 0  0.3283700893388714 -1.094326938512737 0  0.4389716110296419 -1.060863226597763 0  0.5532726677074492 -1.015104896394656 0  0.6562356964734177 -0.9647509342506432 0  0.7610261068272686 -0.8991037485501985 0  0.8557133779335491 -0.8268191363663581 0  0.9426310373613256 -0.7452687694583533 0  1.020573439540136 -0.6561631644512315 0  1.087841577590438 -0.5615671137849696 0  1.145695413312158 -0.4571065994279483 0  1.193664147628398 -0.3433636237174125 0  1.225739275659484 -0.2354082527418271 0  1.246196432071574 -0.1157203972137183 0  -2.449955071338456 4.920443213521196 0  -2.449949112725896 -4.913021690322107 0  4.912808931484212 2.449747705774767 0  4.920714282526585 -2.451035704112123 0  2.447936600352616 -4.898700424389833 0  2.442321174253884 4.902352310653519 0  -4.912817601871009 -2.449755140450711 0  -4.91282470640585 2.449758731540824 0  -1.749986575209098 4.914338378190101 0  -1.745709087937463 -4.917638672036601 0  4.923466982262623 1.745675298919598 0  4.912402202952412 -1.749684781849064 0  -4.912663391688489 -1.749389932832684 0  -4.913467291116191 1.749114473588491 0  1.747374769373228 4.908436422627665 0  1.748965580919962 -4.897017483342082 0  -1.150011369929396 4.912836264561919 0  -1.130759008374089 -4.920363530420206 0  -4.913033344245319 -1.149339978029212 0  -4.912867835766773 1.149137008108652 0  1.144926013947065 -4.916746185214747 0  1.150013071150893 4.912816802295604 0  4.91320295549771 1.147624907208482 0  4.923564379260226 -1.153232523895746 0  -0.547283988467805 -4.914353466074561 0  -0.5470020972007587 4.922648335522622 0  -4.912257104695209 -0.5494689113189984 0  -4.912285426195733 0.548015185905573 0  4.911642829802249 -0.5498012472538032 0  4.922752096032933 0.5464476202749436 0  0.5431388068046547 -4.901869798186494 0  0.5517436200086997 4.919626562423307 0  -4.913547828771978 -3.049830854326352 0  4.920008312662105 3.047744414392756 0  4.913073423967946 -3.049830841391352 0  -4.91438987798936 3.046909714106695 0  3.056504779711104 -4.919092273659674 0  -3.04993177238407 -4.913154132404062 0  3.053470271566317 4.915197636806532 0  -3.049366986577391 4.914025390849449 0  -4.911544754127701 -0.04998398453928075 0  0.04515964089466785 -4.916341961789331 0  0.04961070480323931 4.923039391566342 0  4.918293500456031 -0.05136067617595322 0  3.546564639373735 -4.920251094379977 0  -3.549930986565348 4.913246510239
[...]
<PointData  Scalars="f_23"> 
<DataArray  type="Float64"  Name="f_23"  format="ascii">0.0000000000000000e+00  0.0000000000000000e+00  0.0000000000000000e+00  0.0000000000000000e+00  2.5904517637328962e+02  0.0000000000000000e+00  0.0000000000000000e+00  0.0000000000000000e+00  0.0000000000000000e+00  0.0000000000000000e+00  0.0000000000000000e+00  0.0000000000000000e+00  0.0000000000000000e+00  0.0000000000000000e+00  0.0000000000000000e+00  0.0000000000000000e+00  0.0000000000000000e+00  0.0000000000000000e+00  0.0000000000000000e+00  0.0000000000000000e+00  0.0000000000000000e+00  0.0000000000000000e+00  0.0000000000000000e+00  0.0000000000000000e+00  0.0000000000000000e+00  0.0000000000000000e+00  0.0000000000000000e+00  0.0000000000000000e+00  0.0000000000000000e+00  0.0000000000000000e+00  0.0000000000000000e+00  0.0000000000000000e+00  0.0000000000000000e+00  0.0000000000000000e+00  0.0000000000000000e+00  0.0000000000000000e+00  0.0000000000000000e+00  0.0000000000000000e+00  0.0000000000000000e+00  0.0000000000000000e+00  0.0000000000000000e+00  0.0000000000000000e+00  0.0000000000000000e+00  0.0000000000000000e+00  0.0000000000000000e+00  0.0000000000000000e+00  0.0000000000000000e+00  0.0000000000000000e+00  0.0000000000000000e+00  0.0000000000000000e+00  0.0000000000000000e+00  0.0000000000000000e+00  0.0000000000000000e+00  0.0000000000000000e+00  0.0000000000000000e+00  0.0000000000000000e+00  0.0000000000000000e+00  0.0000000000000000e+00  0.0000000000000000e+00  0.0000000000000000e+00  0.0000000000000000e+00  0.0000000000000000e+00  0.0000000000000000e+00  0.0000000000000000e+00  0.0000000000000000e+00  0.0000000000000000e+00  0.0000000000000000e+00  0.0000000000000000e+00  0.0000000000000000e+00  0.0000000000000000e+00  0.0000000000000000e+00  0.0000000000000000e+00  0.0000000000000000e+00  0.0000000000000000e+00  0.0000000000000000e+00  0.0000000000000000e+00  0.0000000000000000e+00  0.0000000000000000e+00  0.0000000000000000e+00  0.0000000000000000e+00  0.0000000000000000e+00  0.0000000000000000e+00  0.0000000000000000e+00  0.0000000000000000e+00  0.0000000000000000e+00  0.0000000000000000e+00  0.0000000000000000e+00  0.0000000000000000e+00  0.0000000000000000e+00  0.0000000000000000e+00  0.0000000000000000e+00  0.0000000000000000e+00  0.0000000000000000e+00  0.0000000000000000e+00  0.0000000000000000e+00  0.0000000000000000e+00  0.0000000000000000e+00  0.0000000000000000e+00  0.0000000000000000e+00  0.0000000000000000e+00  0.0000000000000000e+00  0.0000000000000000e+00  0.0000000000000000e+00  0.0000000000000000e+00  0.0000000000000000e+00  0.0000000000000000e+00  0.0000000000000000e+00  0.0000000000000000e+00  0.0000000000000000e+00  0.0000000000000000e+00  0.0000000000000000e+00  0.0000000000000000e+00  0.0000000000000000e+00  0.0000000000000000e+00  0.0000000000000000e+00  0.0000000000000000e+00  0.0000000000000000e+00  0.0000000000000000e+00  0.0000000000000000e+00  0.0000000000000000e+00  0.0000000000000000e+00  0.0000000000000000e+00  0.0000000000000000e+00  0.0000000000000000e+00  0.0000000000000000e+00  0.0000000000000000e+00  0.0000000000000000e+00  0.0000000000000000e+00  0.0000000000000000e+00  0.0000000000000000e+00  0.0000000000000000e+00  0.0000000000000000e+00  0.0000000000000000e+00  0.0000000000000000e+00  0.0000000000000000e+00  0.0000000000000000e+00  0.0000000000000000e+00  0.0000000000000000e+00  0.0000000000000000e+00  0.0000000000000000e+00  0.0000000000000000e+00  0.0000000000000000e+00  0.0000000000000000e+00  0.0000000000000000e+00  0.0000000000000000e+00  0.0000000000000000e+00  0.0000000000000000e+00  0.0000000000000000e+00  0.0000000000000000e+00  0.0000000000000000e+00  0.0000000000000000e+00  0.0000000000000000e+00  0.0000000000000000e+00  0.0000000000000000e+00  0.0000000000000000e+00  0.0000000000000000e+00  0.0000000000000000e+00  0.0000000000000000e+00  0.0000000000000000e+00  0.0000000000000000e+00  0.0000000000000000e+00  0.0000000000000000e+00  0.0000000000000000e+00  0.0000000000000000e+00  0.0000000000000000e+00  0.0000000000000000e+00  0.0000000000000000e+00  0.0000000000000000e+00  0.0000000000000000e+00  0.0000000000000000e+00  0.0000000000000000e+00  0.0000000000000000e+00  0.0000000000000000e+00  0.0000000000000000e+00  0.0000000000000000e+00  0.0000000000000000e+00  0.0000000000000000e+00  0.0000000000000000e+00  0.0000000000000000e+00  0.0000000000000000e+00  0.0000000000000000e+00  0.0000000000000000e+00  0.0000000000000000e+00  0.0000000000000000e+00  0.0000000000000000e+00  0.0000000000000000e+00  0.0000000000000000e+00  0.0000000000000000e+00  0.0000000000000000e+00  0.0000000000000000e+00  0.0000000000000000e+00  0.0000000000000000e+00  0.0000000000000000e+00  0.0000000000000000e+00  0.0000000000000000e+00  0.0000000000000000e+00  0.0000000000000000e+00  0.0000000000000000e+00  0.0000000000000000e+00  0.0000000000000000e+00  0.0000000000000000e+00  0.0000000000000000e+00  0.0000000000000000e+00  0.0000000000000000e+00  0.0000000000000000e+00  0.0000000000000000e+00  0.0000000000000000e+00  0.0000000000000000e+00  0.0000000000000000e+00  0.0000000000000000e+00  0.0000000000000000e+00  0.0000000000000000e+00  0.0000000000000000e+00  0.0000000000000000e+00  0.0000000000000000e+00  0.0000000000000000e+00  0.0000000000000000e+00  0.0000000000000000e+00  0.0000000000000000e+00  0.0000000000000000e+00  0.0000000000000000e+00  0.0000000000000000e+00  0.0000000000000000e+00  0.0000000000000000e+00  0.0000000000000000e+00  0.0000000000000000e+00  0.0000000000000000e+00  0.0000000000000000e+00  0.0000000000000000e+00  0.0000000000000000e+00  0.0000000000000000e+00  0.0000000000000000e+00  0.0000000000000000e+00  0.0000000000000000e+00  0.0000000000000000e+00  0.0000000000000000e+00  0.0000000000000000e+00  0.0000000000000000e+00  0.0000000000000000e+00  0.0000000000000000e+00  0.0000000000000000e+00  0.0000000000000000e+00  0.0000000000000000e+00  0.0000000000000000e+00  0.0000000000000000e+00  0.0000000000000000e+00  0.0000000000000000e+00  0.0000000000000000e+00  0.0000000000000000e+00  0.0000000000000000e+00  0.0000000000000000e+00  0.0000000000000000e+00  0.0000000000000000e+00  0.0000000000000000e+00  0.0000000000000000e+00  0.0000000000000000e+00  0.0000000000000000e+00  0.0000000000000000e+00  0.0000000000000000e+00  0.0000000000000000e+00  0.0000000000000000e+00  0.0000000000000000e+00  0.0000000000000000e+00  0.0000000000000000e+00  0.0000000000000000e+00  0.0000000000000000e+00  0.0000000000000000e+00  0.0000000000000000e+00  0.0000000000000000e+00  0.0000000000000000e+00  0.0000000000000000e+00  0.0000000000000000e+00  0.0000000000000000e+00  0.0000000000000000e+00  0.0000000000000000e+00  0.0000000000000000e+00  0.0000000000000000e+00  0.0000000000000000e+00  0.0000000000000000e+00  0.0000000000000000e+00  0.0000000000000000e+00  0.0000000000000000e+00  0.0000000000000000e+00  0.0000000000000000e+00  0.0000000000000000e+00  0.0000000000000000e+00  0.0000000000000000e+00  0.0000000000000000e+00  0.0000000000000000e+00  0.0000000000000000e+00  0.0000000000000000e+00  0.0000000000000000e+00  0.0000000000000000e+00  0.0000000000000000e+00  0.0000000000000000e+00  0.0000000000000000e+00  0.0000000000000000e+00  0.0000000000000000e+00  0.0000000000000000e+00  0.0000000000000000e+00  0.0000000000000000e+00  0.0000000000000000e+00  0.0000000000000000e+00  0.0000000000000000e+00  0.0000000000000000e+00  0.0000000000000000e+00  0.0000000000000000e+00  0.0000000000000000e+00  0.0000000000000000e+00  0.0000000000000000e+00  0.0000000000000000e+00  0.0000000000000000e+00  0.0000000000000000e+00  0.0000000000000000e+00  0.0000000000000000e+00  0.0000000000000000e+00  0.0000000000000000e+00  0.0000000000000000e+00  0.0000000000000000e+00  0.0000000000000000e+00  0.0000000000000000e+00  0.0000000000000000e+00  0.0000000000000000e+00  0.0000000000000000e+00  0.0000000000000000e+00  0.0000000000000000e+00  0.0000000000000000e+00  0.0000000000000000e+00  0.0000000000000000e+00  0.0000000000000000e+00  0.0000000000000000e+00  0.0000000000000000e+00  0.0000000000000000e+00  0.0000000000000000e+00  0.0000000000000000e+00  0.0000000000000000e+00  0.0000000000000000e+00  0.0000000000000000e+00  0.0000000000000000e+00  0.0000000000000000e+00  0.0000000000000000e+00  0.0000000000000000e+00  0.0000000000000000e+00  0.0000000000000000e+00  0.0000000000000000e+00  0.0000000000000000e+00  0.0000000000000000e+00  0.0000000000000000e+00  0.0000000000000000e+00  0.0000000000000000e+00  0.0000000000000000e+00  0.0000000000000000e+00  0.0000000000000000e+00  0.0000000000000000e+00  0.0000000000000000e+00  0.0000000000000000e+00  0.0000000000000000e+00  0.0000000000000000e+00  0.0000000000000000e+00  0.0000000000000000e+00  0.0000000000000000e+00  0.0000000000000000e+00  0.0000000000000000e+00  0.0000000000000000e+00  0.0000000000000000e+00  0.0000000000000000e+00  0.0000000000000000e+00  0.0000000000000000e+00  0.0000000000000000e+00  0.0000000000000000e+00  0.0000000000000000e+00  0.0000000000000000e+00  0.0000000000000000e+00  0.0000000000000000e+00  0.0000000000000000e+00  0.0000000000000000e+00  0.0000000000000000e+00  0.0000000000000000e+00  0.0000000000000000e+00  0.0000000000000000e+00  0.0000000000000000e+00  0.0000000000000000e+00  0.0000000000000000e+00  0.0000000000000000e+00  0.0000000000000000e+00  0.0000000000000000e+00  0.0000000000000000e+00  0.0000000000000000e+00  0.0000000000000000e+00  0.0000000000000000e+00  0.0000000000000000e+00  0.0000000000000000e+00  0.0000000000000000e+00  0.0000000000000000e+00  0.0000000000000000e+00  0.0000000000000000e+00  0.0000000000000000e+00  0.0000000000000000e+00  0.0000000000000000e+00  0.0000000000000000e+00  0.0000000000000000e+00  2.5907185156858566e+02  2.5919531474101291e+02  2.5934424116956473e+02  2.5951654161184348e+02  2.5970588910700633e+02  2.5988034180330698e+02  2.6016372702794160e+02  2.6046273307849106e+02  2.6068196207198031e+02  2.6086083020084681e+02  2.6109189773787654e+02  2.6126663256322894e+02  2.6138875431470802e+02  2.6152544975627040e+02  2.6160588571951445e+02  2.6163828957736962e+02  2.6158786985188897e+02  2.6143047104233369e+02  2.6124929145757625e+02  2.6105761004364757e+02  2.6082539334994851e+02  2.6056779835863694e+02  2.6029057261548604e+02  2.6000407814997612e+02  2.5977675939341862e+02  2.5954750434025306e+02  2.5929879909187531e+02  2.5911726435651224e+02  2.5899797627490995e+02  2.5889809212271825e+02  2.5883775839692203e+02  2.5882351362037622e+02  2.5881148975750352e+02  2.5884108061882870e+02  2.5909911212426078e+02  2.5934549299854285e+02  2.5961479790170898e+02  2.5988226070103076e+02  2.6019826405383361e+02  2.6052570439095041e+02  2.6080377792764284e+02  2.6094699506024136e+02  2.6121898108287547e+02  2.6141032131523571e+02  2.6155818287997033e+02  2.6165230618619745e+02  2.6166328270249642e+02  2.6168297530872417e+02  2.6165936906894831e+02  2.6157240607287548e+02  2.6145481709108952e+02  2.6129109690971416e+02  2.6108132962912572e+02  2.6080055536996019e+02  2.6055809549550611e+02  2.6030507679315167e+02  2.6005211180600435e+02  2.5976393906664572e+02  2.5947953240809460e+02  2.5929227527155984e+02  2.5916545427960500e+02  2.5907273647818619e+02  2.3399071087386223e+00  2.5558201806792420e+00  2.5745180970328563e+00  2.3405006509345019e+00  2.9814195567082731e+00  2.8757324283502079e+00  2.5749218075936593e+00  2.5742413382235241e+00  3.1053750176486199e+00  2.9902926729921688e+00  2.7949858289650757e+00  3.1961064091690918e+00  3.1874666865611534e+00  3.1582248105566615e+00  3.3207308945008185e+00  3.7351122737918461e+00  3.5632087582421210e+00  3.2631917753685511e+00  3.5840988347745109e+00  3.5907406531112183e+00  3.4059677968176061e+00  3.5620553812695301e+00  3.5773298332425654e+00  3.1475421883528987e+00  3.7542458066013333e+00  3.3890281377704508e+00  3.8809674521159354e+00  3.8800362533866264e+00  3.9075059628465860e+00  3.4170129987515963e+00  4.3023608111095646e+00  3.5202911001668902e+00  1.9765366729083169e+00  1.8300906271455055e+00  1.9870314961388658e+00  1.9596253263707650e+00  1.8374724744314832e+00  1.9831333190403024e+00  1.9308194143220818e+00  1.9599560670490825e+00  3.9945013058871339e+00  3.7421263193982699e+00  3.4403549460699678e+00  3.6892895314986749e+00  1.3633037294220238e+00  1.4798378609585878e+00  1.4788290017522021e+00  1.3627996811531080e+00  1.4815129554998983e+00  1.4429481765071348e+00  1.4569439492200822e+00  1.4460214768414896e+00  1.0450249523766293e+00  1.1970168888604005e+00  1.0731747124478319e+00  1.0730836073421075e+00  9.9630054055929451e-01  1.0723591463702979e+00  1.0522518486981522e+00  1.0591907662449995e+00  7.7777423510788568e-01  6.1193919361212734e-01  5.6203767081741973e-01  6.6389699392055945e-01  6.5328080917600384e-01  6.5499076063007733e-01  6.4743858709430546e-01  6.8972101690595655e-01  3.9768442695348423e+00  3.8862014342542368e+00  3.6184137278689361e+00  3.4755735644770964e+00  3.8438651380592326e+00  3.3980511605813692e+00  3.7728720064936914e+00  3.7883879733352468e+00  3.4327486532873448e+00  2.9721549593575167e+00  4.2791436434828096e+00  3.6424565331660763e+00  3.3739342776512000e+00  3.2720162596135398e+00  3.7888170482728913e+00  3.3667162019384769e+00  3.4265342189160788e+00  3.3754531824412006e+00  4.1060212354606964e+00  3.3775537874717174e+00  3.4059456913176329e+00  3.0622971063717492e+00  2.9417933089304280e+00  2.8962807924714644e+00  2.4356058696658427e+00  2.8908848553478159e+00  2.7055746274757264e+00  2.9416531617905850e+00  2.2844574598754450e+00  2.3968361928920685e+00  2.3408718354963538e+00  2.2613873144402654e+00  2.5764238887974029e+00  2.2853753900642730e+00  2.1839988482058788e+00  1.9946849061674830e+00  3.5539470675692342e-01  3.5215287436864462e-01  3.4109062074737861e-01  3.8049794573424189e-01  3.5699071469312998e-01  3.7171081977787779e-01  3.5231745772487810e-01  2.9347290643410023e-01  3.9768450436609544e+00  4.1818957026871715e+00  4.5836416422903179e+00  3.5267588130176413e+00  2.7395949485496844e+00  2.7606120124523867e+00  2.7616568819710641e+00  3.0775296836296460e+00  2.7616247371789107e+00  2.7393160325259394e+00  2.9372836904695756e+00  2.7298989157358067e+00  1.7599209412858452e+00  2.0475271434781854e+00  2.0232613568458380e+00  1.7860531275844320e+00  1.6844998681624261e+00  1.8510550180665679e+00  1.7482399332159517e+00  1.7654718673244447e+00  1.2582643011795447e+00  8.5430174325252894e-01  1.2906377453352236e+00  9.3766679187839663e-01  1.1768048271388778e+00  8.7780213603099577e-01  1.2774940714068002e+00  8.6859396404331457e-01  1.2770526819573453e+00  1.0430628429715063e+00  1.2765969425364192e+00  8.6842396687324142e-01  1.2770890426034167e+00  8.5778655930649372e-01  1.3323218195514583e+00  8.9526028405488334e-01  1.6871154104930655e-01  1.5272673782530255e-01  1.5298101510337514e-01  1.6579042678230813e-01  3.9885300954089233e+00  7.9720442312925153e+00  7.9426875388893601e+00  1.1950219262926648e+01  1.1897277077061833e+01  1.5923244201786842e+01  1.5846377472088401e+01  1.9892231345766479e+01  1.9779765751778033e+01  2.3855479440653529e+01  2.3700713647157816e+01  2.7813063449941705e+01  2.7609869421360408e+01  3.1764901056193747e+01  3.1506448702033641e+01  3.5710355509533009e+01  3.5386149421119342e+01  3.9647730272217203e+01  3.9258377003491965e+01  4.3569439750184536e+01  4.3110563563499440e+01  4.3986542686732697e+01  4.7494335934642905e+01  4.6943180666247095e+01  5.1409047469840729e+01  5.0762325631798447e+01  5.5294807165216611e+01  5.4553616695208284e+01  5.9166065347777000e+01  5.8318143432414836e+01  6.3009957372197945e+01  6.2050933667635320e+01  6.3902523607098331e+01  6.6820972411755704e+01  6.5747062505253709e+01  7.0613465204614783e+01  6.9404501794916413e+01  7.4375531051070311e+01  7.3013294601481363e+01  7.8083195381640721e+01  7.6574248835972185e+01  8.1737758247289648e+01  8.0071349711390880e+01  8.3322073886529012e+01  8.5331304455658284e+01  8.3500255395882007e+01  8.8856032056963514e+01  8.6846424842641127e+01  8.1547939636814377e+01  8.4737390246627655e+01  9.0108461329556803e+01  8.7845802497272814e+01  8.2585775322500496e+01  8.5519892514455861e+01  8.0391393726251266e+01  8.3142406228224530e+01  8.8334250644450734e+01  8.5778559668165002e+01  8.0712981049945668e+01  8.3179081810134221e+01  7.8242910588904508e+01  8.0543625258021635e+01  8.5523106020752351e+01  8.2719501129583080e+01  7.7879082011866473e+01  7.9892322903967624e+01  8.4763167640011943e+01  8.1772238269783216e+01  7.7047531218029675e+01  7.8769428956069206e+01  8.3512110924396765e+01  8.0351410104280404e+01  8.5105515759015333e+01  7.4190566504185369e+01  8.1787661380886092e+01  8.6546051602963956e+01  8.3072731625713573e+01  8.7828021637429188e+01  8.4201593612391193e+01  8.8946099125485091e+01  8.5169843158127989e+01  8.9895055151629322e+01  8.0595769315777105e+01  8.5973110562582733e+01  9.0670897388426070e+01  8.6608064413219410e+01  9.1270136387779644e+01  8.7072215217179433e+01  9.1690034497745202e+01  8.7363359507528088e+01  9.1928916022721410e+01  8.7480645093810423e+01  9.1985691761312196e+01  8.7423595719675504e+01  9.1860613861367483e+01  8.3094030855519165e+01  9.2747806087827584e+01  2.1495239294677296e+02  8.7192464689363163e+01  9.1554787248061871e+01  8.6789776990258858e+01  9.1070238092300286e+01  2.1913082789137829e+02  8.6217502227881781e+01  9.0410100096676729e+01  2.1426845012189924e+02  8.5479022002482537e+01  8.9578384794913177e+01  9.4682151489625809e+01  9.3746991149591310e+01  8.8579848559032811e+01  9.2640451964156739e+01  9.6443292024315411e+01  8.1454410307351395e+01  8.7420677522916066e+01  9.1369666498234778e+01  9.6753257656329581e+01  9.5359473860871447e+01  8.9940661630065762e+01  9.3805460041241460e+01  9.9382135526020591e+01  9.7692054721966542e+01  9.2099559997210392e+01  9.5849331228236679e+01  1.0159078546332545e+02  9.9600492934165842e+01  9.3863825971257370e+01  9.7467034345865159e+01  1.0335234772815404e+02  1.0105618225489965e+02  9.5203972786154381e+01  9.8631229357730291e+01  1.0460486358556327e+02  1.0201524122964865e+02  9.6094166588221952e+01  9.9317580184862265e+01  1.0534263082972758e+02  1.0247675259205707e+02  1.0859987205644445e+02  1.0555788000358488e+02  9.9516578490895938e+01  1.0242757150477280e+02  1.0854636579058624e+02  1.0524036456984572e+02  9.9223278317188843e+01  1.0186796594047605e+02  1.0794106111281572e+02  1.0439623882329563e+02  1.1051492659793109e+02  1.0679450689470215e+02  1.1294771199030757e+02  1.0904968924181786e+02  1.0304073946037852e+02  1.0512891283404691e+02  1.1114866216589927e+02  1.0706061056091919e+02  1.1307855867953246e+02  1.0882421223282371e+02  1.1482712509147133e+02  1.1040855462513660e+02  1.1638266714629435e+02  1.1180329548440194e+02  1.0601740030142417e+02  1.0726462156803885e+02  1.1299919892538119e+02  1.0832054004354629e+02  1.1398542020743699e+02  1.0917283356302907e+02  1.1475841041111786e+02  1.0981718915155157e+02  1.1532077160059551e+02  1.1024885342524645e+02  1.1564857676037275e+02  1.1046750675738282e+02  1.1573841195180520e+02  1.1046479883203254e+02  1.1560368247153082e+02  1.1024373953400281e+02  1.1526723937480330e+02  1.0980933011643793e+02  1.1468020898061965e+02  1.0915691248570148e+02  1.1383348462413038e+02  1.0828392768617375e+02  1.1278950416422637e+02  1.0720740235516134e+02  1.1153909412007896e+02  1.0290613323893912e+02  1.0180322463035368e+02  9.7699209656600871e+01  9.6574015835945502e+01  9.2659555581884774e+01  9.1518213725502434e+01  8.7783949259067597e+01  8.6630323694014606e+01  8.3067782441717355e+01  8.1905750865537868e+01  8.5315606462001796e+01  7.8506985798984289e+01  1.0443564310341809e+02  8.0589890240358997e+01  8.3845059933163057e+01  7.9126634541206712e+01  8.2224696996660327e+01  7.7519026324335499e+01  8.0460328813125841e+01  7.5772249814336874e+01  7.8558174022360362e+01  7.3894762325121647e+01  7.1246523713494042e+01  7.6525266029293178e+01  6.9393290818183260e+01  6.6877437308387115e+01  6.5047342349546284e+01  6.2659095177871649e