<?xml version="1.0"?>
<VTKFile type="UnstructuredGrid"  version="0.1"  >
<UnstructuredGrid>
<Piece  NumberOfPoints="11902" NumberOfCells="23402">
<Points>
<DataArray  type="Float64"  NumberOfComponents="3"  format="ascii">-5 -5 0  5 -5 0  5 5 0  -5 5 0  1.978428244985365 0.01379494259711613 0  -4.9 -5 0  -4.8 -5 0  -4.7 -5 0  -4.6 -5 0  -4.5 -5 0  -4.4 -5 0  -4.3 -5 0  -4.2 -5 0  -4.1 -5 0  -4 -5 0  -3.9 -5 0  -3.8 -5 0  -3.7 -5 0  -3.6 -5 0  -3.5 -5 0  -3.4 -5 0  -3.3 -5 0  -3.2 -5 0  -3.1 -5 0  -3 -5 0  -2.9 -5 0  -2.8 -5 0  -2.7 -5 0  -2.6 -5 0  -2.5 -5 0  -2.4 -5 0  -2.3 -5 0  -2.2 -5 0  -2.1 -5 0  -2 -5 0  -1.9 -5 0  -1.8 -5 0  -1.7 -5 0  -1.6 -5 0  -1.5 -5 0  -1.4 -5 0  -1.3 -5 0  -1.2 -5 0  -1.1 -5 0  -1 -5 0  -0.9000000000000004 -5 0  -0.7999999999999998 -5 0  -0.7000000000000002 -5 0  -0.5999999999999996 -5 0  -0.5 -5 0  -0.4000000000000004 -5 0  -0.2999999999999998 -5 0  -0.2000000000000002 -5 0  -0.09999999999999964 -5 0  0 -5 0  0.09999999999999964 -5 0  0.2000000000000002 -5 0  0.2999999999999998 -5 0  0.4000000000000004 -5 0  0.5 -5 0  0.5999999999999996 -5 0  0.7000000000000002 -5 0  0.7999999999999998 -5 0  0.9000000000000004 -5 0  1 -5 0  1.1 -5 0  1.2 -5 0  1.3 -5 0  1.4 -5 0  1.5 -5 0  1.6 -5 0  1.7 -5 0  1.8 -5 0  1.9 -5 0  2 -5 0  2.1 -5 0  2.2 -5 0  2.3 -5 0  2.4 -5 0  2.5 -5 0  2.6 -5 0  2.7 -5 0  2.8 -5 0  2.9 -5 0  3 -5 0  3.1 -5 0  3.199999999999999 -5 0  3.300000000000001 -5 0  3.4 -5 0  3.5 -5 0  3.6 -5 0  3.699999999999999 -5 0  3.800000000000001 -5 0  3.9 -5 0  4 -5 0  4.1 -5 0  4.199999999999999 -5 0  4.300000000000001 -5 0  4.4 -5 0  4.5 -5 0  4.6 -5 0  4.699999999999999 -5 0  4.800000000000001 -5 0  4.9 -5 0  5 -4.9 0  5 -4.8 0  5 -4.7 0  5 -4.6 0  5 -4.5 0  5 -4.4 0  5 -4.3 0  5 -4.2 0  5 -4.1 0  5 -4 0  5 -3.9 0  5 -3.8 0  5 -3.7 0  5 -3.6 0  5 -3.5 0  5 -3.4 0  5 -3.3 0  5 -3.2 0  5 -3.1 0  5 -3 0  5 -2.9 0  5 -2.8 0  5 -2.7 0  5 -2.6 0  5 -2.5 0  5 -2.4 0  5 -2.3 0  5 -2.2 0  5 -2.1 0  5 -2 0  5 -1.9 0  5 -1.8 0  5 -1.7 0  5 -1.6 0  5 -1.5 0  5 -1.4 0  5 -1.3 0  5 -1.2 0  5 -1.1 0  5 -1 0  5 -0.9000000000000004 0  5 -0.7999999999999998 0  5 -0.7000000000000002 0  5 -0.5999999999999996 0  5 -0.5 0  5 -0.4000000000000004 0  5 -0.2999999999999998 0  5 -0.2000000000000002 0  5 -0.09999999999999964 0  5 0 0  5 0.09999999999999964 0  5 0.2000000000000002 0  5 0.2999999999999998 0  5 0.4000000000000004 0  5 0.5 0  5 0.5999999999999996 0  5 0.7000000000000002 0  5 0.7999999999999998 0  5 0.9000000000000004 0  5 1 0  5 1.1 0  5 1.2 0  5 1.3 0  5 1.4 0  5 1.5 0  5 1.6 0  5 1.7 0  5 1.8 0  5 1.9 0  5 2 0  5 2.1 0  5 2.2 0  5 2.3 0  5 2.4 0  5 2.5 0  5 2.6 0  5 2.7 0  5 2.8 0  5 2.9 0  5 3 0  5 3.1 0  5 3.199999999999999 0  5 3.300000000000001 0  5 3.4 0  5 3.5 0  5 3.6 0  5 3.699999999999999 0  5 3.800000000000001 0  5 3.9 0  5 4 0  5 4.1 0  5 4.199999999999999 0  5 4.300000000000001 0  5 4.4 0  5 4.5 0  5 4.6 0  5 4.699999999999999 0  5 4.800000000000001 0  5 4.9 0  4.9 5 0  4.8 5 0  4.7 5 0  4.6 5 0  4.5 5 0  4.4 5 0  4.3 5 0  4.2 5 0  4.1 5 0  4 5 0  3.9 5 0  3.8 5 0  3.7 5 0  3.6 5 0  3.5 5 0  3.4 5 0  3.3 5 0  3.2 5 0  3.1 5 0  3 5 0  2.9 5 0  2.8 5 0  2.7 5 0  2.6 5 0  2.5 5 0  2.4 5 0  2.3 5 0  2.2 5 0  2.1 5 0  2 5 0  1.9 5 0  1.8 5 0  1.7 5 0  1.6 5 0  1.5 5 0  1.4 5 0  1.3 5 0  1.2 5 0  1.1 5 0  1 5 0  0.9000000000000004 5 0  0.7999999999999998 5 0  0.7000000000000002 5 0  0.5999999999999996 5 0  0.5 5 0  0.4000000000000004 5 0  0.2999999999999998 5 0  0.2000000000000002 5 0  0.09999999999999964 5 0  0 5 0  -0.09999999999999964 5 0  -0.2000000000000002 5 0  -0.2999999999999998 5 0  -0.4000000000000004 5 0  -0.5 5 0  -0.5999999999999996 5 0  -0.7000000000000002 5 0  -0.7999999999999998 5 0  -0.9000000000000004 5 0  -1 5 0  -1.1 5 0  -1.2 5 0  -1.3 5 0  -1.4 5 0  -1.5 5 0  -1.6 5 0  -1.7 5 0  -1.8 5 0  -1.9 5 0  -2 5 0  -2.1 5 0  -2.2 5 0  -2.3 5 0  -2.4 5 0  -2.5 5 0  -2.6 5 0  -2.7 5 0  -2.8 5 0  -2.9 5 0  -3 5 0  -3.1 5 0  -3.199999999999999 5 0  -3.300000000000001 5 0  -3.4 5 0  -3.5 5 0  -3.6 5 0  -3.699999999999999 5 0  -3.800000000000001 5 0  -3.9 5 0  -4 5 0  -4.1 5 0  -4.199999999999999 5 0  -4.300000000000001 5 0  -4.4 5 0  -4.5 5 0  -4.6 5 0  -4.699999999999999 5 0  -4.800000000000001 5 0  -4.9 5 0  -5 4.9 0  -5 4.8 0  -5 4.7 0  -5 4.6 0  -5 4.5 0  -5 4.4 0  -5 4.3 0  -5 4.2 0  -5 4.1 0  -5 4 0  -5 3.9 0  -5 3.8 0  -5 3.7 0  -5 3.6 0  -5 3.5 0  -5 3.4 0  -5 3.3 0  -5 3.2 0  -5 3.1 0  -5 3 0  -5 2.9 0  -5 2.8 0  -5 2.7 0  -5 2.6 0  -5 2.5 0  -5 2.4 0  -5 2.3 0  -5 2.2 0  -5 2.1 0  -5 2 0  -5 1.9 0  -5 1.8 0  -5 1.7 0  -5 1.6 0  -5 1.5 0  -5 1.4 0  -5 1.3 0  -5 1.2 0  -5 1.1 0  -5 1 0  -5 0.9000000000000004 0  -5 0.7999999999999998 0  -5 0.7000000000000002 0  -5 0.5999999999999996 0  -5 0.5 0  -5 0.4000000000000004 0  -5 0.2999999999999998 0  -5 0.2000000000000002 0  -5 0.09999999999999964 0  -5 0 0  -5 -0.09999999999999964 0  -5 -0.2000000000000002 0  -5 -0.2999999999999998 0  -5 -0.4000000000000004 0  -5 -0.5 0  -5 -0.5999999999999996 0  -5 -0.7000000000000002 0  -5 -0.7999999999999998 0  -5 -0.9000000000000004 0  -5 -1 0  -5 -1.1 0  -5 -1.2 0  -5 -1.3 0  -5 -1.4 0  -5 -1.5 0  -5 -1.6 0  -5 -1.7 0  -5 -1.8 0  -5 -1.9 0  -5 -2 0  -5 -2.1 0  -5 -2.2 0  -5 -2.3 0  -5 -2.4 0  -5 -2.5 0  -5 -2.6 0  -5 -2.7 0  -5 -2.8 0  -5 -2.9 0  -5 -3 0  -5 -3.1 0  -5 -3.199999999999999 0  -5 -3.300000000000001 0  -5 -3.4 0  -5 -3.5 0  -5 -3.6 0  -5 -3.699999999999999 0  -5 -3.800000000000001 0  -5 -3.9 0  -5 -4 0  -5 -4.1 0  -5 -4.199999999999999 0  -5 -4.300000000000001 0  -5 -4.4 0  -5 -4.5 0  -5 -4.6 0  -5 -4.699999999999999 0  -5 -4.800000000000001 0  -5 -4.9 0  2.202950403106598 0.235394314636416 0  1.931093456586907 0.3740842951234889 0  2.170829849903655 0.6379402130300228 0  1.756391078867298 0.6779881867171635 0  1.725169338324308 0.9025173020539013 0  1.514378188909252 0.9902124934488279 0  1.448979875023234 1.179518676572935 0  1.189436914173991 1.110893709954883 0  1.104045865091742 1.316756030334607 0  0.9410604699170636 1.420892829090778 0  0.7721173877570757 1.434177987713374 0  0.6294933182969775 1.482783239133127 0  0.4514107490154531 1.56320132417394 0  0.2893168909233216 1.586496369322377 0  0.1307817971508486 1.629195635335446 0  -0.02108106382594966 1.619737910349258 0  -0.2247837108378605 1.586233814419583 0  -0.3877281760147859 1.587125258845727 0  -0.5343241963930969 1.536047177890881 0  -0.6909701983440605 1.45812815332308 0  -0.8648048719947646 1.432922460249486 0  -1.008535795836112 1.321015760741656 0  -1.165137850299397 1.232223831199651 0  -1.40256539064239 1.24017087701243 0  -1.33315287471461 0.9607402716105569 0  -1.62637964133127 0.9692632635885456 0  -1.827392482082083 0.8549443450218082 0  -1.817309867642715 0.6549131569115227 0  -2.017211672302232 0.5178701997211864 0  -2.093157260943615 0.2950325926895828 0  -2.138964808999152 0.08573303472281399 0  -1.917976928060827 -0.1360654553876527 0  -2.296475538472699 -0.3572981319952939 0  -1.935022389347854 -0.4388991691407726 0  -1.823843224846649 -0.6467637576015414 0  -1.86271891402471 -0.8670835945473443 0  -1.513448539244764 -0.8641794152341877 0  -1.499624111645832 -1.073351497493588 0  -1.347911791564997 -1.194642680195536 0  -1.150711538305483 -1.21831236142973 0  -1.014560940943953 -1.347912207397689 0  -0.856668606265042 -1.449682261822632 0  -0.6946809898996847 -1.488257171391329 0  -0.5271670432371217 -1.528368119308554 0  -0.3765652073213172 -1.600545276083866 0  -0.2098644168927238 -1.595216035609581 0  -0.04620854273783052 -1.620755571347465 0  0.1380882070979189 -1.613905999282266 0  0.2885329536550673 -1.606178263233156 0  0.4608794201206263 -1.572183960774497 0  0.6147407514630089 -1.516079413689192 0  0.7705260429822011 -1.415913939282079 0  0.9468134892200856 -1.421776288594044 0  1.10316971691554 -1.305928293522349 0  1.270382047790028 -1.25303645280642 0  1.387398730537815 -1.112953614769369 0  1.520309197256227 -0.9792906880420951 0  1.726797611325473 -0.8938166998771684 0  1.827610608482712 -0.748923888806355 0  1.905846920525628 -0.5580204039763255 0  2.106448826601421 -0.4144917793054574 0  2.098949377048686 -0.2049835510375396 0  -2.44980122931313 4.920143583596341 0  -2.449768243789407 -4.912701512880127 0  4.911583627330153 2.448617397673281 0  4.919606441091577 -2.449947027812576 0  2.447692715096267 -4.898298503199268 0  2.442079344274378 4.902029403965943 0  -4.911616059975587 -2.448628161587467 0  -4.911655638331117 2.448633363294817 0  -1.74999725084094 4.914119518416198 0  -1.745703984299291 -4.917414751566881 0  4.921486194463509 1.74435116499033 0  4.910129036238332 -1.748276522565246 0  -4.910445507424209 -1.747965516083587 0  -4.911297863761163 1.74770585373986 0  1.747371811041569 4.908184889777141 0  1.748946090913342 -4.896707801144078 0  -1.150121512478178 4.91278562314887 0  -1.130852632019275 -4.920281690218124 0  -4.909753658125557 -1.147984554334337 0  -4.909598325067641 1.147776567790968 0  1.14502352300938 -4.916656713936435 0  1.150128780565187 4.912752481068424 0  4.909888023193225 1.146259191282887 0  4.920639595834112 -1.151930928262777 0  -0.5473644570428684 -4.914420138030281 0  -0.5470785783272708 4.922741933060824 0  -4.908002668078364 -0.5486393247255346 0  -4.908041375368578 0.5471760903098959 0  4.90725557452767 -0.5489607655854151 0  4.918930097255981 0.5456610351496309 0  0.543254569384384 -4.901932217089255 0  0.5518321598279075 4.919718620270847 0  -4.912924082951982 -3.049037489499649 0  4.919432501411613 3.046982913145976 0  4.912439864221704 -3.049026791210492 0  -4.913792871281583 3.046116739011392 0  3.056260644720528 -4.918845377798815 0  -3.049639134437427 -4.912803941198931 0  3.053192959757267 4.914910867767012 0  -3.049115701194167 4.913748753141634 0  -4.906907598159586 -0.04990530367944827 0  0.04517622953519704 -4.916457857881983 0  0.04962369472405845 4.92317607636781 0  4.91393306551927 -0.05129232168360626 0  3.546287683512151 -4.919998761857317 0  -3.549641864783036 4.913024927185268 0  -3.549612537042684 -4.913037221736252
[...]
<PointData  Scalars="f_23"> 
<DataArray  type="Float64"  Name="f_23"  format="ascii">0.0000000000000000e+00  0.0000000000000000e+00  0.0000000000000000e+00  0.0000000000000000e+00  2.0593425028368179e+02  0.0000000000000000e+00  0.0000000000000000e+00  0.0000000000000000e+00  0.0000000000000000e+00  0.0000000000000000e+00  0.0000000000000000e+00  0.0000000000000000e+00  0.0000000000000000e+00  0.0000000000000000e+00  0.0000000000000000e+00  0.0000000000000000e+00  0.0000000000000000e+00  0.0000000000000000e+00  0.0000000000000000e+00  0.0000000000000000e+00  0.0000000000000000e+00  0.0000000000000000e+00  0.0000000000000000e+00  0.0000000000000000e+00  0.0000000000000000e+00  0.0000000000000000e+00  0.0000000000000000e+00  0.0000000000000000e+00  0.0000000000000000e+00  0.0000000000000000e+00  0.0000000000000000e+00  0.0000000000000000e+00  0.0000000000000000e+00  0.0000000000000000e+00  0.0000000000000000e+00  0.0000000000000000e+00  0.0000000000000000e+00  0.0000000000000000e+00  0.0000000000000000e+00  0.0000000000000000e+00  0.0000000000000000e+00  0.0000000000000000e+00  0.0000000000000000e+00  0.0000000000000000e+00  0.0000000000000000e+00  0.0000000000000000e+00  0.0000000000000000e+00  0.0000000000000000e+00  0.0000000000000000e+00  0.0000000000000000e+00  0.0000000000000000e+00  0.0000000000000000e+00  0.0000000000000000e+00  0.0000000000000000e+00  0.0000000000000000e+00  0.0000000000000000e+00  0.0000000000000000e+00  0.0000000000000000e+00  0.0000000000000000e+00  0.0000000000000000e+00  0.0000000000000000e+00  0.0000000000000000e+00  0.0000000000000000e+00  0.0000000000000000e+00  0.0000000000000000e+00  0.0000000000000000e+00  0.0000000000000000e+00  0.0000000000000000e+00  0.0000000000000000e+00  0.0000000000000000e+00  0.0000000000000000e+00  0.0000000000000000e+00  0.0000000000000000e+00  0.0000000000000000e+00  0.0000000000000000e+00  0.0000000000000000e+00  0.0000000000000000e+00  0.0000000000000000e+00  0.0000000000000000e+00  0.0000000000000000e+00  0.0000000000000000e+00  0.0000000000000000e+00  0.0000000000000000e+00  0.0000000000000000e+00  0.0000000000000000e+00  0.0000000000000000e+00  0.0000000000000000e+00  0.0000000000000000e+00  0.0000000000000000e+00  0.0000000000000000e+00  0.0000000000000000e+00  0.0000000000000000e+00  0.0000000000000000e+00  0.0000000000000000e+00  0.0000000000000000e+00  0.0000000000000000e+00  0.0000000000000000e+00  0.0000000000000000e+00  0.0000000000000000e+00  0.0000000000000000e+00  0.0000000000000000e+00  0.0000000000000000e+00  0.0000000000000000e+00  0.0000000000000000e+00  0.0000000000000000e+00  0.0000000000000000e+00  0.0000000000000000e+00  0.0000000000000000e+00  0.0000000000000000e+00  0.0000000000000000e+00  0.0000000000000000e+00  0.0000000000000000e+00  0.0000000000000000e+00  0.0000000000000000e+00  0.0000000000000000e+00  0.0000000000000000e+00  0.0000000000000000e+00  0.0000000000000000e+00  0.0000000000000000e+00  0.0000000000000000e+00  0.0000000000000000e+00  0.0000000000000000e+00  0.0000000000000000e+00  0.0000000000000000e+00  0.0000000000000000e+00  0.0000000000000000e+00  0.0000000000000000e+00  0.0000000000000000e+00  0.0000000000000000e+00  0.0000000000000000e+00  0.0000000000000000e+00  0.0000000000000000e+00  0.0000000000000000e+00  0.0000000000000000e+00  0.0000000000000000e+00  0.0000000000000000e+00  0.0000000000000000e+00  0.0000000000000000e+00  0.0000000000000000e+00  0.0000000000000000e+00  0.0000000000000000e+00  0.0000000000000000e+00  0.0000000000000000e+00  0.0000000000000000e+00  0.0000000000000000e+00  0.0000000000000000e+00  0.0000000000000000e+00  0.0000000000000000e+00  0.0000000000000000e+00  0.0000000000000000e+00  0.0000000000000000e+00  0.0000000000000000e+00  0.0000000000000000e+00  0.0000000000000000e+00  0.0000000000000000e+00  0.0000000000000000e+00  0.0000000000000000e+00  0.0000000000000000e+00  0.0000000000000000e+00  0.0000000000000000e+00  0.0000000000000000e+00  0.0000000000000000e+00  0.0000000000000000e+00  0.0000000000000000e+00  0.0000000000000000e+00  0.0000000000000000e+00  0.0000000000000000e+00  0.0000000000000000e+00  0.0000000000000000e+00  0.0000000000000000e+00  0.0000000000000000e+00  0.0000000000000000e+00  0.0000000000000000e+00  0.0000000000000000e+00  0.0000000000000000e+00  0.0000000000000000e+00  0.0000000000000000e+00  0.0000000000000000e+00  0.0000000000000000e+00  0.0000000000000000e+00  0.0000000000000000e+00  0.0000000000000000e+00  0.0000000000000000e+00  0.0000000000000000e+00  0.0000000000000000e+00  0.0000000000000000e+00  0.0000000000000000e+00  0.0000000000000000e+00  0.0000000000000000e+00  0.0000000000000000e+00  0.0000000000000000e+00  0.0000000000000000e+00  0.0000000000000000e+00  0.0000000000000000e+00  0.0000000000000000e+00  0.0000000000000000e+00  0.0000000000000000e+00  0.0000000000000000e+00  0.0000000000000000e+00  0.0000000000000000e+00  0.0000000000000000e+00  0.0000000000000000e+00  0.0000000000000000e+00  0.0000000000000000e+00  0.0000000000000000e+00  0.0000000000000000e+00  0.0000000000000000e+00  0.0000000000000000e+00  0.0000000000000000e+00  0.0000000000000000e+00  0.0000000000000000e+00  0.0000000000000000e+00  0.0000000000000000e+00  0.0000000000000000e+00  0.0000000000000000e+00  0.0000000000000000e+00  0.0000000000000000e+00  0.0000000000000000e+00  0.0000000000000000e+00  0.0000000000000000e+00  0.0000000000000000e+00  0.0000000000000000e+00  0.0000000000000000e+00  0.0000000000000000e+00  0.0000000000000000e+00  0.0000000000000000e+00  0.0000000000000000e+00  0.0000000000000000e+00  0.0000000000000000e+00  0.0000000000000000e+00  0.0000000000000000e+00  0.0000000000000000e+00  0.0000000000000000e+00  0.0000000000000000e+00  0.0000000000000000e+00  0.0000000000000000e+00  0.0000000000000000e+00  0.0000000000000000e+00  0.0000000000000000e+00  0.0000000000000000e+00  0.0000000000000000e+00  0.0000000000000000e+00  0.0000000000000000e+00  0.0000000000000000e+00  0.0000000000000000e+00  0.0000000000000000e+00  0.0000000000000000e+00  0.0000000000000000e+00  0.0000000000000000e+00  0.0000000000000000e+00  0.0000000000000000e+00  0.0000000000000000e+00  0.0000000000000000e+00  0.0000000000000000e+00  0.0000000000000000e+00  0.0000000000000000e+00  0.0000000000000000e+00  0.0000000000000000e+00  0.0000000000000000e+00  0.0000000000000000e+00  0.0000000000000000e+00  0.0000000000000000e+00  0.0000000000000000e+00  0.0000000000000000e+00  0.0000000000000000e+00  0.0000000000000000e+00  0.0000000000000000e+00  0.0000000000000000e+00  0.0000000000000000e+00  0.0000000000000000e+00  0.0000000000000000e+00  0.0000000000000000e+00  0.0000000000000000e+00  0.0000000000000000e+00  0.0000000000000000e+00  0.0000000000000000e+00  0.0000000000000000e+00  0.0000000000000000e+00  0.0000000000000000e+00  0.0000000000000000e+00  0.0000000000000000e+00  0.0000000000000000e+00  0.0000000000000000e+00  0.0000000000000000e+00  0.0000000000000000e+00  0.0000000000000000e+00  0.0000000000000000e+00  0.0000000000000000e+00  0.0000000000000000e+00  0.0000000000000000e+00  0.0000000000000000e+00  0.0000000000000000e+00  0.0000000000000000e+00  0.0000000000000000e+00  0.0000000000000000e+00  0.0000000000000000e+00  0.0000000000000000e+00  0.0000000000000000e+00  0.0000000000000000e+00  0.0000000000000000e+00  0.0000000000000000e+00  0.0000000000000000e+00  0.0000000000000000e+00  0.0000000000000000e+00  0.0000000000000000e+00  0.0000000000000000e+00  0.0000000000000000e+00  0.0000000000000000e+00  0.0000000000000000e+00  0.0000000000000000e+00  0.0000000000000000e+00  0.0000000000000000e+00  0.0000000000000000e+00  0.0000000000000000e+00  0.0000000000000000e+00  0.0000000000000000e+00  0.0000000000000000e+00  0.0000000000000000e+00  0.0000000000000000e+00  0.0000000000000000e+00  0.0000000000000000e+00  0.0000000000000000e+00  0.0000000000000000e+00  0.0000000000000000e+00  0.0000000000000000e+00  0.0000000000000000e+00  0.0000000000000000e+00  0.0000000000000000e+00  0.0000000000000000e+00  0.0000000000000000e+00  0.0000000000000000e+00  0.0000000000000000e+00  0.0000000000000000e+00  0.0000000000000000e+00  0.0000000000000000e+00  0.0000000000000000e+00  0.0000000000000000e+00  0.0000000000000000e+00  0.0000000000000000e+00  0.0000000000000000e+00  0.0000000000000000e+00  0.0000000000000000e+00  0.0000000000000000e+00  0.0000000000000000e+00  0.0000000000000000e+00  0.0000000000000000e+00  0.0000000000000000e+00  0.0000000000000000e+00  0.0000000000000000e+00  0.0000000000000000e+00  0.0000000000000000e+00  0.0000000000000000e+00  0.0000000000000000e+00  0.0000000000000000e+00  0.0000000000000000e+00  0.0000000000000000e+00  0.0000000000000000e+00  0.0000000000000000e+00  0.0000000000000000e+00  0.0000000000000000e+00  0.0000000000000000e+00  0.0000000000000000e+00  0.0000000000000000e+00  0.0000000000000000e+00  0.0000000000000000e+00  0.0000000000000000e+00  0.0000000000000000e+00  0.0000000000000000e+00  0.0000000000000000e+00  0.0000000000000000e+00  0.0000000000000000e+00  0.0000000000000000e+00  0.0000000000000000e+00  0.0000000000000000e+00  0.0000000000000000e+00  0.0000000000000000e+00  0.0000000000000000e+00  0.0000000000000000e+00  0.0000000000000000e+00  0.0000000000000000e+00  0.0000000000000000e+00  0.0000000000000000e+00  0.0000000000000000e+00  0.0000000000000000e+00  0.0000000000000000e+00  0.0000000000000000e+00  0.0000000000000000e+00  0.0000000000000000e+00  0.0000000000000000e+00  0.0000000000000000e+00  0.0000000000000000e+00  0.0000000000000000e+00  0.0000000000000000e+00  0.0000000000000000e+00  0.0000000000000000e+00  0.0000000000000000e+00  0.0000000000000000e+00  0.0000000000000000e+00  0.0000000000000000e+00  0.0000000000000000e+00  0.0000000000000000e+00  2.0520372570490318e+02  2.0738547436645712e+02  2.0257835931695018e+02  2.0783100457622493e+02  2.0590396459874222e+02  2.0615074360064358e+02  2.0370611269760690e+02  2.0531340085690957e+02  2.0126718891602690e+02  2.0132708396342522e+02  2.0190479407568120e+02  2.0085514015515855e+02  1.9953474439666513e+02  1.9931174549354233e+02  1.9886366206926408e+02  1.9956439832303906e+02  2.0018949823095380e+02  1.9940041727458095e+02  1.9968125677778130e+02  2.0081977416455422e+02  2.0092793474685919e+02  2.0236458665999351e+02  2.0390350336252487e+02  2.0125316696434189e+02  2.0429673723620044e+02  2.0479624441148661e+02  2.0612438939941092e+02  2.0655225409873364e+02  2.0623331811230807e+02  2.0648337889263075e+02  2.0588219439077872e+02  2.0646063424906970e+02  2.0389551319756706e+02  2.0664517598501953e+02  2.0550320725672844e+02  2.0206993902942079e+02  2.0668765455733779e+02  2.0392037122327574e+02  2.0301926626961765e+02  2.0323977324646037e+02  2.0003478897558534e+02  2.0021522366479286e+02  2.0008394080487162e+02  1.9943209440758889e+02  1.9858066628672887e+02  1.9918424252954665e+02  1.9899543803367752e+02  1.9917507042879811e+02  1.9898533718149255e+02  1.9920968575603885e+02  1.9975149051300409e+02  2.0181822082949722e+02  2.0103330344184931e+02  2.0227352916104314e+02  2.0183105342382058e+02  2.0320407923429775e+02  2.0428533696570977e+02  2.0389398986449328e+02  2.0452878486965253e+02  2.0541778287342638e+02  2.0478490861133969e+02  2.0485344829481113e+02  2.2369254041309969e+00  2.4348740338311687e+00  2.5058294875393363e+00  2.2594958048424343e+00  2.8296960033687011e+00  2.7489493187152361e+00  2.5007400794426298e+00  2.5022227673900184e+00  2.9602507627841095e+00  2.8401650491132755e+00  2.7570194086039366e+00  3.1308627537719569e+00  3.1393407019785373e+00  3.1113479359635368e+00  3.1669438923325699e+00  3.5378959470387374e+00  3.3858914726708509e+00  3.0892781214814198e+00  3.5798600685554249e+00  3.5863393379171766e+00  3.2181524734108060e+00  3.3858817710068938e+00  3.5751618753048606e+00  3.1291031043872484e+00  3.5437119963522967e+00  3.2121079364840299e+00  3.9222201813244486e+00  3.9207665304782493e+00  3.9381073028162588e+00  3.4527566902574698e+00  4.0577311298358589e+00  3.3369913687559092e+00  1.9034134810475021e+00  1.7666044659767979e+00  1.9021539795069489e+00  1.8899415208449302e+00  1.7441241834419590e+00  1.8931444381439839e+00  1.8484723031836661e+00  1.8751580867798532e+00  4.0538165340764687e+00  3.5276196269763966e+00  3.2582168709924684e+00  3.7378502501229365e+00  1.2951915575928663e+00  1.4161940366137213e+00  1.4111088438841708e+00  1.3099111771819230e+00  1.4200776359722012e+00  1.3750896701719608e+00  1.3990611364545735e+00  1.3847364502468771e+00  9.9348409602603238e-01  1.1432045184235105e+00  1.0188566793207785e+00  1.0260620127861639e+00  9.5279774995650102e-01  1.0282554369639996e+00  1.0076189879216475e+00  1.0148924579812324e+00  7.3818731214307443e-01  5.8525476191570880e-01  5.3616593951891323e-01  6.3568640413139954e-01  6.2014724173597224e-01  6.2530900080900620e-01  6.1951370268777362e-01  6.6002159746323241e-01  4.0322402440554184e+00  3.6647976482386695e+00  3.4273347205256486e+00  3.5211202492960991e+00  3.6475724764606872e+00  3.3700483186488359e+00  3.7926458108161825e+00  3.8087180249590080e+00  3.4053234237608216e+00  2.8116126317661840e+00  4.0610907545958721e+00  3.4377476650124370e+00  3.2125314759853070e+00  3.2489019920828723e+00  3.7938505620735401e+00  3.3866530273017488e+00  3.3827751348860930e+00  3.2126600415310462e+00  3.8802036355065050e+00  3.2027930993303459e+00  3.2512307221903427e+00  2.9138747325859091e+00  2.8785802047949489e+00  2.8352650362689604e+00  2.3259060464793606e+00  2.7408487607587562e+00  2.6522074639725459e+00  2.8615831700804302e+00  2.1958745157812873e+00  2.2863179933789870e+00  2.2411324943844622e+00  2.1886045536647871e+00  2.4661295047502230e+00  2.2092576006093729e+00  2.1159562530535867e+00  1.8935878596069111e+00  3.3907505712025349e-01  3.3410015533411280e-01  3.2639244253460409e-01  3.6394232185972825e-01  3.3883944126607290e-01  3.5460103697952494e-01  3.3693460994805263e-01  2.8073359851314617e-01  4.0324950643650412e+00  3.9421141949420542e+00  4.3424886129880536e+00  3.5685196101771948e+00  2.6175611969492016e+00  2.6958671086451083e+00  2.6753757314503237e+00  2.9289007895872392e+00  2.6916649452439803e+00  2.5988261273939788e+00  2.8085040588148016e+00  2.6623981130742833e+00  1.6814542751868244e+00  1.9547354507334571e+00  1.9381024612574327e+00  1.7163908637422485e+00  1.6227096439337867e+00  1.7587230307207926e+00  1.6748277213817326e+00  1.6993579979783027e+00  1.1976855939374724e+00  8.1149596841249938e-01  1.2320441823924602e+00  8.9444838268792048e-01  1.1165883530143517e+00  8.3304346967520615e-01  1.2228634418525046e+00  8.2979989795242626e-01  1.2223805016355440e+00  9.9775783352259484e-01  1.2254114674994243e+00  8.3200718215674896e-01  1.2249917940781487e+00  8.2128276578927828e-01  1.2762782402532746e+00  8.5746813723824600e-01  1.6090675535448729e-01  1.4612274710371814e-01  1.4512060103114438e-01  1.5851199807738917e-01  4.0466239504503001e+00  8.0894346302666147e+00  8.0539109660767405e+00  1.2127532153856551e+01  1.2063413969100642e+01  1.6161540669240971e+01  1.6067262498162101e+01  2.0193196620636634e+01  2.0055450148179961e+01  2.4221017207641669e+01  2.4031545229533418e+01  2.8245594497812878e+01  2.7996492792122009e+01  3.2266745868506710e+01  3.1949711968801644e+01  3.6284464949831026e+01  3.5886494924522893e+01  4.0295999836610456e+01  3.9816317615727037e+01  4.4293961328006773e+01  4.3725521936605055e+01  4.4812171345653873e+01  4.8295533020659406e+01  4.7613126181088369e+01  5.2286091279199816e+01  5.1484458870518004e+01  5.6245999305872459e+01  5.5323227560953029e+01  6.0186010762543944e+01  5.9127813436199148e+01  6.4090649588875536e+01  6.2891070446009074e+01  6.5225359026168306e+01  6.7949801969470585e+01  6.6603950343776461e+01  7.1775821410930632e+01  7.0262438791095107e+01  7.5553311822838111e+01  7.3851977317566920e+01  7.9250968702777186e+01  7.7371030504329980e+01  8.2867310617839635e+01  8.0799511354399982e+01  8.4885636980489394e+01  8.6389947327359693e+01  8.4129603587455435e+01  8.9807531790367179e+01  8.7343921072630678e+01  8.1790057004808489e+01  8.4830173834613333e+01  9.0440180930465985e+01  8.7760759784801593e+01  8.2321151079435509e+01  8.5071075518183193e+01  7.9814743039110922e+01  8.2379026060853064e+01  8.7674903231358215e+01  8.4807236772180417e+01  7.9681728318173569e+01  8.1945022785229739e+01  7.6985606919635202e+01  7.9091522131664050e+01  8.4069640784930954e+01  8.1059448743179416e+01  7.6249392150209331e+01  7.8067326694744793e+01  8.2883213999407303e+01  7.9743013496212711e+01  7.5094625008046734e+01  7.6628217773281960e+01  8.1271309933148700e+01  7.8017030889037954e+01  8.2647732633132009e+01  7.2142548515700796e+01  7.9256909300431317e+01  8.3867639124622684e+01  8.0344213320809374e+01  8.4927922966149083e+01  8.1275930225027793e+01  8.5825455333659050e+01  8.2049682662498341e+01  8.6557522930875592e+01  7.7672431816336456e+01  8.2663293201544491e+01  8.7122765825252330e+01  8.3115544588829465e+01  8.7520093419035732e+01  8.3406045421300334e+01  8.7749226486837429e+01  8.3534576314307770e+01  8.7810694903256248e+01  8.3502129129119211e+01  8.7705442663531741e+01  8.3309848441063096e+01  8.7435483319880859e+01  7.9391574300661048e+01  8.9657513515239486e+01  1.9630324537467786e+02  8.2959449405747563e+01  8.7003371032978308e+01  8.2454552531670544e+01  8.6412283872661121e+01  1.9515487864441556e+02  8.1798059955565748e+01  8.5666159399466821e+01  1.9567001698558866e+02  8.0993953336769607e+01  8.4769492988933720e+01  8.9590677156741066e+01  8.8593139614452483e+01  8.3727211980991171e+01  8.7447847137781295e+01  9.2200164220684542e+01  7.7272457539606847e+01  8.2545344370382466e+01  8.6161525665478891e+01  9.1201972098510893e+01  8.9802247253469801e+01  8.4739613294967782e+01  8.8266809026396686e+01  9.3460710308987615e+01  9.1803342932340243e+01  8.6602728085336565e+01  9.0018029697736509e+01  9.5341415985003991e+01  9.3426737210575553e+01  8.8112870107529332e+01  9.1392917090010727e+01  9.6829663142887597e+01  9.4655711422841847e+01  8.9251024027244824e+01  9.2374620702262490e+01  9.7878934762384560e+01  9.5457437517088323e+01  9.0000129789526639e+01  9.2946406073577833e+01  9.8489461476798866e+01  9.5835922414226971e+01  1.0146084469549979e+02  9.8658290719506752e+01  9.3103071493228242e+01  9.5781392683655739e+01  1.0140260239729305e+02  9.8376803595083388e+01  9.2840817843357542e+01  9.5293380936590196e+01  1.0087877988506138e+02  9.7648373409375921e+01  1.0327602360525204e+02  9.9895155981706267e+01  1.0555764697585393e+02  1.0202349040488130e+02  9.6481989855192651e+01  9.8465493681735140e+01  1.0402315136253391e+02  1.0031870183235266e+02  1.0588386254143981e+02  1.0203216047434368e+02  1.0759571005010783e+02  1.0359659471103690e+02  1.0914898574582762e+02  1.0500317428703003e+02  9.9612547128759019e+01  1.0088337585327369e+02  1.0624392625152228e+02  1.0199285142543722e+02  1.0730891784878753e+02  1.0292951729119387e+02  1.0819469836733482e+02  1.0368894176718945e+02  1.0890361868160839e+02  1.0426602289778442e+02  1.0941216943704610e+02  1.0465958467593147e+02  1.0971569382597336e+02  1.0486018320660571e+02  1.0982506243866932e+02  1.0486891173993537e+02  1.0976012946829321e+02  1.0468834686959595e+02  1.0947204788470482e+02  1.0431129460887759e+02  1.0894723221116692e+02  1.0373216923161615e+02  1.0824290784795414e+02  1.0296398211287057e+02  1.0734559689699870e+02  9.8659425275485845e+01  9.7835635114679391e+01  9.3729577107612585e+01  9.2856378236252070e+01  8.8941472411749189e+01  8.8027111385785688e+01  8.4294487959917092e+01  8.3345200695299411e+01  7.9786804130448843e+01  7.8808876494735188e+01  8.2238683659464641e+01  7.5417337766099237e+01  9.8602508662341464e+01  7.7680186147979853e+01  8.0978034243718554e+01  7.6405484090844709e+01  7.9567252465381642e+01  7.4986053360830937e+01  7.8010152719640843e+01  7.3425458548953699e+01  7.6311162756188892e+01  7.1730590064008155e+01  6.8998959283840080e+01  7.4475716116198697e+01  6.7310950706718572e+01  6.4726468460237655e+01  6.3046782738727387e+01  6.0603039002195210e