<?xml version="1.0"?>
<VTKFile type="UnstructuredGrid"  version="0.1"  >
<UnstructuredGrid>
<Piece  NumberOfPoints="11902" NumberOfCells="23402">
<Points>
<DataArray  type="Float64"  NumberOfComponents="3"  format="ascii">-5 -5 0  5 -5 0  5 5 0  -5 5 0  1.295251079039469 -0.001294458416183096 0  -4.9 -5 0  -4.8 -5 0  -4.7 -5 0  -4.6 -5 0  -4.5 -5 0  -4.4 -5 0  -4.3 -5 0  -4.2 -5 0  -4.1 -5 0  -4 -5 0  -3.9 -5 0  -3.8 -5 0  -3.7 -5 0  -3.6 -5 0  -3.5 -5 0  -3.4 -5 0  -3.3 -5 0  -3.2 -5 0  -3.1 -5 0  -3 -5 0  -2.9 -5 0  -2.8 -5 0  -2.7 -5 0  -2.6 -5 0  -2.5 -5 0  -2.4 -5 0  -2.3 -5 0  -2.2 -5 0  -2.1 -5 0  -2 -5 0  -1.9 -5 0  -1.8 -5 0  -1.7 -5 0  -1.6 -5 0  -1.5 -5 0  -1.4 -5 0  -1.3 -5 0  -1.2 -5 0  -1.1 -5 0  -1 -5 0  -0.9000000000000004 -5 0  -0.7999999999999998 -5 0  -0.7000000000000002 -5 0  -0.5999999999999996 -5 0  -0.5 -5 0  -0.4000000000000004 -5 0  -0.2999999999999998 -5 0  -0.2000000000000002 -5 0  -0.09999999999999964 -5 0  0 -5 0  0.09999999999999964 -5 0  0.2000000000000002 -5 0  0.2999999999999998 -5 0  0.4000000000000004 -5 0  0.5 -5 0  0.5999999999999996 -5 0  0.7000000000000002 -5 0  0.7999999999999998 -5 0  0.9000000000000004 -5 0  1 -5 0  1.1 -5 0  1.2 -5 0  1.3 -5 0  1.4 -5 0  1.5 -5 0  1.6 -5 0  1.7 -5 0  1.8 -5 0  1.9 -5 0  2 -5 0  2.1 -5 0  2.2 -5 0  2.3 -5 0  2.4 -5 0  2.5 -5 0  2.6 -5 0  2.7 -5 0  2.8 -5 0  2.9 -5 0  3 -5 0  3.1 -5 0  3.199999999999999 -5 0  3.300000000000001 -5 0  3.4 -5 0  3.5 -5 0  3.6 -5 0  3.699999999999999 -5 0  3.800000000000001 -5 0  3.9 -5 0  4 -5 0  4.1 -5 0  4.199999999999999 -5 0  4.300000000000001 -5 0  4.4 -5 0  4.5 -5 0  4.6 -5 0  4.699999999999999 -5 0  4.800000000000001 -5 0  4.9 -5 0  5 -4.9 0  5 -4.8 0  5 -4.7 0  5 -4.6 0  5 -4.5 0  5 -4.4 0  5 -4.3 0  5 -4.2 0  5 -4.1 0  5 -4 0  5 -3.9 0  5 -3.8 0  5 -3.7 0  5 -3.6 0  5 -3.5 0  5 -3.4 0  5 -3.3 0  5 -3.2 0  5 -3.1 0  5 -3 0  5 -2.9 0  5 -2.8 0  5 -2.7 0  5 -2.6 0  5 -2.5 0  5 -2.4 0  5 -2.3 0  5 -2.2 0  5 -2.1 0  5 -2 0  5 -1.9 0  5 -1.8 0  5 -1.7 0  5 -1.6 0  5 -1.5 0  5 -1.4 0  5 -1.3 0  5 -1.2 0  5 -1.1 0  5 -1 0  5 -0.9000000000000004 0  5 -0.7999999999999998 0  5 -0.7000000000000002 0  5 -0.5999999999999996 0  5 -0.5 0  5 -0.4000000000000004 0  5 -0.2999999999999998 0  5 -0.2000000000000002 0  5 -0.09999999999999964 0  5 0 0  5 0.09999999999999964 0  5 0.2000000000000002 0  5 0.2999999999999998 0  5 0.4000000000000004 0  5 0.5 0  5 0.5999999999999996 0  5 0.7000000000000002 0  5 0.7999999999999998 0  5 0.9000000000000004 0  5 1 0  5 1.1 0  5 1.2 0  5 1.3 0  5 1.4 0  5 1.5 0  5 1.6 0  5 1.7 0  5 1.8 0  5 1.9 0  5 2 0  5 2.1 0  5 2.2 0  5 2.3 0  5 2.4 0  5 2.5 0  5 2.6 0  5 2.7 0  5 2.8 0  5 2.9 0  5 3 0  5 3.1 0  5 3.199999999999999 0  5 3.300000000000001 0  5 3.4 0  5 3.5 0  5 3.6 0  5 3.699999999999999 0  5 3.800000000000001 0  5 3.9 0  5 4 0  5 4.1 0  5 4.199999999999999 0  5 4.300000000000001 0  5 4.4 0  5 4.5 0  5 4.6 0  5 4.699999999999999 0  5 4.800000000000001 0  5 4.9 0  4.9 5 0  4.8 5 0  4.7 5 0  4.6 5 0  4.5 5 0  4.4 5 0  4.3 5 0  4.2 5 0  4.1 5 0  4 5 0  3.9 5 0  3.8 5 0  3.7 5 0  3.6 5 0  3.5 5 0  3.4 5 0  3.3 5 0  3.2 5 0  3.1 5 0  3 5 0  2.9 5 0  2.8 5 0  2.7 5 0  2.6 5 0  2.5 5 0  2.4 5 0  2.3 5 0  2.2 5 0  2.1 5 0  2 5 0  1.9 5 0  1.8 5 0  1.7 5 0  1.6 5 0  1.5 5 0  1.4 5 0  1.3 5 0  1.2 5 0  1.1 5 0  1 5 0  0.9000000000000004 5 0  0.7999999999999998 5 0  0.7000000000000002 5 0  0.5999999999999996 5 0  0.5 5 0  0.4000000000000004 5 0  0.2999999999999998 5 0  0.2000000000000002 5 0  0.09999999999999964 5 0  0 5 0  -0.09999999999999964 5 0  -0.2000000000000002 5 0  -0.2999999999999998 5 0  -0.4000000000000004 5 0  -0.5 5 0  -0.5999999999999996 5 0  -0.7000000000000002 5 0  -0.7999999999999998 5 0  -0.9000000000000004 5 0  -1 5 0  -1.1 5 0  -1.2 5 0  -1.3 5 0  -1.4 5 0  -1.5 5 0  -1.6 5 0  -1.7 5 0  -1.8 5 0  -1.9 5 0  -2 5 0  -2.1 5 0  -2.2 5 0  -2.3 5 0  -2.4 5 0  -2.5 5 0  -2.6 5 0  -2.7 5 0  -2.8 5 0  -2.9 5 0  -3 5 0  -3.1 5 0  -3.199999999999999 5 0  -3.300000000000001 5 0  -3.4 5 0  -3.5 5 0  -3.6 5 0  -3.699999999999999 5 0  -3.800000000000001 5 0  -3.9 5 0  -4 5 0  -4.1 5 0  -4.199999999999999 5 0  -4.300000000000001 5 0  -4.4 5 0  -4.5 5 0  -4.6 5 0  -4.699999999999999 5 0  -4.800000000000001 5 0  -4.9 5 0  -5 4.9 0  -5 4.8 0  -5 4.7 0  -5 4.6 0  -5 4.5 0  -5 4.4 0  -5 4.3 0  -5 4.2 0  -5 4.1 0  -5 4 0  -5 3.9 0  -5 3.8 0  -5 3.7 0  -5 3.6 0  -5 3.5 0  -5 3.4 0  -5 3.3 0  -5 3.2 0  -5 3.1 0  -5 3 0  -5 2.9 0  -5 2.8 0  -5 2.7 0  -5 2.6 0  -5 2.5 0  -5 2.4 0  -5 2.3 0  -5 2.2 0  -5 2.1 0  -5 2 0  -5 1.9 0  -5 1.8 0  -5 1.7 0  -5 1.6 0  -5 1.5 0  -5 1.4 0  -5 1.3 0  -5 1.2 0  -5 1.1 0  -5 1 0  -5 0.9000000000000004 0  -5 0.7999999999999998 0  -5 0.7000000000000002 0  -5 0.5999999999999996 0  -5 0.5 0  -5 0.4000000000000004 0  -5 0.2999999999999998 0  -5 0.2000000000000002 0  -5 0.09999999999999964 0  -5 0 0  -5 -0.09999999999999964 0  -5 -0.2000000000000002 0  -5 -0.2999999999999998 0  -5 -0.4000000000000004 0  -5 -0.5 0  -5 -0.5999999999999996 0  -5 -0.7000000000000002 0  -5 -0.7999999999999998 0  -5 -0.9000000000000004 0  -5 -1 0  -5 -1.1 0  -5 -1.2 0  -5 -1.3 0  -5 -1.4 0  -5 -1.5 0  -5 -1.6 0  -5 -1.7 0  -5 -1.8 0  -5 -1.9 0  -5 -2 0  -5 -2.1 0  -5 -2.2 0  -5 -2.3 0  -5 -2.4 0  -5 -2.5 0  -5 -2.6 0  -5 -2.7 0  -5 -2.8 0  -5 -2.9 0  -5 -3 0  -5 -3.1 0  -5 -3.199999999999999 0  -5 -3.300000000000001 0  -5 -3.4 0  -5 -3.5 0  -5 -3.6 0  -5 -3.699999999999999 0  -5 -3.800000000000001 0  -5 -3.9 0  -5 -4 0  -5 -4.1 0  -5 -4.199999999999999 0  -5 -4.300000000000001 0  -5 -4.4 0  -5 -4.5 0  -5 -4.6 0  -5 -4.699999999999999 0  -5 -4.800000000000001 0  -5 -4.9 0  1.289507805742006 0.1251992588617216 0  1.268797577800385 0.2454647070814395 0  1.236602430173966 0.3625924835351899 0  1.186559933249281 0.4734588798429337 0  1.12630773223844 0.5798987416224649 0  1.054673784478856 0.6793335399444069 0  0.9695482991160079 0.7774485737771943 0  0.8801172117369701 0.857418907615609 0  0.7835452189998704 0.932601186341839 0  0.6806709335346356 0.9973933817378314 0  0.5651648324781429 1.054343806935947 0  0.4554978575940366 1.098002865758623 0  0.3331623377290592 1.135815750197268 0  0.2125223242871232 1.160805307955407 0  0.09115594865971458 1.17637704599405 0  -0.03402261966417505 1.179887429430187 0  -0.1505187897354887 1.170926858232968 0  -0.2711903748832096 1.151174592260481 0  -0.3943449317970302 1.118927150708193 0  -0.5093241861168387 1.078259370538147 0  -0.62299356788265 1.027904611458084 0  -0.7312298849131582 0.9657691896616062 0  -0.8309206294477467 0.8973184935967605 0  -0.928880923487487 0.8169925403154513 0  -1.012195035147486 0.727127775785912 0  -1.089498531341829 0.6326882352659021 0  -1.156087199151035 0.5293237860354283 0  -1.210620445116169 0.4165781261985242 0  -1.252699606269789 0.302359417443165 0  -1.280629171182605 0.1842691688103483 0  -1.294564414188447 0.06150453809318419 0  -1.293955475949624 -0.05984451511298396 0  -1.282882457850198 -0.1806939236241398 0  -1.251587508586658 -0.304552870063457 0  -1.209197116713935 -0.4176008674997815 0  -1.154494077934234 -0.5303494936708478 0  -1.088351377694289 -0.6301287638364007 0  -1.011869773573302 -0.7281978947168468 0  -0.9250906661165241 -0.8182877063858082 0  -0.8313170707102246 -0.8966038703609862 0  -0.7316926697847915 -0.9667721422521667 0  -0.6233551976500447 -1.029154126384993 0  -0.5098630698396772 -1.079756721662303 0  -0.3941104262335808 -1.118980003058111 0  -0.2741252547669524 -1.149861119441751 0  -0.15443427858288 -1.167407570253612 0  -0.03324516155034685 -1.17641421954847 0  0.09574383095145197 -1.173657085819231 0  0.2128833174046234 -1.160526479982664 0  0.3382401745965931 -1.134817852555404 0  0.4519452255599763 -1.100192659677784 0  0.5697210826857876 -1.052868595240295 0  0.6761433831688117 -1.001450274792177 0  0.7846002705801546 -0.9335713295076929 0  0.8823518091350162 -0.8589879711982605 0  0.9721381644981523 -0.7746695855958319 0  1.053175608389306 -0.6822584153699642 0  1.12356811286058 -0.5841301127291765 0  1.183727878166111 -0.4760414001941323 0  1.233807602249117 -0.3577809422714905 0  1.267570898830796 -0.2453189841134806 0  1.28875919612678 -0.1208642717005901 0  -2.449963823719656 4.920444743796089 0  -2.449958071033956 -4.913021945679244 0  4.912803821386781 2.449749589622072 0  4.920709501652311 -2.451037670478779 0  2.447948664896052 -4.898701571078138 0  2.442334347886562 4.902350613780531 0  -4.912812659241043 -2.449757344837725 0  -4.912819618500064 2.449760947174971 0  -1.749997770745937 4.914342693714989 0  -1.745720172689712 -4.917642277208447 0  4.923456888062624 1.745674984159417 0  4.912390642033068 -1.749684111742159 0  -4.912652295893883 -1.749389727538773 0  -4.913456238330784 1.749114218487584 0  1.747390200347465 4.908440547168292 0  1.748981007160553 -4.897022310861689 0  -1.150021086816616 4.91284475629253 0  -1.130769057307947 -4.920366523826733 0  -4.913015114937513 -1.149337856671149 0  -4.91284956381319 1.149134877694262 0  1.144934744862773 -4.916752797108825 0  1.150023328576957 4.912823121422896 0  4.913184109634019 1.147622527239335 0  4.923547830939852 -1.153230582084826 0  -0.5472894662040593 -4.914361684117951 0  -0.547006469905772 4.922657012861997 0  -4.912232018981153 -0.5494668799267232 0  -4.912260328277799 0.5480131422098534 0  4.911616873366502 -0.5497990449668785 0  4.922729408895964 0.5464457131967621 0  0.5431464041553682 -4.901878681099197 0  0.5517483583256044 4.919635413313652 0  -4.913545833380621 -3.049834022082641 0  4.920006258301792 3.04774726610418 0  4.913071178021 -3.049833751370427 0  -4.914387742312917 3.046912947985728 0  3.056509925825582 -4.919090869063306 0  -3.049938655921388 -4.913155581216156 0  3.053476684783296 4.915197410350054 0  -3.049372710509691 4.91402492280432 0  -4.911516961063962 -0.04998376765344528 0  0.04516021822751227 -4.916351003903887 0  0.0496111605090073 4.923047987131461 0  4.918267131857022 -0.05136044150693471 0  3.546568455686799 -4.920251673830351 0  -3.549935300939995 4.913246483707093 0  -3.5499
[...]
<PointData  Scalars="f_23"> 
<DataArray  type="Float64"  Name="f_23"  format="ascii">0.0000000000000000e+00  0.0000000000000000e+00  0.0000000000000000e+00  0.0000000000000000e+00  2.1799390493128894e+02  0.0000000000000000e+00  0.0000000000000000e+00  0.0000000000000000e+00  0.0000000000000000e+00  0.0000000000000000e+00  0.0000000000000000e+00  0.0000000000000000e+00  0.0000000000000000e+00  0.0000000000000000e+00  0.0000000000000000e+00  0.0000000000000000e+00  0.0000000000000000e+00  0.0000000000000000e+00  0.0000000000000000e+00  0.0000000000000000e+00  0.0000000000000000e+00  0.0000000000000000e+00  0.0000000000000000e+00  0.0000000000000000e+00  0.0000000000000000e+00  0.0000000000000000e+00  0.0000000000000000e+00  0.0000000000000000e+00  0.0000000000000000e+00  0.0000000000000000e+00  0.0000000000000000e+00  0.0000000000000000e+00  0.0000000000000000e+00  0.0000000000000000e+00  0.0000000000000000e+00  0.0000000000000000e+00  0.0000000000000000e+00  0.0000000000000000e+00  0.0000000000000000e+00  0.0000000000000000e+00  0.0000000000000000e+00  0.0000000000000000e+00  0.0000000000000000e+00  0.0000000000000000e+00  0.0000000000000000e+00  0.0000000000000000e+00  0.0000000000000000e+00  0.0000000000000000e+00  0.0000000000000000e+00  0.0000000000000000e+00  0.0000000000000000e+00  0.0000000000000000e+00  0.0000000000000000e+00  0.0000000000000000e+00  0.0000000000000000e+00  0.0000000000000000e+00  0.0000000000000000e+00  0.0000000000000000e+00  0.0000000000000000e+00  0.0000000000000000e+00  0.0000000000000000e+00  0.0000000000000000e+00  0.0000000000000000e+00  0.0000000000000000e+00  0.0000000000000000e+00  0.0000000000000000e+00  0.0000000000000000e+00  0.0000000000000000e+00  0.0000000000000000e+00  0.0000000000000000e+00  0.0000000000000000e+00  0.0000000000000000e+00  0.0000000000000000e+00  0.0000000000000000e+00  0.0000000000000000e+00  0.0000000000000000e+00  0.0000000000000000e+00  0.0000000000000000e+00  0.0000000000000000e+00  0.0000000000000000e+00  0.0000000000000000e+00  0.0000000000000000e+00  0.0000000000000000e+00  0.0000000000000000e+00  0.0000000000000000e+00  0.0000000000000000e+00  0.0000000000000000e+00  0.0000000000000000e+00  0.0000000000000000e+00  0.0000000000000000e+00  0.0000000000000000e+00  0.0000000000000000e+00  0.0000000000000000e+00  0.0000000000000000e+00  0.0000000000000000e+00  0.0000000000000000e+00  0.0000000000000000e+00  0.0000000000000000e+00  0.0000000000000000e+00  0.0000000000000000e+00  0.0000000000000000e+00  0.0000000000000000e+00  0.0000000000000000e+00  0.0000000000000000e+00  0.0000000000000000e+00  0.0000000000000000e+00  0.0000000000000000e+00  0.0000000000000000e+00  0.0000000000000000e+00  0.0000000000000000e+00  0.0000000000000000e+00  0.0000000000000000e+00  0.0000000000000000e+00  0.0000000000000000e+00  0.0000000000000000e+00  0.0000000000000000e+00  0.0000000000000000e+00  0.0000000000000000e+00  0.0000000000000000e+00  0.0000000000000000e+00  0.0000000000000000e+00  0.0000000000000000e+00  0.0000000000000000e+00  0.0000000000000000e+00  0.0000000000000000e+00  0.0000000000000000e+00  0.0000000000000000e+00  0.0000000000000000e+00  0.0000000000000000e+00  0.0000000000000000e+00  0.0000000000000000e+00  0.0000000000000000e+00  0.0000000000000000e+00  0.0000000000000000e+00  0.0000000000000000e+00  0.0000000000000000e+00  0.0000000000000000e+00  0.0000000000000000e+00  0.0000000000000000e+00  0.0000000000000000e+00  0.0000000000000000e+00  0.0000000000000000e+00  0.0000000000000000e+00  0.0000000000000000e+00  0.0000000000000000e+00  0.0000000000000000e+00  0.0000000000000000e+00  0.0000000000000000e+00  0.0000000000000000e+00  0.0000000000000000e+00  0.0000000000000000e+00  0.0000000000000000e+00  0.0000000000000000e+00  0.0000000000000000e+00  0.0000000000000000e+00  0.0000000000000000e+00  0.0000000000000000e+00  0.0000000000000000e+00  0.0000000000000000e+00  0.0000000000000000e+00  0.0000000000000000e+00  0.0000000000000000e+00  0.0000000000000000e+00  0.0000000000000000e+00  0.0000000000000000e+00  0.0000000000000000e+00  0.0000000000000000e+00  0.0000000000000000e+00  0.0000000000000000e+00  0.0000000000000000e+00  0.0000000000000000e+00  0.0000000000000000e+00  0.0000000000000000e+00  0.0000000000000000e+00  0.0000000000000000e+00  0.0000000000000000e+00  0.0000000000000000e+00  0.0000000000000000e+00  0.0000000000000000e+00  0.0000000000000000e+00  0.0000000000000000e+00  0.0000000000000000e+00  0.0000000000000000e+00  0.0000000000000000e+00  0.0000000000000000e+00  0.0000000000000000e+00  0.0000000000000000e+00  0.0000000000000000e+00  0.0000000000000000e+00  0.0000000000000000e+00  0.0000000000000000e+00  0.0000000000000000e+00  0.0000000000000000e+00  0.0000000000000000e+00  0.0000000000000000e+00  0.0000000000000000e+00  0.0000000000000000e+00  0.0000000000000000e+00  0.0000000000000000e+00  0.0000000000000000e+00  0.0000000000000000e+00  0.0000000000000000e+00  0.0000000000000000e+00  0.0000000000000000e+00  0.0000000000000000e+00  0.0000000000000000e+00  0.0000000000000000e+00  0.0000000000000000e+00  0.0000000000000000e+00  0.0000000000000000e+00  0.0000000000000000e+00  0.0000000000000000e+00  0.0000000000000000e+00  0.0000000000000000e+00  0.0000000000000000e+00  0.0000000000000000e+00  0.0000000000000000e+00  0.0000000000000000e+00  0.0000000000000000e+00  0.0000000000000000e+00  0.0000000000000000e+00  0.0000000000000000e+00  0.0000000000000000e+00  0.0000000000000000e+00  0.0000000000000000e+00  0.0000000000000000e+00  0.0000000000000000e+00  0.0000000000000000e+00  0.0000000000000000e+00  0.0000000000000000e+00  0.0000000000000000e+00  0.0000000000000000e+00  0.0000000000000000e+00  0.0000000000000000e+00  0.0000000000000000e+00  0.0000000000000000e+00  0.0000000000000000e+00  0.0000000000000000e+00  0.0000000000000000e+00  0.0000000000000000e+00  0.0000000000000000e+00  0.0000000000000000e+00  0.0000000000000000e+00  0.0000000000000000e+00  0.0000000000000000e+00  0.0000000000000000e+00  0.0000000000000000e+00  0.0000000000000000e+00  0.0000000000000000e+00  0.0000000000000000e+00  0.0000000000000000e+00  0.0000000000000000e+00  0.0000000000000000e+00  0.0000000000000000e+00  0.0000000000000000e+00  0.0000000000000000e+00  0.0000000000000000e+00  0.0000000000000000e+00  0.0000000000000000e+00  0.0000000000000000e+00  0.0000000000000000e+00  0.0000000000000000e+00  0.0000000000000000e+00  0.0000000000000000e+00  0.0000000000000000e+00  0.0000000000000000e+00  0.0000000000000000e+00  0.0000000000000000e+00  0.0000000000000000e+00  0.0000000000000000e+00  0.0000000000000000e+00  0.0000000000000000e+00  0.0000000000000000e+00  0.0000000000000000e+00  0.0000000000000000e+00  0.0000000000000000e+00  0.0000000000000000e+00  0.0000000000000000e+00  0.0000000000000000e+00  0.0000000000000000e+00  0.0000000000000000e+00  0.0000000000000000e+00  0.0000000000000000e+00  0.0000000000000000e+00  0.0000000000000000e+00  0.0000000000000000e+00  0.0000000000000000e+00  0.0000000000000000e+00  0.0000000000000000e+00  0.0000000000000000e+00  0.0000000000000000e+00  0.0000000000000000e+00  0.0000000000000000e+00  0.0000000000000000e+00  0.0000000000000000e+00  0.0000000000000000e+00  0.0000000000000000e+00  0.0000000000000000e+00  0.0000000000000000e+00  0.0000000000000000e+00  0.0000000000000000e+00  0.0000000000000000e+00  0.0000000000000000e+00  0.0000000000000000e+00  0.0000000000000000e+00  0.0000000000000000e+00  0.0000000000000000e+00  0.0000000000000000e+00  0.0000000000000000e+00  0.0000000000000000e+00  0.0000000000000000e+00  0.0000000000000000e+00  0.0000000000000000e+00  0.0000000000000000e+00  0.0000000000000000e+00  0.0000000000000000e+00  0.0000000000000000e+00  0.0000000000000000e+00  0.0000000000000000e+00  0.0000000000000000e+00  0.0000000000000000e+00  0.0000000000000000e+00  0.0000000000000000e+00  0.0000000000000000e+00  0.0000000000000000e+00  0.0000000000000000e+00  0.0000000000000000e+00  0.0000000000000000e+00  0.0000000000000000e+00  0.0000000000000000e+00  0.0000000000000000e+00  0.0000000000000000e+00  0.0000000000000000e+00  0.0000000000000000e+00  0.0000000000000000e+00  0.0000000000000000e+00  0.0000000000000000e+00  0.0000000000000000e+00  0.0000000000000000e+00  0.0000000000000000e+00  0.0000000000000000e+00  0.0000000000000000e+00  0.0000000000000000e+00  0.0000000000000000e+00  0.0000000000000000e+00  0.0000000000000000e+00  0.0000000000000000e+00  0.0000000000000000e+00  0.0000000000000000e+00  0.0000000000000000e+00  0.0000000000000000e+00  0.0000000000000000e+00  0.0000000000000000e+00  0.0000000000000000e+00  0.0000000000000000e+00  0.0000000000000000e+00  0.0000000000000000e+00  0.0000000000000000e+00  0.0000000000000000e+00  0.0000000000000000e+00  0.0000000000000000e+00  0.0000000000000000e+00  0.0000000000000000e+00  0.0000000000000000e+00  0.0000000000000000e+00  0.0000000000000000e+00  0.0000000000000000e+00  0.0000000000000000e+00  0.0000000000000000e+00  0.0000000000000000e+00  0.0000000000000000e+00  0.0000000000000000e+00  0.0000000000000000e+00  0.0000000000000000e+00  0.0000000000000000e+00  0.0000000000000000e+00  0.0000000000000000e+00  0.0000000000000000e+00  0.0000000000000000e+00  0.0000000000000000e+00  0.0000000000000000e+00  0.0000000000000000e+00  0.0000000000000000e+00  0.0000000000000000e+00  0.0000000000000000e+00  0.0000000000000000e+00  0.0000000000000000e+00  0.0000000000000000e+00  0.0000000000000000e+00  0.0000000000000000e+00  0.0000000000000000e+00  0.0000000000000000e+00  0.0000000000000000e+00  0.0000000000000000e+00  0.0000000000000000e+00  0.0000000000000000e+00  0.0000000000000000e+00  0.0000000000000000e+00  0.0000000000000000e+00  0.0000000000000000e+00  0.0000000000000000e+00  2.1800720769736779e+02  2.1818131392774089e+02  2.1834233966010416e+02  2.1856446888079830e+02  2.1877497537552330e+02  2.1897163353810123e+02  2.1928303457254336e+02  2.1965210881299231e+02  2.1990091495648514e+02  2.2009635175976126e+02  2.2034991006772904e+02  2.2054774560279594e+02  2.2067842801309286e+02  2.2082633383070097e+02  2.2093385241637338e+02  2.2103501095438679e+02  2.2098856569129785e+02  2.2075270305220184e+02  2.2053971100640112e+02  2.2033058611751218e+02  2.2006950543485848e+02  2.1980549755080824e+02  2.1950654432220679e+02  2.1919149616416320e+02  2.1898834315577318e+02  2.1869986371494556e+02  2.1838675799061667e+02  2.1818314488668295e+02  2.1804836318027299e+02  2.1793824422036570e+02  2.1786766171146115e+02  2.1785453385743133e+02  2.1780630225802878e+02  2.1790493877640341e+02  2.1819425866634950e+02  2.1845683928780181e+02  2.1877195970638778e+02  2.1903683356913714e+02  2.1936782508395754e+02  2.1973062327173142e+02  2.2003705910498593e+02  2.2021077867051989e+02  2.2049427872767350e+02  2.2068831218291561e+02  2.2082146876756883e+02  2.2093512932773424e+02  2.2096328988353997e+02  2.2097849558446211e+02  2.2092528705003664e+02  2.2082155399690680e+02  2.2069078785608582e+02  2.2050840570244100e+02  2.2026977447994446e+02  2.1997161681754636e+02  2.1970764614821545e+02  2.1943828091670676e+02  2.1915011370703232e+02  2.1880944783611145e+02  2.1848286050129462e+02  2.1827140807123544e+02  2.1811423740180874e+02  2.1801784737346887e+02  2.0194138125730068e+00  2.2057928025532005e+00  2.2229041771119333e+00  2.0210008966056807e+00  2.5735991084270076e+00  2.4821700779282936e+00  2.2227879822925241e+00  2.2222808504483624e+00  2.6798886634669170e+00  2.5806355180592662e+00  2.4136813810474536e+00  2.7602330984290262e+00  2.7519822367707221e+00  2.7268300076279806e+00  2.8659525572137974e+00  3.2239166666436510e+00  3.0748222334574291e+00  2.8161880028298061e+00  3.0949212397302417e+00  3.1007410024767537e+00  2.9396075675488027e+00  3.0740496952781733e+00  3.0898285987819052e+00  2.7187089819804862e+00  3.2398491049088332e+00  2.9244826428102804e+00  3.3517413791471657e+00  3.3509870903223886e+00  3.3755593306632514e+00  2.9517866510260249e+00  3.7130860118199243e+00  3.0378287815005538e+00  1.7060902543518079e+00  1.5799855697344469e+00  1.7156250769839172e+00  1.6915490315373527e+00  1.5862460665024385e+00  1.7115420323778840e+00  1.6666263036866467e+00  1.6915926285053828e+00  3.4499807726510912e+00  3.2294405350509572e+00  2.9688061658940579e+00  3.1871777051325734e+00  1.1769126314127578e+00  1.2772350366435630e+00  1.2763482806214637e+00  1.1764858770072104e+00  1.2787439093332722e+00  1.2457929794225489e+00  1.2575751423790960e+00  1.2481997780808995e+00  9.0221520132138522e-01  1.0331167273573543e+00  9.2647144968264372e-01  9.2619449517018493e-01  8.5991632259651074e-01  9.2572507307369356e-01  9.0831456516448017e-01  9.1422756719800968e-01  6.7146032085206220e-01  5.2817177358789169e-01  4.8509151227656383e-01  5.7310459491967647e-01  5.6399594761071492e-01  5.6532504366949510e-01  5.5882003116676837e-01  5.9538563005588585e-01  3.4347103990403105e+00  3.3537178401473793e+00  3.1224391130146101e+00  3.0025032366259525e+00  3.3170281951152951e+00  2.9340286071078645e+00  3.2582507791988524e+00  3.2715782467592311e+00  2.9640804387300279e+00  2.5653081660977333e+00  3.6927335989549990e+00  3.1436068070654297e+00  2.9118322799958580e+00  2.8258758351016029e+00  3.2728470101849396e+00  2.9081434049765291e+00  2.9594597239978757e+00  2.9128861900417338e+00  3.5433043893861682e+00  2.9147913020296339e+00  2.9393710073320842e+00  2.6427769523547098e+00  2.5396909121225453e+00  2.5004931548699378e+00  2.1021307905201789e+00  2.4953353688325048e+00  2.3362802556108746e+00  2.5403019099215056e+00  1.9725038542728721e+00  2.0685703593699869e+00  2.0204815916192320e+00  1.9521063359734290e+00  2.2235374817204843e+00  1.9727447807020619e+00  1.8856159638136265e+00  1.7219073023342788e+00  3.0674082094432964e-01  3.0401929561904012e-01  2.9444186058409388e-01  3.2841228573610459e-01  3.0819606414084810e-01  3.2082194385617280e-01  3.0409175493432977e-01  2.5333567975859184e-01  3.4346881051183811e+00  3.6089856347918339e+00  3.9554102781178559e+00  3.0467447277751352e+00  2.3642987530228297e+00  2.3836883584746329e+00  2.3847626190785314e+00  2.6560810913119886e+00  2.3840480216382587e+00  2.3645531586954620e+00  2.5351092974659650e+00  2.3567481582317318e+00  1.5194980821663222e+00  1.7671387529109432e+00  1.7461957983641545e+00  1.5416392491067434e+00  1.4542553760636265e+00  1.5979435716939847e+00  1.5090260301948724e+00  1.5239223904707950e+00  1.0863251242159970e+00  7.3754845907275890e-01  1.1139212173916724e+00  8.0929497539863915e-01  1.0159426679944812e+00  7.5781443297936824e-01  1.1026348873197747e+00  7.4969086330905665e-01  1.1022138643702368e+00  9.0027599437398920e-01  1.1020502186648353e+00  7.4966787874869134e-01  1.1023148576214168e+00  7.4038141267569813e-01  1.1500591094366823e+00  7.7280037349937414e-01  1.4561465531121376e-01  1.3183867991811815e-01  1.3207127730921323e-01  1.4309648324682153e-01  3.4448075026282994e+00  6.8852791207176551e+00  6.8598581388906519e+00  1.0321134544400422e+01  1.0275292276785613e+01  1.3752537315437776e+01  1.3685969091139661e+01  1.7180448938379936e+01  1.7083058456666254e+01  2.0603401410778545e+01  2.0469385972953418e+01  2.4021457020675154e+01  2.3845509750117319e+01  2.7434544453363355e+01  2.7210747235092573e+01  3.0842104137169667e+01  3.0561374317182135e+01  3.4242664592258564e+01  3.3905508019765499e+01  3.7629659359293832e+01  3.7232280939504399e+01  3.7990893887374583e+01  4.1019360035954485e+01  4.0542080548748871e+01  4.4400203328791250e+01  4.3840154139444671e+01  4.7755934987155136e+01  4.7114052696768731e+01  5.1099013513939937e+01  5.0364688390475862e+01  5.4418286884232380e+01  5.3587732513392446e+01  5.5191487155753379e+01  5.7708955088491052e+01  5.6778894755352574e+01  6.0983370887110276e+01  5.9936385157088438e+01  6.4231203449461461e+01  6.3051549434357973e+01  6.7431687828003973e+01  6.6125052941885272e+01  7.0585872909431686e+01  6.9143021305414962e+01  7.1958203801502918e+01  7.3686897513575914e+01  7.2101662589951175e+01  7.6727963603200877e+01  7.4988384859159680e+01  7.0412186857354996e+01  7.3163503295059641e+01  7.7801978519633607e+01  7.5844434166500179e+01  7.1302363236451399e+01  7.3832856690550386e+01  6.9404794508376739e+01  7.1777285176306222e+01  7.6259599058618264e+01  7.4050324342960991e+01  6.9677361855466728e+01  7.1803760071780175e+01  6.7542789559112350e+01  6.9526589289207237e+01  7.3824560605392193e+01  7.1402457324642356e+01  6.7224706809170883e+01  6.8960399859023539e+01  7.3164063230275090e+01  7.0580907325520201e+01  6.6503477460848529e+01  6.7987820268139657e+01  7.2080464196270029e+01  6.9351348540316252e+01  7.3453558884794958e+01  6.4036336578825541e+01  7.0589076636659627e+01  7.4694707228582800e+01  7.1696330710469525e+01  7.5799027768981475e+01  7.2668803321529268e+01  7.6761961173825057e+01  7.3502723819887166e+01  7.7579029413470167e+01  6.9556506950967346e+01  7.4194347437201927e+01  7.8246815872489549e+01  7.4740824067723040e+01  7.8762337937184427e+01  7.5140024518064280e+01  7.9123251550001982e+01  7.5390063594792451e+01  7.9328128020519628e+01  7.5490215986842529e+01  7.9376035069932712e+01  7.5440077441787665e+01  7.9267193426734252e+01  7.1706294173529315e+01  8.0043305123571230e+01  1.8444035072846836e+02  7.5239868537184080e+01  7.9002557444682850e+01  7.4891766709123033e+01  7.8583869346633222e+01  1.8791603373595683e+02  7.4397466972550475e+01  7.8013823924475091e+01  1.8401959540241057e+02  7.3759878805691613e+01  7.7295871680429855e+01  8.1698520677175694e+01  8.0891424891136779e+01  7.6434103577281974e+01  7.9936591511166426e+01  8.3222968288964054e+01  7.0288209875804242e+01  7.5433842029808289e+01  7.8840157068888985e+01  8.3483957883470538e+01  8.2281557418611840e+01  7.7607302831992612e+01  8.0941004732733660e+01  8.5751169045964673e+01  8.4293407557975442e+01  7.9469475869227296e+01  8.2704009303105806e+01  8.7656173529455884e+01  8.5939661424747030e+01  8.0991462593441426e+01  8.4099658262864182e+01  8.9175828989807385e+01  8.7195680974627876e+01  8.2147846723767188e+01  8.5104392534228538e+01  9.0256742578281006e+01  8.8023598476640188e+01  8.2916346081434938e+01  8.5697190284535182e+01  9.0893924345594485e+01  8.8422600978637050e+01  9.3703700514220643e+01  9.1080670259420557e+01  8.5869832057417526e+01  8.8381322024756059e+01  9.3658807110290326e+01  9.0808101560987410e+01  8.5618018893908584e+01  8.7899955362275335e+01  9.3138185667623844e+01  9.0081487698233985e+01  9.5358866219713349e+01  9.2150897130289408e+01  9.7457859655806232e+01  9.4096906910467439e+01  8.8913939033583375e+01  9.0716067304751661e+01  9.5908217269253868e+01  9.2383279429657136e+01  9.7573752959560949e+01  9.3905575749231616e+01  9.9082978219904902e+01  9.5273354688611846e+01  1.0042584215660376e+02  9.6477723320613094e+01  9.1486993488203325e+01  9.2564261469883292e+01  9.7510751613314511e+01  9.3476675032364113e+01  9.8363119592235620e+01  9.4213629279886177e+01  9.9031792292842752e+01  9.4771421590767631e+01  9.9519055868390950e+01  9.5145953723554712e+01  9.9804264289497226e+01  9.5336965950323759e+01  9.9884475941162009e+01  9.5337247977296187e+01  9.9771258340241374e+01  9.5149375782460382e+01  9.9484300671765340e+01  9.4777650003222419e+01  9.8981428123435236e+01  9.4218015307279515e+01  9.8254698087206506e+01  9.3468197192115866e+01  9.7357901948331133e+01  9.2542835432769834e+01  9.6283094638427031e+01  8.8829104129802971e+01  8.7880524477560684e+01  8.4336818874304299e+01  8.3368595780059863e+01  7.9988361116678902e+01  7.9005831933593669e+01  7.5781056774795957e+01  7.4787592075479353e+01  7.1711014976442456e+01  7.0709993804242501e+01  7.3655022956237843e+01  6.7774788973241328e+01  9.0128640102499133e+01  6.9576127002728782e+01  7.2387858537889215e+01  6.8314939143773202e+01  7.0991257654417197e+01  6.6929032599680127e+01  6.9470206418586571e+01  6.5422856415976256e+01  6.7830046679657414e+01  6.3803691636706233e+01  6.1515543630220854e+01  6.6076827689789326e+01  5.9917061192926383e+01  5.7743369363742509e+01  5.6164641465021006e+01  5.4101271164388756e