<?xml version="1.0"?>
<VTKFile type="UnstructuredGrid"  version="0.1"  >
<UnstructuredGrid>
<Piece  NumberOfPoints="2549" NumberOfCells="4928">
<Points>
<DataArray  type="Float64"  NumberOfComponents="3"  format="ascii">1.786972968461169 0.0149150379794068 0  1.783061839573749 0.05835121516345818 0  1.770510161342552 0.0990189445096574 0  1.756873575068733 0.1388207897386143 0  1.738558160851111 0.1773640690289725 0  1.720224811440088 0.2149889517686886 0  1.692660671730368 0.2505089900822265 0  1.682575788291522 0.2924780938172615 0  1.627210356802573 0.3101365635482068 0  1.602987418322397 0.3329224428603163 0  1.611118495118018 0.4016041972037033 0  1.562445840818318 0.418149589368298 0  1.528240280469199 0.447912942971971 0  1.496026511837979 0.4786232895045047 0  1.457397896505619 0.5067814846556458 0  1.431092693640171 0.5414498747805785 0  1.381084901461555 0.5638970824626141 0  1.34651944977478 0.5782069824421382 0  1.332063642581538 0.6470872847692732 0  1.282455089597592 0.660762253304639 0  1.240633952712032 0.6887127007415638 0  1.2004823377522 0.7172960759730418 0  1.159654408668165 0.7490417340808774 0  1.115687016836526 0.7784506216564147 0  1.068531521681526 0.8021546072712311 0  1.029505644339841 0.8403568474268344 0  0.9788205096422605 0.8663936231799408 0  0.9304506675188297 0.8932193246157701 0  0.8807578311403543 0.9226717757684471 0  0.8288546083548611 0.9499406578273354 0  0.7754285971138426 0.9774260492632407 0  0.7200259486557844 1.003342512908811 0  0.6626695356059557 1.028232982670918 0  0.604133513740611 1.051993658443604 0  0.5431860713120892 1.074617362111808 0  0.4805162422618873 1.095148750000032 0  0.4161483129432164 1.114062627872386 0  0.3501155924752754 1.130542936632746 0  0.2826147804995062 1.144735917046008 0  0.2138614415609119 1.156279003988313 0  0.1439248206109351 1.164817100887586 0  0.07357363347342689 1.170179943346676 0  0.002468223144781704 1.172793793106628 0  -0.06855760389720811 1.172052911400226 0  -0.1395127791897159 1.168107501264359 0  -0.2097494971950372 1.160831395958198 0  -0.2793090713842354 1.150770383042921 0  -0.3475232604466472 1.137370325302071 0  -0.4141724365267939 1.121511600759617 0  -0.4798123617783254 1.103560660009947 0  -0.5432885714279397 1.08294018933106 0  -0.6049511823794523 1.059780072334788 0  -0.6649423930306271 1.036000013915904 0  -0.7223606375617893 1.009171133377297 0  -0.7789566601103586 0.9841862477675859 0  -0.8332731224662917 0.9545351697723666 0  -0.8829429541182021 0.924748432911573 0  -0.9348093513456407 0.8972130256818828 0  -0.9833996956918634 0.8677752850229243 0  -1.030639822133769 0.8370863390454745 0  -1.07568103386909 0.8072298381272606 0  -1.122605278763706 0.7801861459732505 0  -1.168953673743533 0.7530932747928131 0  -1.193921859768398 0.6970489738446891 0  -1.246664316357006 0.697174345841504 0  -1.28329256830586 0.6540047115636651 0  -1.317167142006081 0.6240105921212424 0  -1.359512157798299 0.6029060123208843 0  -1.392228579753809 0.5630479308123923 0  -1.436330636360727 0.5680921145273532 0  -1.490337435057014 0.5297300399720537 0  -1.469478748528573 0.4135461642382467 0  -1.599534353735071 0.4818162306614012 0  -1.543873118060328 0.379917880573822 0  -1.575053577806158 0.3623914255914436 0  -1.622373704795102 0.3368178859563437 0  -1.645477892776196 0.3024248956159138 0  -1.68976361169407 0.2763696265437729 0  -1.7378514316044 0.239792278711113 0  -1.675342011333853 0.172426625113309 0  -1.714293494192641 0.1673706998975339 0  -1.793652088518987 0.1399585518812501 0  -1.754524114736236 0.09050469323419758 0  -1.780541307026179 0.0487539825662528 0  -1.778939678919096 0.00519302956095055 0  -1.783694253724989 -0.03955569029298846 0  -1.758596405415005 -0.0811907296104106 0  -1.788982347342629 -0.1286032746453755 0  -1.720610296172812 -0.1614430912435983 0  -1.678557996727917 -0.162811807867154 0  -1.726964375467098 -0.2222413832745106 0  -1.688953235806189 -0.2631386785340077 0  -1.647570010745844 -0.2921601794100088 0  -1.624135587099559 -0.3260672704527934 0  -1.576454605739017 -0.3515813016173251 0  -1.552304091264048 -0.3737629698234714 0  -1.602334405439652 -0.471483331686149 0  -1.4814189503695 -0.4131147244051577 0  -1.495869062684696 -0.5253230729748429 0  -1.442956137624963 -0.5641562043969914 0  -1.396809387272828 -0.5566778159016863 0  -1.364877961170271 -0.5969761870248611 0  -1.322225520647466 -0.6176488843278231 0  -1.289177824952333 -0.6470426758492754 0  -1.256962651483473 -0.6972908661941495 0  -1.196283292841587 -0.6873986934651737 0  -1.179027109906344 -0.7494921882849669 0  -1.132040332691802 -0.7786628936617531 0  -1.084192919717082 -0.8049375309032075 0  -1.039732944005742 -0.8361892311070268 0  -0.9923117358898077 -0.8676814792389201 0  -0.943280548916026 -0.8955292960332868 0  -0.8964376171559681 -0.9325854334360641 0  -0.8408657404574332 -0.9550473711573751 0  -0.7899587849698499 -0.9908056390945799 0  -0.7324705026096293 -1.019501881781766 0  -0.6743353094031538 -1.047309193318173 0  -0.6135854241478798 -1.073407824944323 0  -0.5510733969425589 -1.098578852053429 0  -0.486814234180861 -1.12204708585671 0  -0.4193840851543931 -1.141415994677768 0  -0.3515180038093242 -1.158762712158781 0  -0.2816643853346337 -1.174451783999713 0  -0.2101022907404821 -1.185740901472961 0  -0.137763213781705 -1.194223211008393 0  -0.06458172013327239 -1.198866236664502 0  0.008874533109848799 -1.200007865250785 0  0.08231215528091346 -1.197338436150781 0  0.1553087959748166 -1.191133994893092 0  0.2274159912282279 -1.181322362482634 0  0.2984469126900735 -1.168349809498412 0  0.3679500478904463 -1.152099013654821 0  0.4358821556518437 -1.133376665693733 0  0.5016386030533909 -1.111545474846878 0  0.5658703727228673 -1.088833561510648 0  0.6275873886723433 -1.0622077246059 0  0.6861087189239474 -1.035846050973828 0  0.744612229081167 -1.008900287024867 0  0.7997988122962523 -0.979470151439201 0  0.8532296479297317 -0.949227767874516 0  0.904766615615632 -0.9192052456165023 0  0.9539111003633514 -0.8872218847461633 0  1.001751607182704 -0.8580635907339992 0  1.051731279849081 -0.8296089115244351 0  1.089430791442514 -0.7897198310243635 0  1.135941071512025 -0.7640968576114626 0  1.178920704952779 -0.7327739666374476 0  1.218801029261901 -0.6996736457141589 0  1.257840010022076 -0.6695870729414679 0  1.299515771318994 -0.641219929723169 0  1.349607193825994 -0.6266178055351764 0  1.357818773620571 -0.552641440440618 0  1.394617648833855 -0.542805230857147 0  1.44357955423673 -0.5171480286416588 0  1.468087501366327 -0.4817108588712513 0  1.506624017783292 -0.4531766760330563 0  1.53793403955199 -0.4217048367503537 0  1.571630214948356 -0.3913297996422707 0  1.620176234703233 -0.3741883152405185 0  1.609124990277005 -0.3045301609953802 0  1.63306195060432 -0.2820802600714248 0  1.688561435489319 -0.2638953455503932 0  1.697122309922524 -0.2212924648671304 0  1.723939869278301 -0.185370757139293 0  1.741472736064566 -0.1473910856093283 0  1.758430468311389 -0.1084719027369305 0  1.770984188807213 -0.0685077204506355 0  1.782963472100146 -0.02830808525232658 0  -0.1158416758316746 0.7124359744297277 0  0.7053839524071958 -0.5189607821951439 0  -0.8620775145575765 -0.4450113259926338 0  -0.08726625641222809 -0.7202527822029285 0  0.6898420788489663 0.5240266231537425 0  1.284492517872641 0.1916847052547659 0  -0.8729041484364416 0.4417301819448599 0  -1.386072469331382 0.002032300902404445 0  1.289779037069096 -0.1695415211285873 0  -1.168973904722087 -0.3061734688161378 0  -0.9004643074829135 -0.00654473643114024 0  -0.5401864632096662 -0.1401966311012399 0  -1.180233912472203 0.2962702132832705 0  0.3489757675910989 -0.6810181067120528 0  0.1530123848996586 -0.2229198168946039 0  0.2934876196975083 0.6654627203296433 0  0.3614661286869763 0.1976567852764883 0  0.7301744021642913 0.0116617588740165 0  -0.4899825458902297 -0.5960996033236373 0  -0.5272722214612767 0.6066188784060423 0  -0.3073579307591092 0.2526904421389556 0  1.027943499473193 -0.32381139930174 0  1.01941311696011 0.342139234617498 0  0.4599643233888773 -0.2097877533224342 0  0.02566076733370569 0.2315384691657134 0  -0.609978955074022 0.1930982687215547 0  -0.2032909558488808 -0.2089592065656989 0  1.051245168565231 0.01079434157342611 0  1.495791617260505 0.01268700148342834 0  0.8672405551075435 -0.4147606165112011 0  0.870739475314512 -0.1607985882683296 0  0.703054892545122 -0.2424333219113502 0  0.5902812339673223 -0.09090498110658873 0  0.5783759073017185 -0.3691243754360969 0  1.029987745683247 -0.1524016367837759 0  0.8913086729395151 0.01110030734164406 0  -1.03228239258501 0.1488937201291224 0  -1.275718554053104 0.1422832885694274 0  -1.145449918848191 -0.001832040194601924 0  -1.02729285492415 -0.1598087238930473 0  -1.269497011389074 -0.1443883333512323 0  -1.449174959401112 -0.2163196095173792 0  -1.565351477174724 -0.07789025570944941 0  -1.564412316365639 0.08459806173045514 0  -1.447419298991574 0.2223478407020363 0  -0.1480750726951466 -0.4648280254227045 0  -0.3371824787806742 -0.4076080296450196 0  -0.2946215576443975 -0.665673588121359 0  -0.3705039870880372 -0.171074649157616 0  -0.5120760794877179 -0.3625027136746262 0  -1.36100019782765 -0.3780831635615645 0  -1.363563318007923 0.3767788054189599 0  0.4086600798877538 -0.4399915971494 0  0.3063355860274287 -0.2110154148984982 0  0.2497080563025587 -0.4504578005251141 0  -1.026703623744365 0.3636597985575125 0  -0.8725086519032367 0.2111849389942966 0  1.477648778373957 -0.2327840876009592 0  1.341277270119434 -0.3557959939184815 0  1.332348491736228 0.3782043906310669 0  1.471694346300459 0.2576244438701228 0  -0.872743881823914 -0.6817677049979284 0  -1.056630933350445 -0.5673308347078848 0  -1.05883828924314 0.5678508497860469 0  -0.8742572169626194 0.6777363436718593 0  0.8961311931889477 -0.6630081472364981 0  0.6948428289817109 -0.7731779091574675 0  0.6768115749154693 0.7707730656926809 0  0.8796509899814779 0.6709677867440156 0  0.02276411592424573 -0.960706
[...]
<PointData  Vectors="f_4775"> 
<DataArray  type="Float64"  Name="f_4775"  NumberOfComponents="3" format="ascii">6.8085664438257809e-02 3.8694582765511896e-03 0.0000000000000000e+00  1.7113533404928161e-01 4.4943790115159706e-02 0.0000000000000000e+00  1.3236370254909827e-01 4.5186112290907111e-02 0.0000000000000000e+00  2.8374495585756915e-01 1.1180408095181732e-01 0.0000000000000000e+00  3.1634373230108337e-01 1.0505993371087519e-01 0.0000000000000000e+00  1.4441053147739171e+00 6.7544351899918775e-01 0.0000000000000000e+00  3.1026152824034194e+00 1.0634134532365536e+00 0.0000000000000000e+00  -6.5098544681818116e-01 -1.1392572755168486e+00 0.0000000000000000e+00  -1.7615136168786751e+00 -3.6499552339896093e+00 0.0000000000000000e+00  1.2703167680783571e+00 -4.7367072425289647e-01 0.0000000000000000e+00  -1.4370031067311262e+00 -1.9144989419271343e+00 0.0000000000000000e+00  -2.6298829471571175e+00 -5.6502341572425809e+00 0.0000000000000000e+00  3.8970620566803543e-01 -2.4783675932511945e-01 0.0000000000000000e+00  1.1599154676591821e+00 1.2622336312900275e+00 0.0000000000000000e+00  1.0986401896527971e+00 1.1396709736158865e+00 0.0000000000000000e+00  -1.7102835632041578e+00 -1.2658870866967984e+00 0.0000000000000000e+00  -5.3740144629406750e-01 -2.5972265670816208e-01 0.0000000000000000e+00  1.4682824963271865e+00 4.8638758632716117e-01 0.0000000000000000e+00  -4.9672091013556319e-01 -5.5139889126213415e-01 0.0000000000000000e+00  -2.2064927033121475e+00 -5.8613155574220794e+00 0.0000000000000000e+00  6.2421162083792205e-02 -6.5689031309699286e-01 0.0000000000000000e+00  -2.8399888892433200e-01 -4.9564572833956771e-01 0.0000000000000000e+00  -2.2592074786007549e-01 -2.1593221715276506e-01 0.0000000000000000e+00  1.1046439683504352e+00 1.9844601640963364e+00 0.0000000000000000e+00  8.6927022168252255e-01 1.1004481880255275e+00 0.0000000000000000e+00  -1.1444905397455645e+00 -1.4208078314495576e+00 0.0000000000000000e+00  -3.9194149225023467e-01 -7.0385410735164733e-01 0.0000000000000000e+00  3.5176597287323919e-02 2.3393838840622704e-02 0.0000000000000000e+00  6.4744194037226199e-02 1.0815457731594171e-01 0.0000000000000000e+00  1.0552192926747739e-02 2.0060842026426287e-02 0.0000000000000000e+00  8.7577321997085299e-03 2.1160078427394129e-02 0.0000000000000000e+00  1.4498874596323711e-02 3.4087513680302654e-02 0.0000000000000000e+00  1.9956321799542071e-03 6.1165656962592707e-03 0.0000000000000000e+00  3.8649334878184572e-05 2.4716864577631502e-03 0.0000000000000000e+00  1.2835962687211364e-03 6.0140183705458226e-03 0.0000000000000000e+00  -2.8034541396262970e-03 -7.9085646667105616e-03 0.0000000000000000e+00  -4.3526639349214082e-03 -1.3945044777323785e-02 0.0000000000000000e+00  -4.1706843606358667e-03 -1.7315819316381896e-02 0.0000000000000000e+00  -4.9575457840594500e-03 -2.4992791229585552e-02 0.0000000000000000e+00  -3.9208797629632841e-03 -2.5676979693133130e-02 0.0000000000000000e+00  -2.5728172754997344e-03 -2.5497425113389396e-02 0.0000000000000000e+00  -1.5091975376026506e-03 -2.5691187264939113e-02 0.0000000000000000e+00  -2.6770711668898991e-04 -2.5009159959070413e-02 0.0000000000000000e+00  8.9101802923191196e-04 -2.2462398985543166e-02 0.0000000000000000e+00  2.0010509284010421e-03 -2.0498155245391426e-02 0.0000000000000000e+00  2.1064690826134718e-03 -1.5144547277597693e-02 0.0000000000000000e+00  1.8518127010564329e-03 -6.7143085543335786e-03 0.0000000000000000e+00  3.0441435849594910e-03 -1.0769498976767360e-02 0.0000000000000000e+00  7.2661694523337879e-04 -1.7613246955958703e-03 0.0000000000000000e+00  -5.9952604196213694e-03 2.4029084006152415e-02 0.0000000000000000e+00  8.4328660090966321e-03 -1.9843751329311047e-02 0.0000000000000000e+00  -1.7666194609523701e-03 4.8784610040550538e-03 0.0000000000000000e+00  7.8822527267986744e-03 -1.2706502737023178e-02 0.0000000000000000e+00  5.8733085170900321e-03 -1.3128610594307859e-02 0.0000000000000000e+00  -1.2584106762211597e-01 2.7677236936804583e-01 0.0000000000000000e+00  4.8042966433844647e-02 -7.6998251517652841e-02 0.0000000000000000e+00  5.9300102875515535e-02 -1.1202525044109916e-01 0.0000000000000000e+00  -1.0900995112216756e-01 1.9350535698074472e-01 0.0000000000000000e+00  -2.9652293582598729e-02 5.7126706910771735e-02 0.0000000000000000e+00  3.8606647020793938e-04 -1.0867218863759104e-02 0.0000000000000000e+00  1.6501231454331227e-02 -2.7377766437525507e-02 0.0000000000000000e+00  6.5760327981796785e-01 -3.7597524235976304e-01 0.0000000000000000e+00  5.1438844432712951e+00 -3.5790468482377213e+00 0.0000000000000000e+00  1.6045266766880915e+00 -6.4259536850988930e-01 0.0000000000000000e+00  -1.1402525662313778e+00 3.4555732884670376e+00 0.0000000000000000e+00  -2.5571334563882262e+00 2.4510456001181380e+00 0.0000000000000000e+00  1.6913066581473388e+00 -2.8161161557777632e+00 0.0000000000000000e+00  3.0304980124514262e+00 -3.2325346124525147e+00 0.0000000000000000e+00  2.6014877657534119e-01 8.3805002886927127e-01 0.0000000000000000e+00  -3.1149897642769853e-01 1.8075567216081085e+00 0.0000000000000000e+00  3.0995918550302998e-01 2.6264955235318294e-01 0.0000000000000000e+00  4.9929224739386729e-01 1.8620119417178160e-01 0.0000000000000000e+00  6.6352656574823629e-02 -2.1370347672722886e-01 0.0000000000000000e+00  8.3320265127635096e-01 -4.4592976317271193e-01 0.0000000000000000e+00  -3.1891952177587790e-01 2.8382830022016337e-01 0.0000000000000000e+00  -3.1781689386255585e-01 2.7310538851513444e-01 0.0000000000000000e+00  1.4030725264692362e-01 -4.1454592594443680e-02 0.0000000000000000e+00  3.7784161178743758e-01 -1.9247553681416588e-01 0.0000000000000000e+00  -2.0307690877981271e-02 7.2258418814590286e-01 0.0000000000000000e+00  1.6316219337689131e+00 1.3047660432024408e+00 0.0000000000000000e+00  -1.5999991481281808e-01 3.4439607733094474e-01 0.0000000000000000e+00  -1.1138572428784141e+00 -8.2901892262246279e-01 0.0000000000000000e+00  2.6752655946110311e+00 -1.7947273457768922e-01 0.0000000000000000e+00  3.2133679520262750e+00 -9.1599327948921250e-01 0.0000000000000000e+00  -1.8792826071151669e-01 5.4074201865682093e-03 0.0000000000000000e+00  -1.4544092818774137e+00 -2.9285896735847750e-01 0.0000000000000000e+00  -5.0895112753713712e-01 1.3114691653350807e-01 0.0000000000000000e+00  -7.6984734538345179e-01 5.9911927309793993e-02 0.0000000000000000e+00  -3.1932832395887439e-01 -2.3562196326884324e-01 0.0000000000000000e+00  -9.5560198761269988e-01 -5.0531649923133681e-01 0.0000000000000000e+00  -3.6184498630583417e-01 -1.2847029364808008e-01 0.0000000000000000e+00  -7.3690986462675179e-01 -6.6106581711055634e-01 0.0000000000000000e+00  -8.0260242541341800e-02 -8.0353834727067794e-02 0.0000000000000000e+00  1.1127189151489163e-01 5.1999335122262985e-02 0.0000000000000000e+00  7.5587348114125008e-01 1.0002271593767353e+00 0.0000000000000000e+00  -7.0325165050186281e-02 1.9380067960592723e-01 0.0000000000000000e+00  -1.8206749501103228e-01 1.4709641302592105e-01 0.0000000000000000e+00  -9.9016351018341539e-02 1.1912675223128612e-01 0.0000000000000000e+00  5.3642417092473263e-02 -6.2232883922496307e-01 0.0000000000000000e+00  -1.1305482194462089e+00 -4.9446289490879298e+00 0.0000000000000000e+00  5.6829203157225905e-01 -2.3441175336271289e+00 0.0000000000000000e+00  6.0985560080066961e+00 6.1626406105164762e+00 0.0000000000000000e+00  2.5830668546781026e+00 4.6154787385476821e+00 0.0000000000000000e+00  -7.1163889957800581e+00 -5.5493946720657021e+00 0.0000000000000000e+00  -2.1918067860621595e+00 -5.4100145025046604e+00 0.0000000000000000e+00  6.3458611445815762e+00 7.6009275211587279e-01 0.0000000000000000e+00  1.0239544972096501e+01 5.1311447216061747e+00 0.0000000000000000e+00  6.9254622084279105e-01 -5.2452751161523326e-01 0.0000000000000000e+00  1.6151827457506476e-01 2.5227599568721060e-01 0.0000000000000000e+00  1.5743763705630954e-02 3.2111607815380583e-02 0.0000000000000000e+00  -5.8666922286073164e-01 -9.5245595767424940e-01 0.0000000000000000e+00  -9.8295988422177849e-01 -1.4725338658779397e+00 0.0000000000000000e+00  -3.7324638913074543e-01 -7.4780595927496274e-01 0.0000000000000000e+00  6.8688294582415999e-01 1.2942798214626834e+00 0.0000000000000000e+00  9.5101754243030556e-01 1.5630209592579929e+00 0.0000000000000000e+00  8.0696156550113807e-02 1.1651742607023700e-01 0.0000000000000000e+00  5.0231229043530216e-02 1.0388131652404603e-01 0.0000000000000000e+00  -1.8406657821555328e-03 -3.5984919481614752e-03 0.0000000000000000e+00  2.2411104799787116e-02 5.7476680346992153e-02 0.0000000000000000e+00  3.4147005147547806e-03 -2.8497978825425432e-03 0.0000000000000000e+00  -1.8067930550182926e-03 -5.0073125257083899e-03 0.0000000000000000e+00  8.9380066047668062e-03 3.6230901433093272e-02 0.0000000000000000e+00  5.9377140166885336e-03 2.1687745689241537e-02 0.0000000000000000e+00  2.7672256188140333e-03 2.1893312561267836e-02 0.0000000000000000e+00  3.9147531411214270e-03 3.6014716874270540e-02 0.0000000000000000e+00  1.2260647717444847e-03 2.8524651782028978e-02 0.0000000000000000e+00  -9.1121500759590773e-05 3.2088963391470812e-02 0.0000000000000000e+00  -1.7122350457099830e-03 2.9020283034035668e-02 0.0000000000000000e+00  -3.0508860801134715e-03 2.7717743101593598e-02 0.0000000000000000e+00  -3.9332507319485956e-03 2.4318799198266197e-02 0.0000000000000000e+00  -5.4302297348791315e-03 2.4884667405786310e-02 0.0000000000000000e+00  -4.7986215165880391e-03 1.8421476060907133e-02 0.0000000000000000e+00  -7.8712377324590774e-03 2.3234006073983491e-02 0.0000000000000000e+00  -4.7623075226528987e-03 1.4829146317974981e-02 0.0000000000000000e+00  5.3385559325763643e-03 -1.9112408174244741e-02 0.0000000000000000e+00  -9.7846292634531165e-03 1.9863613582995401e-02 0.0000000000000000e+00  -4.8450900963912143e-03 1.2223597305910506e-02 0.0000000000000000e+00  2.3401186813396271e-02 -5.2140971581725842e-02 0.0000000000000000e+00  -6.5111420845392846e-03 9.3568400131831785e-03 0.0000000000000000e+00  7.3112335803678383e-03 -1.2016476209663982e-02 0.0000000000000000e+00  4.0430791799332594e-02 -5.8855771073623137e-02 0.0000000000000000e+00  2.9253402936306707e-02 -1.6205166403661514e-02 0.0000000000000000e+00  -3.5940354276796499e-01 5.8163406653737859e-01 0.0000000000000000e+00  -1.0827461906617701e+00 1.2427835870771151e+00 0.0000000000000000e+00  7.7918105455296660e-01 -9.0703701697856387e-01 0.0000000000000000e+00  1.0524776858679250e+00 -1.7238529686116024e+00 0.0000000000000000e+00  -1.4424030930649742e-01 1.1086942200087518e-01 0.0000000000000000e+00  -2.0443335962732934e-01 3.6897159747521296e-01 0.0000000000000000e+00  1.1095781828578219e-01 5.7608055876969166e-01 0.0000000000000000e+00  -1.8509942275870428e+00 5.1099697322537967e+00 0.0000000000000000e+00  -2.3775012334893414e-01 3.7206449504328365e-01 0.0000000000000000e+00  2.1278525930073227e+00 -1.6911213705739758e+00 0.0000000000000000e+00  4.6506780211360715e-01 -2.5217417517044720e+00 0.0000000000000000e+00  -1.5914630589479131e+00 9.1041063551263157e-01 0.0000000000000000e+00  7.3833018097166447e-01 -7.4914430324227010e-01 0.0000000000000000e+00  1.0871303243628216e+00 -1.2015186975828018e+00 0.0000000000000000e+00  3.5695448529241802e-01 1.6629498152493180e-01 0.0000000000000000e+00  -2.2781454087975170e+00 4.7121460814273037e+00 0.0000000000000000e+00  -1.2718444479079107e+00 1.6185897893108396e+00 0.0000000000000000e+00  9.4584357655794671e-01 4.4840632331753671e-01 0.0000000000000000e+00  -1.4723219589624092e+00 3.0433485962118447e+00 0.0000000000000000e+00  -4.9902177103537759e-01 9.7854843250953893e-01 0.0000000000000000e+00  2.6163911644206594e+00 -8.0254971132615582e-01 0.0000000000000000e+00  1.2063185123301046e+00 -5.3129006938662648e-01 0.0000000000000000e+00  2.4723584536407495e-01 -7.4362584165189885e-02 0.0000000000000000e+00  1.9858705439444765e-01 -7.0395207495158763e-02 0.0000000000000000e+00  9.0706586871835596e-02 -3.0801087344280591e-02 0.0000000000000000e+00  5.2473677074914744e-02 -1.1928693455515425e-02 0.0000000000000000e+00  2.7255844644478365e-05 6.2571464825137996e-06 0.0000000000000000e+00  -1.6520122207241381e-05 -4.1103207267459702e-05 0.0000000000000000e+00  1.0888776860341249e-05 -5.2933418323152881e-05 0.0000000000000000e+00  3.7352119541972015e-05 -2.5787444501526341e-06 0.0000000000000000e+00  -1.6910624320273877e-05 4.7067707128779009e-05 0.0000000000000000e+00  3.6319379406648530e-06 3.7097830490036632e-05 0.0000000000000000e+00  8.0554076648376612e-06 4.0291403272629643e-05 0.0000000000000000e+00  -6.4775390831845920e-06 -1.5663490601199953e-05 0.0000000000000000e+00  2.9450257991378502e-06 -2.9959648024196711e-05 0.0000000000000000e+00  5.3553223499610333e-06 -2.5467976220503651e-05 0.0000000000000000e+00  1.6830125904074126e-06 -9.7620131697809590e-06 0.0000000000000000e+00  2.1337946300073175e-05 -6.9266617466813069e-05 0.0000000000000000e+00  4.0064036359879979e-08 9.1040077938144215e-06 0.0000000000000000e+00  -2.2888300817675879e-05 -1.7450071682204949e-05 0.0000000000000000e+00  -4.0106017513409870e-05 -3.8600620598534222e-05 0.0000000000000000e+00  -3.0825669795440503e-05 1.9800732446262814e-05 0.0000000000000000e+00  -2.4941950231289085e-05 1.5066870758654832e-05 0.0000000000000000e+00  -4.5391813740468495e-06 -5.6146569824817811e-06 0.0000000000000000e+00  4.8872647257717085e-05 -4.9324795235166343e-05 0.0000000000000000e+00  3.0843880219671547e-05 4.2020668462736323e-05 0.0000000000000000e+00  2.3535157708242445e-05 6.6677673023032581e-05 0.0000000000000000e+00  -2.1232120717757963e-07 -4.3106973228245122e-05 0.0000000000000000e+00  8.9351191149271113e-07 5.0017615018690807e-05 0.0000000000000000e+00  -2.7482678120937691e-05 -4.1023739339742332e-05 0.0000000000000000e+00  -1.6671691153265537e-04 -4.7786918971994712e-05 0.0000000000000000e+00  1.4559079085320033e-05 3.4196643163974968e-05 0.0000000000000000e+00  1.1722461747951633e-04 -1.5366257594107786e-04 0.0000000000000000e+00  -2.8954595511150897e-06 1.1866797645413259e-06 0.0000000000000000e+00  3.2440385415123327e-06 2.7954569085178731e-06 0.0000000000000000e+00  -6.1608913891613519e-06 -4.3315856923608957e-05 0.0000000000000000e+00  3.2834335206786134e-07 -4.1982728294383208e-05 0.0000000000000000e+00  -4.2724133818617909e-06 -3.1210644227770137e-05 0.0000000000000000e+00  -2.1260674350601940e-05 -6.4724611025541252e-05 0.0000000000000000e+00  -1.8080418737202115e-05 -2.5704646863270708e-05 0.0000000000000000e+00  -1.2012994360884979e-06 -1.2650846352552341e-05 0.0000000000000000e+00  -1.0508393952006164e-07 1.2305169503576565e-06 0.0000000000000000e+00  -1.3034395821863768e-07 1.0164545012585104e-05 0.0000000000000000e+00  -4.7988365740292349e-06 -1.0689968237298747e-05 0.0000000000000000e+00  -8.0172113312721311e-07 -1.3409641534717032e-05 0.0000000000000000e+00  1.9823043889936339e-06 -2.7365974533685127e-05 0.0000000000000000e+00  2.7920090531030714e-06 -1.2402096723713424e-05 0.0000000000000000e+00  -8.4461194719907553e-06 -8.4040443583769463e-06 0.0000000000000000e+00  1.6327162041387007e-05 2.0069257556407700e-05 0.0000000000000000e+00  -1.5318233813422225e-04 1.4530637984455749e-05 0.0000000000000000e+00  7.7639124926793072e-07 -2.0703717106961911e-05 0.0000000000000000e+00  1.1888013345580530e-04 -2.6193589470788735e-05 0.0000000000000000e+00  7.9592403260414718e-05 -7.2373288123321012e-05 0.0000000000000000e+00  6.0584865021846275e-05 -2.7851379693643946e-05 0.0000000000000000e+00  1.5031552330567227e-05 -8.8426484493770336e-05 0.0000000000000000e+00  3.5851822259576223e-05 -6.3620167784269663e-05 0.0000000000000000e+00  -7.4945080808981666e-05 2.3758622005956641e-05 0.0000000000000000e+00  -1.1061226365280153e-05 -4.9774330412300725e-05 0.0000000000000000e+00  -3.1945782753206497e-05 -3.5375764523662306e-05 0.0000000000000000e+00  -4.4790690978962588e-05 -6.1349997693491731e-05 0.0000000000000000e+00  -7.0694747498597143e-06 -9.1635717821611355e-06 0.0000000000000000e+00  2.1812693378634254e-06 2.7697916428072320e-05 0.0000000000000000e+00  6.7394979024078521e-07 1.5723737708125122e-05 0.0000000000000000e+00  2.5909268820529231e-05 -6.9100598760618465e-05 0.0000000000000000e+00  2.7260948269391605e-05 -7.4019263334335048e-05 0.0000000000000000e+00  2.9578812281159768e-05 8.6501818992418809e-05 0.0000000000000000e+00  3.0598758821473329e-05 8.2932974777723679e-05 0.0000000000000000e+00  1.4612606154985175e-05 -5.9802211999784191e-05 0.0000000000000000e+00  -2.4761368695991180e-05 -8.6595845756254249e-05 0.0000000000000000e+00  -1.3149289642142036e-05 7.6297795285697328e-05 0.0000000000000000e+00  1.1273308910240797e-05 6.2660376163376936e-05 0.0000000000000000e+00  -9.7414205322470735e-06 -5.5646646933701686e-05 0.0000000000000000e+00  -2.0032634278976022e-05 -3.8410531537278818e-05 0.0000000000000000e+00  -2.2518909603682858e-05 5.0007980271352729e-05 0.0000000000000000e+00  -9.0932815570987375e-06 6.7189871546033988e-05 0.0000000000000000e+00  1.1188928778125293e-05 6.5323195650704349e-07 0.0000000000000000e+00  2.8530231910640092e-05 -5.6627406140624697e-06 0.0000000000000000e+00  2.4613529849991481e-05 9.3369081795377919e-06 0.0000000000000000e+00  6.9312904710972943e-06 -1.0260408061136557e-07 0.0000000000000000e+00  -2.3354061581530308e-05 -3.2251593274836356e-05 0.0000000000000000e+00  -1.1587490822208692e-05 6.8308619661968829e-05 0.0000000000000000e+00  -1.1223524574994727e-06 3.2621065532695046e-05 0.0000000000000000e+00  -1.7574211542191931e-05 1.3520721948213349e-05 0.0000000000000000e+00  1.2474096644467707e-05 -4.0409850335799738e-05 0.0000000000000000e+00  9.2026325564826416e-06 -5.5629905289253032e-05 0.0000000000000000e+00  3.5406581777660219e-06 -3.4386191464068754e-05 0.0000000000000000e+00  9.2174519794830105e-05 -4.0593064272966882e-05 0.0000000000000000e+00  7.5029828393607823e-03 4.9265265458550457e-03 0.0000000000000000e+00  -3.7305092700427530e-05 -1.4932163436280185e-04 0.0000000000000000e+00  -1.8074171807374076e-05 -1.1631566396103885e-04 0.0000000000000000e+00  -6.5737196938697051e-06 1.1335512798519724e-04 0.0000000000000000e+00  3.5464612807202414e-06 -4.4096861685282134e-05 0.0000000000000000e+00  1.7130137351627488e-06 4.2636956977893471e-05 0.0000000000000000e+00  -4.6892195229026536e-06 4.8445391090189152e-05 0.0000000000000000e+00  -9.9908811833181307e-07 1.5537009359335976e-05 0.0000000000000000e+00  -3.0658420327905013e-05 3.3246332122594671e-05 0.0000000000000000e+00  -2.7614039480252804e-05 3.9073560915547351e-05 0.0000000000000000e+00  2.0848224277476596e-05 5.6134779496329844e-06 0.0000000000000000e+00  -4.4679687446219792e-06 -1.2696348414273698e-06 0.0000000000000000e+00  3.2436187794120396e-05 4.9526347247925862e-05 0.0000000000000000e+00  5.7456571424789241e-05 3.0752731049792465e-05 0.0000000000000000e+00  4.0704740269244180e-05 2.7213698894590664e-05 0.0000000000000000e+00  -1.4121804520820158e-05 -5.9540002549803375e-05 0.0000000000000000e+00  2.6677931644746180e-04 2.9299316413138087e-05 0.0000000000000000e+00  -2.1093612923188870e-05 -1.9310048905876842e-05 0.0000000000000000e+00  -1.4742474184944825e-05 -5.8619437701334720e-06 0.0000000000000000e+00  -1.8584542608438789e-05 6.9955791838913412e-06 0.0000000000000000e+00  -2.7373235117421894e-05 2.6707533158045084e-05 0.0000000000000000e+00  -6.7471551547717374e-03 -4.1987313165196708e-04 0.0000000000000000e+00  -2.3066870352739057e-05 7.7892461012437025e-06 0.0000000000000000e+00  -6.6665786976577939e-06 2.2617346149292556e-08 0.0000000000000000e+00  4.0155003300192433e-05 -2.6477914768071443e-05 0.0000000000000000e+00  3.1222340446575235e-05 -4.4966607573948715e-05 0.0000000000000000e+00  2.6946045484805005e-05 -5.5377665230175472e-05 0.0000000000000000e+00  2.4354736841939465e-05 4.7375254830774944e-05 0.0000000000000000e+00  3.2978452816107881e-05 2.9818458512899745e-05 0.0000000000000000e+00  1.8444731501683369e-05 4.6065890910537272e-05 0.0000000000000000e+00  8.9722685650804476e-06 3.4717564072598797e-05 0.0000000000000000e+00  7.7350343516475