<?xml version="1.0"?>
<VTKFile type="UnstructuredGrid"  version="0.1"  >
<UnstructuredGrid>
<Piece  NumberOfPoints="2549" NumberOfCells="4928">
<Points>
<DataArray  type="Float64"  NumberOfComponents="3"  format="ascii">1.786972968461169 0.0149150379794068 0  1.783061839573749 0.05835121516345818 0  1.770510161342552 0.0990189445096574 0  1.756873575068733 0.1388207897386143 0  1.738558160851111 0.1773640690289725 0  1.720224811440088 0.2149889517686886 0  1.692660671730368 0.2505089900822265 0  1.682575788291522 0.2924780938172615 0  1.627210356802573 0.3101365635482068 0  1.602987418322397 0.3329224428603163 0  1.611118495118018 0.4016041972037033 0  1.562445840818318 0.418149589368298 0  1.528240280469199 0.447912942971971 0  1.496026511837979 0.4786232895045047 0  1.457397896505619 0.5067814846556458 0  1.431092693640171 0.5414498747805785 0  1.381084901461555 0.5638970824626141 0  1.34651944977478 0.5782069824421382 0  1.332063642581538 0.6470872847692732 0  1.282455089597592 0.660762253304639 0  1.240633952712032 0.6887127007415638 0  1.2004823377522 0.7172960759730418 0  1.159654408668165 0.7490417340808774 0  1.115687016836526 0.7784506216564147 0  1.068531521681526 0.8021546072712311 0  1.029505644339841 0.8403568474268344 0  0.9788205096422605 0.8663936231799408 0  0.9304506675188297 0.8932193246157701 0  0.8807578311403543 0.9226717757684471 0  0.8288546083548611 0.9499406578273354 0  0.7754285971138426 0.9774260492632407 0  0.7200259486557844 1.003342512908811 0  0.6626695356059557 1.028232982670918 0  0.604133513740611 1.051993658443604 0  0.5431860713120892 1.074617362111808 0  0.4805162422618873 1.095148750000032 0  0.4161483129432164 1.114062627872386 0  0.3501155924752754 1.130542936632746 0  0.2826147804995062 1.144735917046008 0  0.2138614415609119 1.156279003988313 0  0.1439248206109351 1.164817100887586 0  0.07357363347342689 1.170179943346676 0  0.002468223144781704 1.172793793106628 0  -0.06855760389720811 1.172052911400226 0  -0.1395127791897159 1.168107501264359 0  -0.2097494971950372 1.160831395958198 0  -0.2793090713842354 1.150770383042921 0  -0.3475232604466472 1.137370325302071 0  -0.4141724365267939 1.121511600759617 0  -0.4798123617783254 1.103560660009947 0  -0.5432885714279397 1.08294018933106 0  -0.6049511823794523 1.059780072334788 0  -0.6649423930306271 1.036000013915904 0  -0.7223606375617893 1.009171133377297 0  -0.7789566601103586 0.9841862477675859 0  -0.8332731224662917 0.9545351697723666 0  -0.8829429541182021 0.924748432911573 0  -0.9348093513456407 0.8972130256818828 0  -0.9833996956918634 0.8677752850229243 0  -1.030639822133769 0.8370863390454745 0  -1.07568103386909 0.8072298381272606 0  -1.122605278763706 0.7801861459732505 0  -1.168953673743533 0.7530932747928131 0  -1.193921859768398 0.6970489738446891 0  -1.246664316357006 0.697174345841504 0  -1.28329256830586 0.6540047115636651 0  -1.317167142006081 0.6240105921212424 0  -1.359512157798299 0.6029060123208843 0  -1.392228579753809 0.5630479308123923 0  -1.436330636360727 0.5680921145273532 0  -1.490337435057014 0.5297300399720537 0  -1.469478748528573 0.4135461642382467 0  -1.599534353735071 0.4818162306614012 0  -1.543873118060328 0.379917880573822 0  -1.575053577806158 0.3623914255914436 0  -1.622373704795102 0.3368178859563437 0  -1.645477892776196 0.3024248956159138 0  -1.68976361169407 0.2763696265437729 0  -1.7378514316044 0.239792278711113 0  -1.675342011333853 0.172426625113309 0  -1.714293494192641 0.1673706998975339 0  -1.793652088518987 0.1399585518812501 0  -1.754524114736236 0.09050469323419758 0  -1.780541307026179 0.0487539825662528 0  -1.778939678919096 0.00519302956095055 0  -1.783694253724989 -0.03955569029298846 0  -1.758596405415005 -0.0811907296104106 0  -1.788982347342629 -0.1286032746453755 0  -1.720610296172812 -0.1614430912435983 0  -1.678557996727917 -0.162811807867154 0  -1.726964375467098 -0.2222413832745106 0  -1.688953235806189 -0.2631386785340077 0  -1.647570010745844 -0.2921601794100088 0  -1.624135587099559 -0.3260672704527934 0  -1.576454605739017 -0.3515813016173251 0  -1.552304091264048 -0.3737629698234714 0  -1.602334405439652 -0.471483331686149 0  -1.4814189503695 -0.4131147244051577 0  -1.495869062684696 -0.5253230729748429 0  -1.442956137624963 -0.5641562043969914 0  -1.396809387272828 -0.5566778159016863 0  -1.364877961170271 -0.5969761870248611 0  -1.322225520647466 -0.6176488843278231 0  -1.289177824952333 -0.6470426758492754 0  -1.256962651483473 -0.6972908661941495 0  -1.196283292841587 -0.6873986934651737 0  -1.179027109906344 -0.7494921882849669 0  -1.132040332691802 -0.7786628936617531 0  -1.084192919717082 -0.8049375309032075 0  -1.039732944005742 -0.8361892311070268 0  -0.9923117358898077 -0.8676814792389201 0  -0.943280548916026 -0.8955292960332868 0  -0.8964376171559681 -0.9325854334360641 0  -0.8408657404574332 -0.9550473711573751 0  -0.7899587849698499 -0.9908056390945799 0  -0.7324705026096293 -1.019501881781766 0  -0.6743353094031538 -1.047309193318173 0  -0.6135854241478798 -1.073407824944323 0  -0.5510733969425589 -1.098578852053429 0  -0.486814234180861 -1.12204708585671 0  -0.4193840851543931 -1.141415994677768 0  -0.3515180038093242 -1.158762712158781 0  -0.2816643853346337 -1.174451783999713 0  -0.2101022907404821 -1.185740901472961 0  -0.137763213781705 -1.194223211008393 0  -0.06458172013327239 -1.198866236664502 0  0.008874533109848799 -1.200007865250785 0  0.08231215528091346 -1.197338436150781 0  0.1553087959748166 -1.191133994893092 0  0.2274159912282279 -1.181322362482634 0  0.2984469126900735 -1.168349809498412 0  0.3679500478904463 -1.152099013654821 0  0.4358821556518437 -1.133376665693733 0  0.5016386030533909 -1.111545474846878 0  0.5658703727228673 -1.088833561510648 0  0.6275873886723433 -1.0622077246059 0  0.6861087189239474 -1.035846050973828 0  0.744612229081167 -1.008900287024867 0  0.7997988122962523 -0.979470151439201 0  0.8532296479297317 -0.949227767874516 0  0.904766615615632 -0.9192052456165023 0  0.9539111003633514 -0.8872218847461633 0  1.001751607182704 -0.8580635907339992 0  1.051731279849081 -0.8296089115244351 0  1.089430791442514 -0.7897198310243635 0  1.135941071512025 -0.7640968576114626 0  1.178920704952779 -0.7327739666374476 0  1.218801029261901 -0.6996736457141589 0  1.257840010022076 -0.6695870729414679 0  1.299515771318994 -0.641219929723169 0  1.349607193825994 -0.6266178055351764 0  1.357818773620571 -0.552641440440618 0  1.394617648833855 -0.542805230857147 0  1.44357955423673 -0.5171480286416588 0  1.468087501366327 -0.4817108588712513 0  1.506624017783292 -0.4531766760330563 0  1.53793403955199 -0.4217048367503537 0  1.571630214948356 -0.3913297996422707 0  1.620176234703233 -0.3741883152405185 0  1.609124990277005 -0.3045301609953802 0  1.63306195060432 -0.2820802600714248 0  1.688561435489319 -0.2638953455503932 0  1.697122309922524 -0.2212924648671304 0  1.723939869278301 -0.185370757139293 0  1.741472736064566 -0.1473910856093283 0  1.758430468311389 -0.1084719027369305 0  1.770984188807213 -0.0685077204506355 0  1.782963472100146 -0.02830808525232658 0  -0.1158416758316746 0.7124359744297277 0  0.7053839524071958 -0.5189607821951439 0  -0.8620775145575765 -0.4450113259926338 0  -0.08726625641222809 -0.7202527822029285 0  0.6898420788489663 0.5240266231537425 0  1.284492517872641 0.1916847052547659 0  -0.8729041484364416 0.4417301819448599 0  -1.386072469331382 0.002032300902404445 0  1.289779037069096 -0.1695415211285873 0  -1.168973904722087 -0.3061734688161378 0  -0.9004643074829135 -0.00654473643114024 0  -0.5401864632096662 -0.1401966311012399 0  -1.180233912472203 0.2962702132832705 0  0.3489757675910989 -0.6810181067120528 0  0.1530123848996586 -0.2229198168946039 0  0.2934876196975083 0.6654627203296433 0  0.3614661286869763 0.1976567852764883 0  0.7301744021642913 0.0116617588740165 0  -0.4899825458902297 -0.5960996033236373 0  -0.5272722214612767 0.6066188784060423 0  -0.3073579307591092 0.2526904421389556 0  1.027943499473193 -0.32381139930174 0  1.01941311696011 0.342139234617498 0  0.4599643233888773 -0.2097877533224342 0  0.02566076733370569 0.2315384691657134 0  -0.609978955074022 0.1930982687215547 0  -0.2032909558488808 -0.2089592065656989 0  1.051245168565231 0.01079434157342611 0  1.495791617260505 0.01268700148342834 0  0.8672405551075435 -0.4147606165112011 0  0.870739475314512 -0.1607985882683296 0  0.703054892545122 -0.2424333219113502 0  0.5902812339673223 -0.09090498110658873 0  0.5783759073017185 -0.3691243754360969 0  1.029987745683247 -0.1524016367837759 0  0.8913086729395151 0.01110030734164406 0  -1.03228239258501 0.1488937201291224 0  -1.275718554053104 0.1422832885694274 0  -1.145449918848191 -0.001832040194601924 0  -1.02729285492415 -0.1598087238930473 0  -1.269497011389074 -0.1443883333512323 0  -1.449174959401112 -0.2163196095173792 0  -1.565351477174724 -0.07789025570944941 0  -1.564412316365639 0.08459806173045514 0  -1.447419298991574 0.2223478407020363 0  -0.1480750726951466 -0.4648280254227045 0  -0.3371824787806742 -0.4076080296450196 0  -0.2946215576443975 -0.665673588121359 0  -0.3705039870880372 -0.171074649157616 0  -0.5120760794877179 -0.3625027136746262 0  -1.36100019782765 -0.3780831635615645 0  -1.363563318007923 0.3767788054189599 0  0.4086600798877538 -0.4399915971494 0  0.3063355860274287 -0.2110154148984982 0  0.2497080563025587 -0.4504578005251141 0  -1.026703623744365 0.3636597985575125 0  -0.8725086519032367 0.2111849389942966 0  1.477648778373957 -0.2327840876009592 0  1.341277270119434 -0.3557959939184815 0  1.332348491736228 0.3782043906310669 0  1.471694346300459 0.2576244438701228 0  -0.872743881823914 -0.6817677049979284 0  -1.056630933350445 -0.5673308347078848 0  -1.05883828924314 0.5678508497860469 0  -0.8742572169626194 0.6777363436718593 0  0.8961311931889477 -0.6630081472364981 0  0.6948428289817109 -0.7731779091574675 0  0.6768115749154693 0.7707730656926809 0  0.8796509899814779 0.6709677867440156 0  0.02276411592424573 -0.960706
[...]
<PointData  Vectors="f_4800"> 
<DataArray  type="Float64"  Name="f_4800"  NumberOfComponents="3" format="ascii">5.5326701388845038e-02 3.0471948314335091e-04 0.0000000000000000e+00  1.2347363850322718e-01 2.4432749954242217e-02 0.0000000000000000e+00  8.9140066400969609e-02 2.8493692512766348e-02 0.0000000000000000e+00  1.8682101434878262e-01 7.6779298475457197e-02 0.0000000000000000e+00  1.6537884778186443e-01 8.0057846512391950e-02 0.0000000000000000e+00  8.6534985772791972e-01 5.0909786008843105e-01 0.0000000000000000e+00  2.0115429762199173e+00 1.0213627451080249e+00 0.0000000000000000e+00  -6.0259031384683692e-01 -5.8748881342777981e-01 0.0000000000000000e+00  -1.5019675038826443e+00 -2.2731538124800985e+00 0.0000000000000000e+00  8.1055595834991057e-01 2.5454212208218974e-01 0.0000000000000000e+00  -1.1048040184082761e+00 -8.4977333434835989e-01 0.0000000000000000e+00  -2.2522325990310832e+00 -3.4163064581242963e+00 0.0000000000000000e+00  1.3450325144018921e-01 1.1591620615312738e-01 0.0000000000000000e+00  7.5223581672954254e-01 8.7695543629624939e-01 0.0000000000000000e+00  7.8962449426312931e-01 8.1664857073108243e-01 0.0000000000000000e+00  -8.8851012958621245e-01 -1.1352760082300326e+00 0.0000000000000000e+00  -1.3372417262362918e-01 -3.0352088694907065e-01 0.0000000000000000e+00  7.8924734562821131e-01 6.9404526625378982e-01 0.0000000000000000e+00  -2.3461178197506602e-01 -3.1496227277976807e-01 0.0000000000000000e+00  -1.9212029410048277e+00 -3.7660444584453310e+00 0.0000000000000000e+00  -6.3823761699517853e-02 -1.4139794328935609e-01 0.0000000000000000e+00  -2.1976315205091390e-01 -2.9803926010427029e-01 0.0000000000000000e+00  -1.5807321384335471e-01 -2.1292342022848051e-01 0.0000000000000000e+00  8.0243078330739326e-01 1.3316787169105671e+00 0.0000000000000000e+00  5.5607242231265652e-01 7.9576069029528629e-01 0.0000000000000000e+00  -7.4201189880894025e-01 -1.0533683967017906e+00 0.0000000000000000e+00  -2.5420934102766918e-01 -4.4982392878614824e-01 0.0000000000000000e+00  2.2700119359008938e-02 3.9402961672537630e-02 0.0000000000000000e+00  4.0046698709015921e-02 7.1800513106961936e-02 0.0000000000000000e+00  4.1304649477016701e-03 7.8883042297007849e-03 0.0000000000000000e+00  4.7500870343532070e-03 9.7619049912850732e-03 0.0000000000000000e+00  8.8015528787124767e-03 1.9477595253646177e-02 0.0000000000000000e+00  -2.2056407742733001e-04 -5.8774407167912603e-04 0.0000000000000000e+00  -8.9518276283261794e-04 -2.2736465285822568e-03 0.0000000000000000e+00  1.8363597290007154e-04 5.5155824563811820e-04 0.0000000000000000e+00  -2.7740475456191054e-03 -9.0340779613639066e-03 0.0000000000000000e+00  -3.4678742816056708e-03 -1.2746662580728828e-02 0.0000000000000000e+00  -3.3726152772341074e-03 -1.4747572899278982e-02 0.0000000000000000e+00  -3.7521571181369172e-03 -1.9900219309222818e-02 0.0000000000000000e+00  -2.9247420959776400e-03 -2.0181925072427057e-02 0.0000000000000000e+00  -2.0033400771831454e-03 -2.0217996007640390e-02 0.0000000000000000e+00  -1.1423905083928457e-03 -2.0187047087245797e-02 0.0000000000000000e+00  -2.5556604032815432e-04 -1.9676530146175399e-02 0.0000000000000000e+00  5.8148435046909358e-04 -1.7897521909411851e-02 0.0000000000000000e+00  1.3267607380670237e-03 -1.6651345014770842e-02 0.0000000000000000e+00  1.6075546658016362e-03 -1.3179902464349649e-02 0.0000000000000000e+00  1.2502539773361415e-03 -7.2607704432781075e-03 0.0000000000000000e+00  2.2572708459792181e-03 -1.0402224049060344e-02 0.0000000000000000e+00  1.1983198960232621e-03 -4.9069773563241055e-03 0.0000000000000000e+00  -4.2335307662183666e-03 1.4264214863108592e-02 0.0000000000000000e+00  6.0313706951868771e-03 -1.7133266947743076e-02 0.0000000000000000e+00  -6.4685507665860318e-04 1.5032502405455050e-03 0.0000000000000000e+00  5.1485193396117188e-03 -1.1686418749522906e-02 0.0000000000000000e+00  8.4639571695175348e-03 -1.9670832515463223e-02 0.0000000000000000e+00  -9.4149153810508493e-02 1.9133571739952104e-01 0.0000000000000000e+00  3.4633137133279195e-02 -6.0686153008797400e-02 0.0000000000000000e+00  4.7609677370924579e-02 -8.4311506083978791e-02 0.0000000000000000e+00  -7.7518054634562850e-02 1.3521008216592803e-01 0.0000000000000000e+00  -2.1585542176482297e-02 3.5632258326843538e-02 0.0000000000000000e+00  7.4689583895518052e-03 -1.0664204646540172e-02 0.0000000000000000e+00  -1.1270811698126249e-03 2.9066546974457676e-03 0.0000000000000000e+00  1.9242427290972769e-01 -2.0901122954575763e-01 0.0000000000000000e+00  2.9941680554924512e+00 -2.9179754738597383e+00 0.0000000000000000e+00  5.5794428557614029e-01 -7.5986913367635556e-01 0.0000000000000000e+00  -1.1295710406326211e+00 2.1856377311261310e+00 0.0000000000000000e+00  -1.6460835268781637e+00 1.7844034026462730e+00 0.0000000000000000e+00  1.2620588830657546e+00 -1.8016628609568643e+00 0.0000000000000000e+00  1.7818630750478335e+00 -2.3390135806668679e+00 0.0000000000000000e+00  -2.0269977416222995e-01 5.0091502983505620e-01 0.0000000000000000e+00  -3.5585537966018399e-01 1.1445297939329171e+00 0.0000000000000000e+00  1.1136976014507211e-01 -5.3376616525981314e-03 0.0000000000000000e+00  8.6037814421594694e-02 -8.7508987113931444e-02 0.0000000000000000e+00  8.7500799376763694e-02 -5.4727114766030351e-02 0.0000000000000000e+00  5.7143644127423021e-01 -2.3828119212605892e-01 0.0000000000000000e+00  -1.4911859379319425e-01 2.7327131874687838e-01 0.0000000000000000e+00  -1.8975166508912172e-01 2.1920758925769371e-01 0.0000000000000000e+00  4.0360194553361907e-02 -5.0462427360538790e-02 0.0000000000000000e+00  1.8084754642605050e-01 -2.3450049360701006e-01 0.0000000000000000e+00  -1.2736544171097736e-01 2.6085361685368656e-02 0.0000000000000000e+00  6.7725994946369095e-01 -2.3472541675458372e-01 0.0000000000000000e+00  -1.2818399775563469e-01 2.0461136239779049e-01 0.0000000000000000e+00  -5.7688618451504825e-01 1.9917156614064474e-01 0.0000000000000000e+00  1.8406657490632223e+00 -1.2335601104932157e-02 0.0000000000000000e+00  2.1818717689945455e+00 -4.8388524620233214e-01 0.0000000000000000e+00  -1.8372546232530051e-01 -8.3577149880770685e-03 0.0000000000000000e+00  -9.9107805915718206e-01 -1.8156659477078169e-01 0.0000000000000000e+00  -2.7414758648582016e-01 -2.6248926158943409e-02 0.0000000000000000e+00  -4.5495398327821879e-01 -1.3157438910069477e-01 0.0000000000000000e+00  -1.3966014861046741e-01 -1.7081334997704817e-01 0.0000000000000000e+00  -6.2811328985364401e-01 -3.2900094061736879e-01 0.0000000000000000e+00  -2.1242251599345105e-01 -4.7277784478794126e-02 0.0000000000000000e+00  -4.6997656912765079e-01 -4.7177379830651894e-01 0.0000000000000000e+00  -4.4058332519962294e-02 -4.3082487093481649e-02 0.0000000000000000e+00  3.7575963424790922e-02 4.3526415135404291e-02 0.0000000000000000e+00  5.1872495325524492e-01 6.7711041738081967e-01 0.0000000000000000e+00  -2.2890585360608798e-02 1.0063126994561380e-02 0.0000000000000000e+00  -2.3555926769496232e-02 -2.0137259938922524e-02 0.0000000000000000e+00  3.6095944595693069e-02 2.5894798355204307e-02 0.0000000000000000e+00  -4.1908353863813422e-03 -1.4704618765025562e-01 0.0000000000000000e+00  -9.6694218325873771e-01 -3.1306283023442401e+00 0.0000000000000000e+00  -5.0823613815998303e-01 -1.3308274150413140e+00 0.0000000000000000e+00  3.5333885223324022e+00 4.6109541872205684e+00 0.0000000000000000e+00  2.0263944074681826e+00 2.9202766661962745e+00 0.0000000000000000e+00  -4.3707192610781798e+00 -4.2399665509306823e+00 0.0000000000000000e+00  -1.8246814745555824e+00 -3.4605632129568682e+00 0.0000000000000000e+00  1.6697834670621388e+00 2.2855208203277591e+00 0.0000000000000000e+00  5.7018489121724381e+00 4.7614761603006182e+00 0.0000000000000000e+00  -9.1868705747584725e-02 -3.7398648016157432e-01 0.0000000000000000e+00  1.1106491046092325e-01 1.7668728028258024e-01 0.0000000000000000e+00  3.6520246704764399e-02 5.1579385891349715e-02 0.0000000000000000e+00  -3.8679478974917225e-01 -6.1812409403410740e-01 0.0000000000000000e+00  -6.4956826292986203e-01 -9.8574480388400976e-01 0.0000000000000000e+00  -2.9735864288132574e-01 -5.0411227443380258e-01 0.0000000000000000e+00  4.8222730648861750e-01 8.7487589011087374e-01 0.0000000000000000e+00  6.2135404943265105e-01 1.0661308908943179e+00 0.0000000000000000e+00  2.2218038717822686e-02 3.7686589724613750e-02 0.0000000000000000e+00  3.1367281790767670e-02 6.8808414137153578e-02 0.0000000000000000e+00  -1.4845306992364847e-03 -3.6008266701688585e-03 0.0000000000000000e+00  1.5829871721912223e-02 4.1641321936554822e-02 0.0000000000000000e+00  2.3377052601871693e-04 -9.3487824372497601e-05 0.0000000000000000e+00  -2.8265190661527995e-04 -4.4339616795498703e-04 0.0000000000000000e+00  6.4938421106526378e-03 2.7366595959603442e-02 0.0000000000000000e+00  3.3305682528699224e-03 1.6894723905455093e-02 0.0000000000000000e+00  2.2475809474056230e-03 1.7032694243666751e-02 0.0000000000000000e+00  2.4609317321863966e-03 2.6848966478052742e-02 0.0000000000000000e+00  8.2861564723207273e-04 2.1472180591685038e-02 0.0000000000000000e+00  -2.3887633900485710e-04 2.4151312141759852e-02 0.0000000000000000e+00  -1.3393259593202870e-03 2.2123380249822737e-02 0.0000000000000000e+00  -2.3704885819656519e-03 2.1542300185807044e-02 0.0000000000000000e+00  -3.0366167044026905e-03 1.9094981032443708e-02 0.0000000000000000e+00  -4.1020675266216413e-03 1.9726726986977434e-02 0.0000000000000000e+00  -3.8471406971486485e-03 1.5181905484330876e-02 0.0000000000000000e+00  -5.7549023422334830e-03 1.8850881870193629e-02 0.0000000000000000e+00  -4.6656917746497944e-03 1.3975380406260887e-02 0.0000000000000000e+00  3.9741526297168732e-03 -1.0430260785761834e-02 0.0000000000000000e+00  -7.7088555688988574e-03 1.7523198463525333e-02 0.0000000000000000e+00  -6.2178965728237291e-03 1.3884547361568850e-02 0.0000000000000000e+00  1.6605611683477843e-02 -3.3555683206010621e-02 0.0000000000000000e+00  -6.2206350594197473e-03 1.1321442976446829e-02 0.0000000000000000e+00  2.4401905164188795e-03 -4.2873335074449176e-03 0.0000000000000000e+00  2.3517199720478433e-02 -3.8166383896488569e-02 0.0000000000000000e+00  1.9907877709378734e-02 -3.1442079709298597e-02 0.0000000000000000e+00  -2.3041916131852239e-01 3.6999323298729203e-01 0.0000000000000000e+00  -7.0867914719787739e-01 9.2322101806271584e-01 0.0000000000000000e+00  4.9978711890815081e-01 -6.5965123391687053e-01 0.0000000000000000e+00  7.5834227510352403e-01 -1.1545482217571019e+00 0.0000000000000000e+00  -1.0743475020934837e-01 1.3227042822718005e-01 0.0000000000000000e+00  -1.6980820548513653e-01 2.1413960126067877e-01 0.0000000000000000e+00  -4.5821535696798282e-02 1.0611400682887021e-01 0.0000000000000000e+00  -1.7070604558023723e+00 3.2223293814558911e+00 0.0000000000000000e+00  -1.3004526685165715e-01 1.9383149020830473e-01 0.0000000000000000e+00  1.3633629340739493e+00 -1.2942168367684794e+00 0.0000000000000000e+00  7.0987351764671780e-01 -1.4847984920655333e+00 0.0000000000000000e+00  -8.4064160640549224e-01 9.5973148681740128e-01 0.0000000000000000e+00  5.3266160547624275e-01 -5.2396918254445246e-01 0.0000000000000000e+00  7.3470217383251335e-01 -8.2891320167447535e-01 0.0000000000000000e+00  1.3742730198733172e-01 -1.1999738295834315e-01 0.0000000000000000e+00  -1.9341937942178917e+00 2.8285361643457856e+00 0.0000000000000000e+00  -9.6420768152516823e-01 7.0784767860472986e-01 0.0000000000000000e+00  6.1358764686686329e-01 -1.7213712619139021e-01 0.0000000000000000e+00  -1.2589397913903244e+00 1.8815569744289762e+00 0.0000000000000000e+00  -5.0105311593561142e-01 4.7037579152972386e-01 0.0000000000000000e+00  1.6980385298801901e+00 -8.0549773392845836e-01 0.0000000000000000e+00  7.2480473917374888e-01 -4.0565950324254846e-01 0.0000000000000000e+00  1.2952669220398791e-01 -5.8779408772719123e-02 0.0000000000000000e+00  1.3145315245123318e-01 -4.9663992210198640e-02 0.0000000000000000e+00  6.6010567099648879e-02 -2.0288382130582906e-02 0.0000000000000000e+00  4.1770375471958041e-02 -7.5463672677179893e-03 0.0000000000000000e+00  9.6405048508167745e-10 -1.3601260748077129e-08 0.0000000000000000e+00  -9.1704315260797943e-09 1.2222765070935106e-08 0.0000000000000000e+00  1.8452072100753815e-07 1.3515607924347625e-07 0.0000000000000000e+00  1.3628827299869491e-09 1.6213088523245229e-08 0.0000000000000000e+00  -5.3891680000040574e-09 -6.6592143677139479e-09 0.0000000000000000e+00  -1.2280317569350110e-07 -1.9889614573853555e-07 0.0000000000000000e+00  1.1326877292911471e-07 -1.0405193472700114e-07 0.0000000000000000e+00  2.6381119179967294e-09 -6.1580514064743107e-08 0.0000000000000000e+00  -1.0052991726191478e-07 1.5260994397965043e-07 0.0000000000000000e+00  1.1719554180180697e-07 -1.3351377746379948e-07 0.0000000000000000e+00  -1.8347064343596911e-13 -2.1881533231809603e-13 0.0000000000000000e+00  -4.5541404692374287e-14 -6.4000630463334618e-14 0.0000000000000000e+00  1.0003540927541572e-07 -8.7577035206553579e-09 0.0000000000000000e+00  -3.9673273052968446e-09 1.3714397927037385e-08 0.0000000000000000e+00  -2.3968254104150094e-15 2.3057611604503641e-14 0.0000000000000000e+00  -3.1117980718522591e-09 -1.2031194316932373e-08 0.0000000000000000e+00  -2.2196100527966103e-15 -5.5873699595345680e-15 0.0000000000000000e+00  8.9294344806366440e-14 9.9364738978526358e-15 0.0000000000000000e+00  3.2677542166296135e-08 6.0579154811920711e-08 0.0000000000000000e+00  1.0574300181434140e-09 -3.3339531381606485e-09 0.0000000000000000e+00  2.2295471376269528e-15 -9.7121429374493866e-15 0.0000000000000000e+00  -1.4772062466364580e-07 2.6689204085828839e-07 0.0000000000000000e+00  -1.7927463932326375e-07 -3.3274524177224233e-07 0.0000000000000000e+00  -5.3052383007633394e-15 1.1836196451322648e-14 0.0000000000000000e+00  -1.9953483369128093e-15 -2.0210026058799589e-14 0.0000000000000000e+00  6.6371817863417798e-15 -4.5537807386079385e-15 0.0000000000000000e+00  5.6347839563105817e-15 1.8122932896271204e-14 0.0000000000000000e+00  -2.9118427579446758e-14 -3.4491576464681893e-13 0.0000000000000000e+00  3.6351437611254976e-07 2.2176589648882141e-08 0.0000000000000000e+00  6.7824361576291781e-08 -9.7296960873500042e-08 0.0000000000000000e+00  1.4891845840634523e-11 -2.0016807605006767e-11 0.0000000000000000e+00  -9.0850001800275137e-11 1.2618866151395443e-10 0.0000000000000000e+00  -1.9748944391925496e-14 2.6471692861495031e-14 0.0000000000000000e+00  -4.0873295373999368e-12 6.4208817138627609e-12 0.0000000000000000e+00  -1.0040041609816133e-10 2.6091387410314330e-10 0.0000000000000000e+00  -4.0727031749567675e-13 -9.1989867499080109e-14 0.0000000000000000e+00  1.4801046505253669e-10 -7.5359385435672422e-11 0.0000000000000000e+00  4.7550639166572325e-08 -7.4831578924939933e-09 0.0000000000000000e+00  5.2195875847006156e-11 1.1561522623989709e-10 0.0000000000000000e+00  6.6897840057493554e-11 -1.2900297060734239e-10 0.0000000000000000e+00  -9.2905628132531935e-09 -3.7545370562299581e-08 0.0000000000000000e+00  9.7237441730517281e-05 1.2328600130075804e-04 0.0000000000000000e+00  -1.8880595369012398e-04 -7.0270151974761839e-05 0.0000000000000000e+00  3.6114000156132987e-04 -1.2091445510420859e-05 0.0000000000000000e+00  -3.4671481768862773e-05 6.2537188117267262e-05 0.0000000000000000e+00  2.9207597526788721e-12 1.5977819354099267e-11 0.0000000000000000e+00  1.1216327951952373e-11 2.4426766720372804e-11 0.0000000000000000e+00  3.4159243436962593e-09 1.1722301159723654e-08 0.0000000000000000e+00  5.0140374409561143e-14 9.1898546333346834e-14 0.0000000000000000e+00  1.5597008344799477e-10 2.7649554385758580e-10 0.0000000000000000e+00  -3.8794722835564633e-05 -1.9190885744620900e-04 0.0000000000000000e+00  1.7261691770687252e-05 5.1986159461674964e-05 0.0000000000000000e+00  -3.5730917233935246e-12 9.6883327795737746e-12 0.0000000000000000e+00  -5.0927599049964544e-15 1.7953646950543396e-14 0.0000000000000000e+00  -3.5942943165045527e-12 1.8018884120412657e-11 0.0000000000000000e+00  -1.8414393232077943e-07 3.6824934883488226e-07 0.0000000000000000e+00  5.9333463627206712e-10 -5.7611253087824918e-10 0.0000000000000000e+00  -3.1626692058942316e-04 3.2432523129389526e-04 0.0000000000000000e+00  1.3218689500145263e-04 -1.3685065968751476e-04 0.0000000000000000e+00  1.7858497322806191e-04 1.6853637568374326e-04 0.0000000000000000e+00  -3.6486886947612561e-04 -3.9369284440612056e-04 0.0000000000000000e+00  -1.0756531821688618e-04 -1.8107192158769951e-04 0.0000000000000000e+00  1.5060100227675870e-03 1.2633678600892744e-03 0.0000000000000000e+00  7.7961906688060181e-04 -7.5999534350639603e-04 0.0000000000000000e+00  -3.7205445293443569e-06 1.1430104394214003e-05 0.0000000000000000e+00  -6.9542178733633924e-05 1.0364569288464536e-04 0.0000000000000000e+00  -3.6790311401205880e-06 6.1699590320364316e-06 0.0000000000000000e+00  -4.6969501104043448e-07 -5.6986554507364337e-07 0.0000000000000000e+00  -7.5058876140977733e-05 -1.2330640841471223e-04 0.0000000000000000e+00  -1.3930361992521550e-07 1.4298677452109251e-05 0.0000000000000000e+00  2.1524185197284071e-06 1.1860157503599811e-05 0.0000000000000000e+00  1.2988830057726881e-06 -8.0326534203414807e-06 0.0000000000000000e+00  -1.8513077467866174e-07 -1.2892496462141921e-05 0.0000000000000000e+00  -4.2435298906106651e-09 9.5173112763339426e-09 0.0000000000000000e+00  -1.7034537189544467e-14 -2.3803769338799884e-14 0.0000000000000000e+00  -8.3941156529878489e-11 -1.2801308071208611e-10 0.0000000000000000e+00  -1.4022706404594925e-12 -1.9744881979990927e-12 0.0000000000000000e+00  -8.2606296389189506e-11 -1.6042737079087449e-10 0.0000000000000000e+00  2.9082673294939048e-13 1.9593159194643871e-13 0.0000000000000000e+00  9.8811895657173653e-10 8.1755355111443627e-10 0.0000000000000000e+00  -3.8006611034756852e-15 -1.5112370123891915e-14 0.0000000000000000e+00  -6.5327778991893321e-18 -1.8697443528170358e-17 0.0000000000000000e+00  -7.4560909968811888e-18 9.1194969364268951e-18 0.0000000000000000e+00  3.0617230224947958e-04 4.1149976286976276e-04 0.0000000000000000e+00  2.1975675877832285e-04 -2.8780938380351380e-04 0.0000000000000000e+00  -3.6468564251691534e-07 -6.5410903193588581e-07 0.0000000000000000e+00  -5.2562415828068540e-13 2.4052018104719819e-12 0.0000000000000000e+00  7.4902084874383381e-08 1.1603875258695859e-07 0.0000000000000000e+00  -1.9491720843716798e-10 -4.2114995010682771e-10 0.0000000000000000e+00  -2.8015107697394252e-12 -8.6266581019359678e-12 0.0000000000000000e+00  -1.7749988971777140e-09 -4.4833104753695442e-09 0.0000000000000000e+00  -1.8089719591824679e-13 1.8529399633511525e-11 0.0000000000000000e+00  -1.6080469650088226e-09 1.5127703322988886e-08 0.0000000000000000e+00  2.4921041933377923e-12 -7.4659440836425526e-12 0.0000000000000000e+00  1.7603832596003376e-12 -1.1494150287655243e-11 0.0000000000000000e+00  1.7065562338318882e-09 -7.1459912731737284e-09 0.0000000000000000e+00  -1.5465143583532545e-17 1.6782942655811374e-17 0.0000000000000000e+00  1.8249894887355492e-15 2.1832575732444877e-14 0.0000000000000000e+00  -1.6096703691637357e-06 4.3669972465837322e-06 0.0000000000000000e+00  -2.5627547828980103e-06 1.2574568975522298e-05 0.0000000000000000e+00  -2.3603454919745940e-06 -1.2811510332219197e-05 0.0000000000000000e+00  -1.9069383702753803e-06 -5.6881037344115056e-06 0.0000000000000000e+00  4.0631716998731553e-18 -5.8965443945480294e-18 0.0000000000000000e+00  -3.0231447059883715e-12 -1.6781778243259240e-11 0.0000000000000000e+00  -1.5312588969687710e-09 -1.5416023609063158e-08 0.0000000000000000e+00  7.2206793859463326e-06 1.6834912396380211e-05 0.0000000000000000e+00  1.6854086511717138e-04 2.9343182032870061e-04 0.0000000000000000e+00  -6.4563166427500599e-08 -9.7408795612121706e-08 0.0000000000000000e+00  -2.0859534251002017e-05 4.2193327848450225e-05 0.0000000000000000e+00  2.3254377524287172e-06 -6.6889572491938537e-06 0.0000000000000000e+00  6.9516381075947849e-09 -1.0380276415046806e-08 0.0000000000000000e+00  1.8050019582936989e-13 -1.6602711122105586e-13 0.0000000000000000