<?xml version="1.0"?>
<VTKFile type="UnstructuredGrid"  version="0.1"  >
<UnstructuredGrid>
<Piece  NumberOfPoints="2549" NumberOfCells="4928">
<Points>
<DataArray  type="Float64"  NumberOfComponents="3"  format="ascii">1.786972968461169 0.0149150379794068 0  1.783061839573749 0.05835121516345818 0  1.770510161342552 0.0990189445096574 0  1.756873575068733 0.1388207897386143 0  1.738558160851111 0.1773640690289725 0  1.720224811440088 0.2149889517686886 0  1.692660671730368 0.2505089900822265 0  1.682575788291522 0.2924780938172615 0  1.627210356802573 0.3101365635482068 0  1.602987418322397 0.3329224428603163 0  1.611118495118018 0.4016041972037033 0  1.562445840818318 0.418149589368298 0  1.528240280469199 0.447912942971971 0  1.496026511837979 0.4786232895045047 0  1.457397896505619 0.5067814846556458 0  1.431092693640171 0.5414498747805785 0  1.381084901461555 0.5638970824626141 0  1.34651944977478 0.5782069824421382 0  1.332063642581538 0.6470872847692732 0  1.282455089597592 0.660762253304639 0  1.240633952712032 0.6887127007415638 0  1.2004823377522 0.7172960759730418 0  1.159654408668165 0.7490417340808774 0  1.115687016836526 0.7784506216564147 0  1.068531521681526 0.8021546072712311 0  1.029505644339841 0.8403568474268344 0  0.9788205096422605 0.8663936231799408 0  0.9304506675188297 0.8932193246157701 0  0.8807578311403543 0.9226717757684471 0  0.8288546083548611 0.9499406578273354 0  0.7754285971138426 0.9774260492632407 0  0.7200259486557844 1.003342512908811 0  0.6626695356059557 1.028232982670918 0  0.604133513740611 1.051993658443604 0  0.5431860713120892 1.074617362111808 0  0.4805162422618873 1.095148750000032 0  0.4161483129432164 1.114062627872386 0  0.3501155924752754 1.130542936632746 0  0.2826147804995062 1.144735917046008 0  0.2138614415609119 1.156279003988313 0  0.1439248206109351 1.164817100887586 0  0.07357363347342689 1.170179943346676 0  0.002468223144781704 1.172793793106628 0  -0.06855760389720811 1.172052911400226 0  -0.1395127791897159 1.168107501264359 0  -0.2097494971950372 1.160831395958198 0  -0.2793090713842354 1.150770383042921 0  -0.3475232604466472 1.137370325302071 0  -0.4141724365267939 1.121511600759617 0  -0.4798123617783254 1.103560660009947 0  -0.5432885714279397 1.08294018933106 0  -0.6049511823794523 1.059780072334788 0  -0.6649423930306271 1.036000013915904 0  -0.7223606375617893 1.009171133377297 0  -0.7789566601103586 0.9841862477675859 0  -0.8332731224662917 0.9545351697723666 0  -0.8829429541182021 0.924748432911573 0  -0.9348093513456407 0.8972130256818828 0  -0.9833996956918634 0.8677752850229243 0  -1.030639822133769 0.8370863390454745 0  -1.07568103386909 0.8072298381272606 0  -1.122605278763706 0.7801861459732505 0  -1.168953673743533 0.7530932747928131 0  -1.193921859768398 0.6970489738446891 0  -1.246664316357006 0.697174345841504 0  -1.28329256830586 0.6540047115636651 0  -1.317167142006081 0.6240105921212424 0  -1.359512157798299 0.6029060123208843 0  -1.392228579753809 0.5630479308123923 0  -1.436330636360727 0.5680921145273532 0  -1.490337435057014 0.5297300399720537 0  -1.469478748528573 0.4135461642382467 0  -1.599534353735071 0.4818162306614012 0  -1.543873118060328 0.379917880573822 0  -1.575053577806158 0.3623914255914436 0  -1.622373704795102 0.3368178859563437 0  -1.645477892776196 0.3024248956159138 0  -1.68976361169407 0.2763696265437729 0  -1.7378514316044 0.239792278711113 0  -1.675342011333853 0.172426625113309 0  -1.714293494192641 0.1673706998975339 0  -1.793652088518987 0.1399585518812501 0  -1.754524114736236 0.09050469323419758 0  -1.780541307026179 0.0487539825662528 0  -1.778939678919096 0.00519302956095055 0  -1.783694253724989 -0.03955569029298846 0  -1.758596405415005 -0.0811907296104106 0  -1.788982347342629 -0.1286032746453755 0  -1.720610296172812 -0.1614430912435983 0  -1.678557996727917 -0.162811807867154 0  -1.726964375467098 -0.2222413832745106 0  -1.688953235806189 -0.2631386785340077 0  -1.647570010745844 -0.2921601794100088 0  -1.624135587099559 -0.3260672704527934 0  -1.576454605739017 -0.3515813016173251 0  -1.552304091264048 -0.3737629698234714 0  -1.602334405439652 -0.471483331686149 0  -1.4814189503695 -0.4131147244051577 0  -1.495869062684696 -0.5253230729748429 0  -1.442956137624963 -0.5641562043969914 0  -1.396809387272828 -0.5566778159016863 0  -1.364877961170271 -0.5969761870248611 0  -1.322225520647466 -0.6176488843278231 0  -1.289177824952333 -0.6470426758492754 0  -1.256962651483473 -0.6972908661941495 0  -1.196283292841587 -0.6873986934651737 0  -1.179027109906344 -0.7494921882849669 0  -1.132040332691802 -0.7786628936617531 0  -1.084192919717082 -0.8049375309032075 0  -1.039732944005742 -0.8361892311070268 0  -0.9923117358898077 -0.8676814792389201 0  -0.943280548916026 -0.8955292960332868 0  -0.8964376171559681 -0.9325854334360641 0  -0.8408657404574332 -0.9550473711573751 0  -0.7899587849698499 -0.9908056390945799 0  -0.7324705026096293 -1.019501881781766 0  -0.6743353094031538 -1.047309193318173 0  -0.6135854241478798 -1.073407824944323 0  -0.5510733969425589 -1.098578852053429 0  -0.486814234180861 -1.12204708585671 0  -0.4193840851543931 -1.141415994677768 0  -0.3515180038093242 -1.158762712158781 0  -0.2816643853346337 -1.174451783999713 0  -0.2101022907404821 -1.185740901472961 0  -0.137763213781705 -1.194223211008393 0  -0.06458172013327239 -1.198866236664502 0  0.008874533109848799 -1.200007865250785 0  0.08231215528091346 -1.197338436150781 0  0.1553087959748166 -1.191133994893092 0  0.2274159912282279 -1.181322362482634 0  0.2984469126900735 -1.168349809498412 0  0.3679500478904463 -1.152099013654821 0  0.4358821556518437 -1.133376665693733 0  0.5016386030533909 -1.111545474846878 0  0.5658703727228673 -1.088833561510648 0  0.6275873886723433 -1.0622077246059 0  0.6861087189239474 -1.035846050973828 0  0.744612229081167 -1.008900287024867 0  0.7997988122962523 -0.979470151439201 0  0.8532296479297317 -0.949227767874516 0  0.904766615615632 -0.9192052456165023 0  0.9539111003633514 -0.8872218847461633 0  1.001751607182704 -0.8580635907339992 0  1.051731279849081 -0.8296089115244351 0  1.089430791442514 -0.7897198310243635 0  1.135941071512025 -0.7640968576114626 0  1.178920704952779 -0.7327739666374476 0  1.218801029261901 -0.6996736457141589 0  1.257840010022076 -0.6695870729414679 0  1.299515771318994 -0.641219929723169 0  1.349607193825994 -0.6266178055351764 0  1.357818773620571 -0.552641440440618 0  1.394617648833855 -0.542805230857147 0  1.44357955423673 -0.5171480286416588 0  1.468087501366327 -0.4817108588712513 0  1.506624017783292 -0.4531766760330563 0  1.53793403955199 -0.4217048367503537 0  1.571630214948356 -0.3913297996422707 0  1.620176234703233 -0.3741883152405185 0  1.609124990277005 -0.3045301609953802 0  1.63306195060432 -0.2820802600714248 0  1.688561435489319 -0.2638953455503932 0  1.697122309922524 -0.2212924648671304 0  1.723939869278301 -0.185370757139293 0  1.741472736064566 -0.1473910856093283 0  1.758430468311389 -0.1084719027369305 0  1.770984188807213 -0.0685077204506355 0  1.782963472100146 -0.02830808525232658 0  -0.1158416758316746 0.7124359744297277 0  0.7053839524071958 -0.5189607821951439 0  -0.8620775145575765 -0.4450113259926338 0  -0.08726625641222809 -0.7202527822029285 0  0.6898420788489663 0.5240266231537425 0  1.284492517872641 0.1916847052547659 0  -0.8729041484364416 0.4417301819448599 0  -1.386072469331382 0.002032300902404445 0  1.289779037069096 -0.1695415211285873 0  -1.168973904722087 -0.3061734688161378 0  -0.9004643074829135 -0.00654473643114024 0  -0.5401864632096662 -0.1401966311012399 0  -1.180233912472203 0.2962702132832705 0  0.3489757675910989 -0.6810181067120528 0  0.1530123848996586 -0.2229198168946039 0  0.2934876196975083 0.6654627203296433 0  0.3614661286869763 0.1976567852764883 0  0.7301744021642913 0.0116617588740165 0  -0.4899825458902297 -0.5960996033236373 0  -0.5272722214612767 0.6066188784060423 0  -0.3073579307591092 0.2526904421389556 0  1.027943499473193 -0.32381139930174 0  1.01941311696011 0.342139234617498 0  0.4599643233888773 -0.2097877533224342 0  0.02566076733370569 0.2315384691657134 0  -0.609978955074022 0.1930982687215547 0  -0.2032909558488808 -0.2089592065656989 0  1.051245168565231 0.01079434157342611 0  1.495791617260505 0.01268700148342834 0  0.8672405551075435 -0.4147606165112011 0  0.870739475314512 -0.1607985882683296 0  0.703054892545122 -0.2424333219113502 0  0.5902812339673223 -0.09090498110658873 0  0.5783759073017185 -0.3691243754360969 0  1.029987745683247 -0.1524016367837759 0  0.8913086729395151 0.01110030734164406 0  -1.03228239258501 0.1488937201291224 0  -1.275718554053104 0.1422832885694274 0  -1.145449918848191 -0.001832040194601924 0  -1.02729285492415 -0.1598087238930473 0  -1.269497011389074 -0.1443883333512323 0  -1.449174959401112 -0.2163196095173792 0  -1.565351477174724 -0.07789025570944941 0  -1.564412316365639 0.08459806173045514 0  -1.447419298991574 0.2223478407020363 0  -0.1480750726951466 -0.4648280254227045 0  -0.3371824787806742 -0.4076080296450196 0  -0.2946215576443975 -0.665673588121359 0  -0.3705039870880372 -0.171074649157616 0  -0.5120760794877179 -0.3625027136746262 0  -1.36100019782765 -0.3780831635615645 0  -1.363563318007923 0.3767788054189599 0  0.4086600798877538 -0.4399915971494 0  0.3063355860274287 -0.2110154148984982 0  0.2497080563025587 -0.4504578005251141 0  -1.026703623744365 0.3636597985575125 0  -0.8725086519032367 0.2111849389942966 0  1.477648778373957 -0.2327840876009592 0  1.341277270119434 -0.3557959939184815 0  1.332348491736228 0.3782043906310669 0  1.471694346300459 0.2576244438701228 0  -0.872743881823914 -0.6817677049979284 0  -1.056630933350445 -0.5673308347078848 0  -1.05883828924314 0.5678508497860469 0  -0.8742572169626194 0.6777363436718593 0  0.8961311931889477 -0.6630081472364981 0  0.6948428289817109 -0.7731779091574675 0  0.6768115749154693 0.7707730656926809 0  0.8796509899814779 0.6709677867440156 0  0.02276411592424573 -0.960706
[...]
<PointData  Vectors="f_45"> 
<DataArray  type="Float64"  Name="f_45"  NumberOfComponents="3" format="ascii">2.2928473050448106e-01 -1.0352382247850983e-03 0.0000000000000000e+00  2.0081886855504538e-01 9.0447141332870823e-02 0.0000000000000000e+00  1.8232209379522601e-01 1.3566734444955131e-01 0.0000000000000000e+00  1.5377342188913934e-01 1.5651545129452027e-01 0.0000000000000000e+00  1.5557608452031771e-01 1.7026472483826502e-01 0.0000000000000000e+00  6.0186594634580384e-02 2.1127442338202893e-01 0.0000000000000000e+00  1.7412899321002481e-01 1.6721331249043450e-01 0.0000000000000000e+00  -2.6374055543549068e-03 7.8810158890636486e-02 0.0000000000000000e+00  -2.2322980899045083e-01 2.1588928416053560e-01 0.0000000000000000e+00  2.3450153254771586e-01 2.4265859161127314e-02 0.0000000000000000e+00  4.5392014062066319e-02 -1.0358060503838055e-02 0.0000000000000000e+00  -1.8271641851735665e-01 2.1403328111273698e-01 0.0000000000000000e+00  3.2568286805416229e-02 2.2624336602495468e-01 0.0000000000000000e+00  -7.1848070985868068e-02 2.1538964425042373e-01 0.0000000000000000e+00  1.2045974748279155e-02 2.1999110311951839e-01 0.0000000000000000e+00  -1.6508489178753392e-02 1.8768123040626428e-01 0.0000000000000000e+00  -2.5276288021860227e-01 1.6611841240430236e-01 0.0000000000000000e+00  1.4266456243421147e-01 1.1455243882783500e-01 0.0000000000000000e+00  5.9354056962482742e-02 8.2545325854509022e-02 0.0000000000000000e+00  -2.1218600126975140e-01 1.6501152382829426e-01 0.0000000000000000e+00  -4.8118509478265438e-02 2.1935172991683738e-01 0.0000000000000000e+00  -7.0433067177661429e-02 2.1158948382710246e-01 0.0000000000000000e+00  -5.3603663587764118e-02 2.1869451067496756e-01 0.0000000000000000e+00  -1.3684986354046771e-01 1.8374476532357542e-01 0.0000000000000000e+00  -5.5141081502210497e-02 2.0478137867028148e-01 0.0000000000000000e+00  -5.1946074028590063e-02 2.0801551920139219e-01 0.0000000000000000e+00  -1.4810251393805005e-01 1.7705097254926899e-01 0.0000000000000000e+00  -1.0286222400826454e-01 1.9761638606574378e-01 0.0000000000000000e+00  -1.1766525446388537e-01 1.9012640923735527e-01 0.0000000000000000e+00  -1.2936303472922447e-01 1.8257927202459129e-01 0.0000000000000000e+00  -1.3542899344721021e-01 1.7779221580629295e-01 0.0000000000000000e+00  -1.4909470188092863e-01 1.6680882430729596e-01 0.0000000000000000e+00  -1.5642068018977784e-01 1.5976936152913288e-01 0.0000000000000000e+00  -1.6449402661272416e-01 1.5158301129527030e-01 0.0000000000000000e+00  -1.7510326915510932e-01 1.3902905719210323e-01 0.0000000000000000e+00  -1.8430678415989254e-01 1.2682702332522061e-01 0.0000000000000000e+00  -1.9268674817315165e-01 1.1342002580919916e-01 0.0000000000000000e+00  -2.0136278434657146e-01 9.7466044616031228e-02 0.0000000000000000e+00  -2.0807315487177735e-01 8.1989008484673262e-02 0.0000000000000000e+00  -2.1443788662289087e-01 6.3715026737099445e-02 0.0000000000000000e+00  -2.1936330646691077e-01 4.3510714615550290e-02 0.0000000000000000e+00  -2.2229876963744194e-01 2.5295610287634752e-02 0.0000000000000000e+00  -2.2352819944851704e-01 6.1774296803450042e-03 0.0000000000000000e+00  -2.2327212079882103e-01 -1.4726021856454946e-02 0.0000000000000000e+00  -2.2074249509857985e-01 -3.5642273775262003e-02 0.0000000000000000e+00  -2.1703044306617195e-01 -5.4511613938907008e-02 0.0000000000000000e+00  -2.1104709067511454e-01 -7.3864849668777002e-02 0.0000000000000000e+00  -2.0312678790462435e-01 -9.3732620863813107e-02 0.0000000000000000e+00  -1.9640203154477187e-01 -1.0698286428562021e-01 0.0000000000000000e+00  -1.8767867347149167e-01 -1.2180243139864513e-01 0.0000000000000000e+00  -1.7320984656394345e-01 -1.4123547060122774e-01 0.0000000000000000e+00  -1.6730182879946753e-01 -1.4896958546382305e-01 0.0000000000000000e+00  -1.5111475042412156e-01 -1.6415083645810036e-01 0.0000000000000000e+00  -1.4762201450683096e-01 -1.6825289640275407e-01 0.0000000000000000e+00  -1.4040120886310253e-01 -1.7340375392759341e-01 0.0000000000000000e+00  -1.0556458228249919e-01 -1.9806500387592818e-01 0.0000000000000000e+00  -1.1685829820268148e-01 -1.8998102370383746e-01 0.0000000000000000e+00  -1.1909586406330384e-01 -1.8923710004639455e-01 0.0000000000000000e+00  -9.3887051355179829e-02 -2.0287679524441363e-01 0.0000000000000000e+00  -8.8639464792805545e-02 -2.0674583057942955e-01 0.0000000000000000e+00  -8.5531859395937465e-02 -2.0075795557065548e-01 0.0000000000000000e+00  -1.6679633038598599e-01 -1.8848425915328451e-01 0.0000000000000000e+00  8.8007224237838536e-02 -2.1028432043562495e-01 0.0000000000000000e+00  -2.3447124572706413e-02 -5.6694048556630273e-02 0.0000000000000000e+00  -1.4985695343065730e-01 -8.7059327952762458e-02 0.0000000000000000e+00  8.5086481855622009e-02 -2.6974957833383023e-01 0.0000000000000000e+00  -1.4010974757732608e-01 -1.7056557930750724e-01 0.0000000000000000e+00  -1.4708880889054775e-02 -2.4709131085597974e-01 0.0000000000000000e+00  -5.4838915010109957e-02 -4.5293246123538564e-02 0.0000000000000000e+00  -2.4742657826441830e-01 -1.2999712628755536e-01 0.0000000000000000e+00  2.0439604487347227e-01 -6.7346943518904301e-02 0.0000000000000000e+00  5.6079792500069768e-03 1.6111679820124009e-01 0.0000000000000000e+00  -6.0055157412982882e-02 2.1258336369525763e-01 0.0000000000000000e+00  1.4548358819537349e-01 9.6066852343466402e-02 0.0000000000000000e+00  -2.1252272404891817e-01 -2.4671400721814105e-01 0.0000000000000000e+00  1.1526364614841873e-02 -1.8458587704929338e-01 0.0000000000000000e+00  -5.9309286955996660e-04 -1.8081823691041293e-01 0.0000000000000000e+00  -1.2845750910217663e-01 -2.8505420092820022e-01 0.0000000000000000e+00  1.9721408525225109e-02 6.3577788322829329e-02 0.0000000000000000e+00  -4.8565222785629289e-02 2.2058623992788379e-01 0.0000000000000000e+00  -2.5313530695272329e-01 -2.2825943358445352e-01 0.0000000000000000e+00  -6.5395409872830587e-02 7.2743250799654102e-02 0.0000000000000000e+00  9.3526379054362230e-02 6.6309645972165931e-02 0.0000000000000000e+00  1.5034241922520372e-01 -1.6121120732326841e-01 0.0000000000000000e+00  2.5698617292427156e-01 -1.8892382059915450e-02 0.0000000000000000e+00  1.4641834740118867e-01 1.3730439748066939e-01 0.0000000000000000e+00  1.1854054384073399e-01 -4.8598908324025532e-02 0.0000000000000000e+00  -1.7532131681611419e-02 -3.4827860193083614e-02 0.0000000000000000e+00  -2.3820291167401220e-01 2.2854705287246738e-01 0.0000000000000000e+00  -5.8487664888906207e-02 -2.3077798176025119e-01 0.0000000000000000e+00  8.0217352885027390e-02 -4.3540559854437923e-02 0.0000000000000000e+00  -6.5055461868297609e-02 2.9061053529004777e-01 0.0000000000000000e+00  1.0837715630848784e-02 1.9456623101800818e-01 0.0000000000000000e+00  -1.1593163690269696e-02 1.7823409418618572e-01 0.0000000000000000e+00  -1.5884906128656376e-01 2.5992936242555620e-01 0.0000000000000000e+00  1.9006211987173299e-01 -8.2315080718397299e-02 0.0000000000000000e+00  -7.1028545396190246e-02 -2.0842084310531001e-01 0.0000000000000000e+00  6.2060148114584362e-03 -1.4526130512046537e-01 0.0000000000000000e+00  2.1087626563782622e-01 8.9349487192829841e-02 0.0000000000000000e+00  -2.4200826669313755e-01 1.1065317183323908e-01 0.0000000000000000e+00  -5.1408930834957747e-02 2.9153716728610335e-02 0.0000000000000000e+00  -9.0148187937222398e-03 2.4849644593589826e-01 0.0000000000000000e+00  -1.5589794501204776e-01 1.6723998360232892e-01 0.0000000000000000e+00  1.3196616633370309e-01 2.7130913596037393e-01 0.0000000000000000e+00  -1.2196116772105739e-01 3.4652973155335068e-02 0.0000000000000000e+00  -1.1634396463413344e-02 -2.1227648572686528e-02 0.0000000000000000e+00  1.2963610746712148e-01 1.9276726251387633e-01 0.0000000000000000e+00  -1.7580480601197168e-01 1.9447821641763929e-01 0.0000000000000000e+00  -8.4969923348397911e-02 1.9683230087536660e-01 0.0000000000000000e+00  -7.1505293698066949e-02 2.1533772978048768e-01 0.0000000000000000e+00  -1.1640235899163032e-01 1.9113940037387062e-01 0.0000000000000000e+00  -6.6268455688796926e-02 2.1474420994854973e-01 0.0000000000000000e+00  -1.1122271123399045e-01 1.8132760398144412e-01 0.0000000000000000e+00  -1.2612807283879635e-01 1.7862035318693292e-01 0.0000000000000000e+00  -8.9895065342019576e-02 2.0401112523950121e-01 0.0000000000000000e+00  -1.4754915549766062e-01 1.7108725258580715e-01 0.0000000000000000e+00  -1.4407916557529665e-01 1.7003819400141518e-01 0.0000000000000000e+00  -1.5930733674501579e-01 1.5730414092534650e-01 0.0000000000000000e+00  -1.6413473916767835e-01 1.5213931833818153e-01 0.0000000000000000e+00  -1.8078644785251574e-01 1.3126526571386404e-01 0.0000000000000000e+00  -1.9452921894488401e-01 1.1068567214204765e-01 0.0000000000000000e+00  -1.9819791606178574e-01 1.0389799843534878e-01 0.0000000000000000e+00  -2.0766526499177590e-01 8.2405534223183585e-02 0.0000000000000000e+00  -2.1585985220118836e-01 5.9635350024714352e-02 0.0000000000000000e+00  -2.1976841993420698e-01 4.0719679434341807e-02 0.0000000000000000e+00  -2.2315055608752291e-01 1.7354454110417184e-02 0.0000000000000000e+00  -2.2356845287953972e-01 -4.5290355191906894e-03 0.0000000000000000e+00  -2.2212201225145906e-01 -2.7099443368473784e-02 0.0000000000000000e+00  -2.1819476274654670e-01 -4.8962527924108663e-02 0.0000000000000000e+00  -2.1274575250746475e-01 -6.9426327270893665e-02 0.0000000000000000e+00  -2.0479003719284583e-01 -8.9621705832513346e-02 0.0000000000000000e+00  -1.9694546044953332e-01 -1.0650483545893814e-01 0.0000000000000000e+00  -1.8484494373655966e-01 -1.2538337151365525e-01 0.0000000000000000e+00  -1.7756349623361856e-01 -1.3659125448571124e-01 0.0000000000000000e+00  -1.6420112375579043e-01 -1.5117361359578882e-01 0.0000000000000000e+00  -1.4786084695524238e-01 -1.6813736232404539e-01 0.0000000000000000e+00  -1.4917124019814013e-01 -1.6669745797568347e-01 0.0000000000000000e+00  -1.3598147095049781e-01 -1.7727314035942973e-01 0.0000000000000000e+00  -1.1711794903548112e-01 -1.9071419245956506e-01 0.0000000000000000e+00  -1.1465646085375009e-01 -1.9202280270184005e-01 0.0000000000000000e+00  -1.0039903784842256e-01 -1.9987165987303621e-01 0.0000000000000000e+00  -8.6542478217220095e-02 -2.0524468083864320e-01 0.0000000000000000e+00  -1.3241456027260029e-01 -1.8887814813729606e-01 0.0000000000000000e+00  -3.4762335795286640e-02 -2.1198453406464787e-01 0.0000000000000000e+00  -3.9830578239716793e-02 -2.0806743961722593e-01 0.0000000000000000e+00  -1.2140739056056045e-01 -1.9392617067744478e-01 0.0000000000000000e+00  -3.8286338611494858e-02 -2.2189400121983613e-01 0.0000000000000000e+00  -5.4639300086758276e-02 -2.1645410419786573e-01 0.0000000000000000e+00  -3.6382685225289937e-02 -2.2055235022154376e-01 0.0000000000000000e+00  -2.1578514176214267e-01 -1.7429491643228265e-01 0.0000000000000000e+00  8.0249030565687871e-02 -6.4953217320907211e-02 0.0000000000000000e+00  1.3616184387380922e-01 -5.6650804601560550e-02 0.0000000000000000e+00  -2.6372161995476257e-01 -1.6054877210987478e-01 0.0000000000000000e+00  1.4689047975646701e-02 -2.0082562867051804e-01 0.0000000000000000e+00  1.8213838299993040e-02 -2.1238925112450024e-01 0.0000000000000000e+00  -6.5362924439693118e-02 -2.1869833478384332e-01 0.0000000000000000e+00  4.4300800449211510e-02 -2.2460683089616137e-01 0.0000000000000000e+00  -1.7731603874903834e-01 -2.2084889709755351e-01 0.0000000000000000e+00  4.4881606456636962e-02 1.9672504072336044e-02 0.0000000000000000e+00  2.3092317884706925e-01 -6.6983802977867764e-03 0.0000000000000000e+00  -2.2294513475714417e-01 -2.2331637557238893e-01 0.0000000000000000e+00  1.7941405338236752e-03 -7.1784270436081599e-02 0.0000000000000000e+00  1.8321389052481057e-01 -1.5601397154899582e-01 0.0000000000000000e+00  6.7094483645576214e-02 -2.1026540725031295e-01 0.0000000000000000e+00  1.6513225218746774e-01 -1.6139739959153940e-01 0.0000000000000000e+00  1.6370647574911937e-01 -1.4632618305447664e-01 0.0000000000000000e+00  1.8663727129100866e-01 -1.2869247014009713e-01 0.0000000000000000e+00  2.0144954693484959e-01 -8.9717509111442495e-02 0.0000000000000000e+00  -2.1562258270931978e-01 -6.0157922700825955e-02 0.0000000000000000e+00  1.8000927075907686e-02 -2.2315971016519248e-01 0.0000000000000000e+00  6.9474593024434081e-02 2.1278584446052470e-01 0.0000000000000000e+00  -2.2142004565904447e-01 3.2893353642394339e-02 0.0000000000000000e+00  1.6283446293361915e-02 2.2331569656590797e-01 0.0000000000000000e+00  1.8872773356908529e-01 1.2035581889660783e-01 0.0000000000000000e+00  8.7735919254121761e-02 -2.0597968835198846e-01 0.0000000000000000e+00  2.2098081354150309e-01 3.4575328895461319e-02 0.0000000000000000e+00  1.9400421179360189e-01 -1.1163622493524514e-01 0.0000000000000000e+00  1.6070529625249466e-01 1.5576052345083879e-01 0.0000000000000000e+00  2.2317806489214748e-01 1.7726235763389317e-02 0.0000000000000000e+00  1.8336601422635526e-01 1.2892483986312747e-01 0.0000000000000000e+00  1.8483410055927915e-01 -1.2624644077621888e-01 0.0000000000000000e+00  -1.4365721858924299e-01 -1.7166287498126243e-01 0.0000000000000000e+00  -5.3500077852920186e-02 -2.1861461253442904e-01 0.0000000000000000e+00  -1.5966278529538599e-01 1.5691550126864892e-01 0.0000000000000000e+00  1.4748327139584200e-01 1.6934610518360915e-01 0.0000000000000000e+00  2.2412148321934888e-01 -1.6373201095803258e-03 0.0000000000000000e+00  -8.7431256663536558e-02 2.0607140542662628e-01 0.0000000000000000e+00  -6.7376181077761138e-02 -2.1348451071489918e-01 0.0000000000000000e+00  4.8096780508289465e-02 -2.1955980944224607e-01 0.0000000000000000e+00  1.3951420434826264e-01 -1.7503599043990284e-01 0.0000000000000000e+00  1.3330073768546213e-01 1.7983236450994391e-01 0.0000000000000000e+00  1.3300722385344815e-01 -1.8042589937279263e-01 0.0000000000000000e+00  -2.1911315077068125e-01 5.4727868052093488e-02 0.0000000000000000e+00  1.7976052923057614e-01 -1.3360603753061123e-01 0.0000000000000000e+00  -4.6152353623631584e-02 2.2070152069121718e-01 0.0000000000000000e+00  2.2376075482223501e-01 3.1661897918228337e-03 0.0000000000000000e+00  2.2383130439890281e-01 5.2653219992704172e-03 0.0000000000000000e+00  9.0263922209214684e-02 -2.0489868968651992e-01 0.0000000000000000e+00  1.9695018470650635e-01 -1.0659032064437597e-01 0.0000000000000000e+00  1.5639199176217991e-01 -1.6050202615309683e-01 0.0000000000000000e+00  2.0677023720118060e-01 -8.6541076861315194e-02 0.0000000000000000e+00  6.8327678985994733e-02 -2.1336767719542063e-01 0.0000000000000000e+00  2.0185407843415124e-01 -9.6648109777900670e-02 0.0000000000000000e+00  2.2386722483545055e-01 1.2907463025825137e-03 0.0000000000000000e+00  2.1333455282543187e-01 -6.7704021377943055e-02 0.0000000000000000e+00  2.2127461331742515e-01 -3.3122777466321168e-02 0.0000000000000000e+00  2.2278975080071903e-01 2.0390334488794352e-02 0.0000000000000000e+00  1.9939549773746734e-01 1.0163333184578859e-01 0.0000000000000000e+00  2.0929945736812777e-01 7.8964740151475574e-02 0.0000000000000000e+00  2.0815389765086764e-01 8.1564156053479941e-02 0.0000000000000000e+00  2.1747856947964211e-01 4.9115383255192574e-02 0.0000000000000000e+00  2.0800381410920338e-01 8.2448470758382852e-02 0.0000000000000000e+00  2.2099618122386064e-01 -3.4355591002649420e-02 0.0000000000000000e+00  -2.0060971543247733e-01 9.9934818732555664e-02 0.0000000000000000e+00  -7.6791645446890558e-02 2.1056420987963476e-01 0.0000000000000000e+00  -1.7431776548185568e-01 1.4043643676050294e-01 0.0000000000000000e+00  1.2692329499453908e-01 1.8549229674707682e-01 0.0000000000000000e+00  3.7857637656880140e-02 2.2079544625660685e-01 0.0000000000000000e+00  1.9057734205677143e-01 1.1865369996234371e-01 0.0000000000000000e+00  2.0592424176476171e-01 -8.9243872506657440e-02 0.0000000000000000e+00  -3.0608580449976549e-02 -2.2189914698476990e-01 0.0000000000000000e+00  7.5283434728974169e-02 -2.1159051235601614e-01 0.0000000000000000e+00  -1.1560454523421981e-01 -1.9201798180781840e-01 0.0000000000000000e+00  1.4069206428129932e-01 -1.7415737346268084e-01 0.0000000000000000e+00  1.9181957339986908e-01 -1.1556480111288225e-01 0.0000000000000000e+00  1.5600244755683204e-01 -1.6015219022224955e-01 0.0000000000000000e+00  1.0874147610526740e-01 -1.9564228693772256e-01 0.0000000000000000e+00  9.7005156461392808e-02 2.0173436633796071e-01 0.0000000000000000e+00  1.4720552415961402e-01 1.6827911233025175e-01 0.0000000000000000e+00  -3.5458999562889885e-02 2.2092803604265238e-01 0.0000000000000000e+00  1.5987881463976651e-02 2.2309705100368651e-01 0.0000000000000000e+00  2.8277829359388235e-02 -2.2193536093626687e-01 0.0000000000000000e+00  -2.9909143349168020e-02 -2.2179846849525142e-01 0.0000000000000000e+00  -2.0852801515799827e-02 -2.2279999688404287e-01 0.0000000000000000e+00  -8.4230668960623492e-02 -2.0728879531039551e-01 0.0000000000000000e+00  -9.2516800564529461e-02 2.0374734040359832e-01 0.0000000000000000e+00  -3.1414366864769096e-02 2.2158096243268705e-01 0.0000000000000000e+00  -2.2320668698604507e-01 -1.5885002822561219e-02 0.0000000000000000e+00  -2.0733712171330382e-01 8.4132804051647636e-02 0.0000000000000000e+00  -2.0403998151615646e-01 -9.1854947771017284e-02 0.0000000000000000e+00  -2.2370894906824298e-01 4.6046260261607122e-03 0.0000000000000000e+00  -5.9707235723461018e-02 -2.1573359297093303e-01 0.0000000000000000e+00  2.1359622031401709e-01 6.8378007240088606e-02 0.0000000000000000e+00  1.5918511178517619e-01 1.5776152399638085e-01 0.0000000000000000e+00  6.8801345359793958e-02 2.1331556222943993e-01 0.0000000000000000e+00  1.2150825108753503e-01 1.8813492088806891e-01 0.0000000000000000e+00  2.1557582395372152e-01 6.0692926251943148e-02 0.0000000000000000e+00  1.7549467104786029e-01 1.3905477820690090e-01 0.0000000000000000e+00  3.3469917034583137e-02 2.2312634893124619e-01 0.0000000000000000e+00  -5.1926729643692354e-02 -2.2548512049529770e-01 0.0000000000000000e+00  2.1749806018566137e-01 -6.1267378086535436e-02 0.0000000000000000e+00  4.7502238467764191e-02 2.1905965189295248e-01 0.0000000000000000e+00  6.9666055841156455e-02 -2.1315642899731743e-01 0.0000000000000000e+00  1.1865029324033548e-01 1.8980199730122849e-01 0.0000000000000000e+00  1.9582991248608514e-01 1.0865113465862625e-01 0.0000000000000000e+00  8.6196614225460821e-02 2.0666471240390663e-01 0.0000000000000000e+00  1.9910696554577922e-01 1.0220171093124118e-01 0.0000000000000000e+00  -4.8503502365955471e-02 2.1881201935249101e-01 0.0000000000000000e+00  -6.6757355369581758e-02 2.1369257260225863e-01 0.0000000000000000e+00  -2.1304611556399167e-01 -6.9799511183584489e-02 0.0000000000000000e+00  -2.0710051393760878e-01 -8.5015373089125060e-02 0.0000000000000000e+00  -2.7894165563693545e-02 -2.2231930872013578e-01 0.0000000000000000e+00  -1.5386635090234158e-01 -1.6299906643313186e-01 0.0000000000000000e+00  -1.5542573205527627e-01 -1.6114856716867107e-01 0.0000000000000000e+00  2.2184152098150794e-01 -3.4289734543769539e-02 0.0000000000000000e+00  -2.2343166896973443e-01 -3.1574385682624086e-02 0.0000000000000000e+00  -1.4224794319714948e-01 -1.7270464495881224e-01 0.0000000000000000e+00  -1.9881318000512843e-01 -1.0267747248521407e-01 0.0000000000000000e+00  -2.0505805290599982e-01 8.9530798858565977e-02 0.0000000000000000e+00  -1.5291310005661904e-01 1.6335106911227537e-01 0.0000000000000000e+00  9.5758179827667558e-02 -2.2445532203377300e-01 0.0000000000000000e+00  -1.7282738243960802e-01 1.4270402618451206e-01 0.0000000000000000e+00  -2.1627473350390375e-01 5.7726776421697268e-02 0.0000000000000000e+00  -1.6063495249831206e-01 1.5575175119550433e-01 0.0000000000000000e+00  -9.1946685858310645e-02 2.0396227029957298e-01 0.0000000000000000e+00  3.0554965170630074e-03 2.2381331596583218e-01 0.0000000000000000e+00  -8.8406294939810892e-02 -2.0556587837517129e-01 0.0000000000000000e+00  -1.5529581711624746e-01 -1.6109898065214209e-01 0.0000000000000000e+00  1.9749885898493805e-02 -2.2298526742043775e-01 0.0000000000000000e+00  2.1846738311890812e-01 -4.9138054261851076e-02 0.00000000