<?xml version="1.0"?>
<VTKFile type="UnstructuredGrid"  version="0.1"  >
<UnstructuredGrid>
<Piece  NumberOfPoints="2549" NumberOfCells="4928">
<Points>
<DataArray  type="Float64"  NumberOfComponents="3"  format="ascii">-0.7739518185568959 0.1609207600038544 0  -0.78013205101978 0.03999312924304955 0  -0.8702612590550496 -0.1412373063495042 0  -0.8546396086468178 -0.2967132154430859 0  -0.8390140105870507 -0.4593032736273394 0  -0.7738106503394326 -0.5946063937301713 0  -0.709481429109651 -0.7242485450122635 0  -0.5850903799247098 -0.8040072700457246 0  -0.5871797392382663 -0.9540997692367683 0  -0.5063112496799673 -1.206766848436754 0  -0.2642272953003384 -1.129011569949856 0  -0.1420598163830384 -1.187035758701252 0  0.02032765821582516 -1.176227539531978 0  0.1684117091425503 -1.167274439727807 0  0.3172733810443933 -1.146309480137914 0  0.4743816683339739 -1.080701462861699 0  0.5520250863612851 -1.101941388043735 0  0.7191157452899846 -1.17112367438969 0  0.9182105285949345 -0.9624268019096999 0  1.056919304965794 -0.8717941599870771 0  1.203851355984493 -0.7251194139599895 0  1.336349452607823 -0.5793080370085133 0  1.463023112796994 -0.4134024828900364 0  1.582377333227606 -0.2182585122973204 0  1.665343191834595 -0.02431490929044056 0  1.752800924847543 0.1257335083151457 0  1.835150945831205 0.347201619286357 0  1.89566786327855 0.5726169455953209 0  1.938022738711778 0.8078793817675665 0  1.960553561735678 1.050360030654614 0  1.962188661442221 1.29657564610915 0  1.942431069149832 1.550858703883361 0  1.892136824967088 1.791589082361588 0  1.83005673052426 2.02141572171923 0  1.739393611758626 2.268103134995063 0  1.623219953725248 2.493095353625954 0  1.483119920947572 2.706016518209279 0  1.320148247217501 2.8999964043346 0  1.135960919313105 3.071383253559943 0  0.9334041387637118 3.222266095078824 0  0.7111536334146763 3.33621511498297 0  0.4830650895523116 3.418011430984923 0  0.2426102236424177 3.476363013607698 0  -0.001482552295191668 3.493431458184866 0  -0.2451677488479582 3.476130972585407 0  -0.4836584215268824 3.421250208060981 0  -0.7123694151648605 3.333039253245335 0  -0.927036641107713 3.203238383414862 0  -1.11957569717138 3.058729855945972 0  -1.301106366515224 2.882873191963911 0  -1.454063032383849 2.672464753988308 0  -1.58258101034321 2.446886541656649 0  -1.685009410505902 2.20538300157858 0  -1.760515073614462 1.950316887723719 0  -1.810129707498805 1.694900033425244 0  -1.829048821582687 1.409706088818245 0  -1.81836733721616 1.193798076163972 0  -1.815880324269579 0.9558737552097997 0  -1.770158161973053 0.693666595215681 0  -1.706749083664439 0.4543492939058174 0  -1.626865256250299 0.2297492283003952 0  -1.527489538584502 0.005199064138167286 0  -1.422318552277216 -0.1707832504753753 0  -1.275715053554898 -0.443138735755265 0  -1.113115626768213 -0.5156440263031706 0  -1.02440377220916 -0.5702828007937655 0  -0.8811085009724873 -0.6995536416989515 0  -0.7395433697881855 -0.7841964805303526 0  -0.5883304845073042 -0.866877965906089 0  -0.4526700472721943 -0.889025812160899 0  -0.2750846669163658 -0.9805604230370933 0  -0.2343775454979533 -0.7552468590388284 0  -0.1823672939588907 -0.8716585835282706 0  0.1457307777959609 -1.130715631765375 0  0.2961152285191342 -1.098825876184762 0  0.4907972191095964 -1.095279338369394 0  0.6173728776710192 -1.015909221937767 0  0.8087758992659853 -0.9730703115989351 0  0.819980815284068 -0.7671531221281211 0  1.211235806434127 -0.8253868617306658 0  0.9958817128654003 -0.2880986367439184 0  0.6534573124121621 -0.09127377100175471 0  0.9183100759232212 -0.02600327843176617 0  0.8159444380754546 0.1266561788674997 0  0.8935725765608549 0.2684427778398541 0  0.7965372808885149 0.4092471467659079 0  0.8955180495535613 0.5594845966991653 0  0.5959793835901532 0.6159476195804738 0  0.9600826028710558 0.8154471949870679 0  1.183347815577228 1.381599026247079 0  0.7438411245790031 1.291044689372776 0  0.7298294299438373 1.498195651762786 0  0.5169632239023489 1.52511154822688 0  0.3782827023645123 1.594442008424682 0  0.1692874638889026 1.584831663517872 0  0.01283863348900383 1.613669834075462 0  -0.3430262243118101 1.334330228641962 0  -0.4169446586452834 1.159954597615165 0  -0.452944658299592 1.402502661916979 0  -0.6436995819774881 1.290255358004901 0  -0.786629948734808 1.261724293969267 0  -0.9483251508094495 1.166338221377773 0  -1.098772797202493 1.072194464596122 0  -1.251540489450856 0.9319096086345671 0  -1.348358601571877 0.8808780381022477 0  -1.531294088058732 0.796496402106221 0  -1.694489023155291 0.4820954344883615 0  -1.811027182727678 0.2892588351700947 0  -1.923625068628439 0.03753913422351607 0  -2.015933967130678 -0.2131336038050357 0  -2.090357337875786 -0.4795989347642822 0  -2.143373521498199 -0.7629842208208765 0  -2.163581385828353 -1.010474299766574 0  -2.195397473421867 -1.286866256979958 0  -2.181558538790205 -1.645228095680782 0  -2.133839618303248 -1.942299939168204 0  -2.058739310043277 -2.252047719842466 0  -1.953135384171935 -2.545030174485167 0  -1.817794433561436 -2.82417866718715 0  -1.654171533321653 -3.093642164417122 0  -1.452317177669246 -3.319461449397223 0  -1.242067702688024 -3.508481689913029 0  -1.00167277602337 -3.693080434328045 0  -0.7414890554140273 -3.82743778298935 0  -0.4665689768564446 -3.923850067448027 0  -0.1819802238183899 -3.975773495323509 0  0.1065821763962313 -3.984332730255539 0  0.3938617779551526 -3.947419236957594 0  0.6738606306978593 -3.867308285160502 0  0.9403942834779671 -3.745154785403932 0  1.190258874930333 -3.586324215726334 0  1.418402711020757 -3.391984908898327 0  1.621549380397746 -3.168311963921054 0  1.796986055677195 -2.917718103105663 0  1.943285502068482 -2.652439220571545 0  2.057285773249337 -2.351355990187756 0  2.132996526944653 -2.092058421908209 0  2.205527452827587 -1.810261709966011 0  2.234251669945871 -1.502357779357145 0  2.237849741595283 -1.209842368442454 0  2.216866736438298 -0.9227127106496412 0  2.172798056005602 -0.6455898318106565 0  2.107810812896036 -0.3805225993841854 0  2.019028897018449 -0.1241284159312886 0  1.924021257626029 0.05974945964999734 0  1.830677510989204 0.286440350259488 0  1.701190103768136 0.5090005192640568 0  1.563390424353088 0.7008076091393978 0  1.419747243632485 0.8695821059355044 0  1.260884454038847 1.038578979529463 0  1.111518375470265 1.146246820681768 0  0.8982430049383685 1.380278460161773 0  0.7179132930982985 1.321230026081714 0  0.6324088941520427 1.307783267310592 0  0.4651144909138334 1.386367363331789 0  0.3062116789990659 1.418892552695987 0  0.1475051335232886 1.439663548338566 0  -0.02628220703399364 1.462208285899186 0  -0.1579280626009232 1.412525020913915 0  -0.4158583963992086 1.505902339886295 0  -0.5050209447371352 1.253106170839305 0  -0.510100162162217 1.108668995429998 0  -0.6473581957147181 1.037405260540124 0  -0.7238718000896993 0.9142917057975911 0  -0.801725132659644 0.7843382362308082 0  -0.8346425781008469 0.6270304640999969 0  -0.8526908506338238 0.4696472586535464 0  -0.7972496553936361 0.2953369181605672 0  0.01205896266347749 2.145908913030333 0  0.5393526181806336 -0.5277877665238223 0  -0.3635873570472788 -0.003969548695585023 0  -0.07892246328323985 -2.510460571267959 0  0.3728921661025232 0.4253694530288422 0  -0.3588505851714643 -0.3877818300606996 0  -0.1941385792030578 0.2082159135351951 0  0.5905850371880259 0.2163785055506222 0  -0.3080688285068303 0.593930610996783 0  -0.01704689931050152 0.6827193742154856 0  0.4970017842182934 0.1604054742895348 0  0.30757103142938 -0.1480191317922145 0  0.1352776134288594 -0.320621417556725 0  0.5588322294411022 -1.945385497220626 0  -0.3016305010047084 -0.9674137676006007 0  0.3971527814508551 1.598323738195773 0  -0.6114959076555317 0.2223371278225926 0  -0.5667997323071877 0.04222960343807224 0  -0.4736759484490639 -1.400698945602023 0  -0.3428751952995981 1.325466539145858 0  0.2456610797848665 0.7222303552101571 0  0.08413690993496736 0.4525761729278603 0  -0.01347191997182917 -0.3402824756279021 0  -0.3306043780469073 -0.3577857661495661 0  -0.1886359346250471 0.3832611308088654 0  0.3695083426324506 0.3546858807180407 0  -0.04095843352480513 -0.7961505456005844 0  -0.4962316402016469 0.07901757481677632 0  -0.5656603342772728 0.1280945157680428 0  0.3136004208395395 0.06396594068042666 0  -0.35524428198102 0.1873352654560122 0  -0.2284020790140516 -0.07202148185900586 0  -0.5229637350719591 -0.04048118275535484 0  0.05212717431969727 -0.5094014275716143 0  -0.3396982003261528 0.326781684672722 0  -0.5231751292402949 0.05991537831666146 0  0.4252640808693215 -0.02339574389275648 0  0.4616969767373693 -0.147327372345525 0  0.5180516760658964 0.1966606725514418 0  0.3402612261947737 0.3732944322155867 0  0.3939675372137839 0.5563864173944919 0  0.3582939791058302 0.8174651133649096 0  0.660771300342976 0.5513090122845696 0  0.6891224427451714 -0.07394893313811293 0  0.4367714853443296 -0.3776482035974097 0  -0.0697178970934513 -1.672921572725713 0  -0.09052562046051849 -1.196113489619204 0  -0.3522290731128777 -2.075813312193338 0  0.1582668620169027 -0.4332257182596908 0  -0.03483670145260953 -0.699397576047021 0  -0.2055179370392264 0.9834121678460368 0  -0.04320758267594371 -0.5749135162079955 0  0.1733740768704717 -1.06174043131951 0  -0.3233778600121899 -0.5929673083446793 0  0.1492315198762547 -1.437589943540373 0  -0.03053144333564539 -0.1387308384358826 0  0.3425573315917569 0.08880573176827319 0  -0.2668667293591958 0.8973125932622157 0  0.1734530254248647 0.9734850926985419 0  0.06780552626132064 -0.7672184120375537 0  -0.336579921065794 -0.6489028544013318 0  -1.175197314102813 -0.443172722801993 0  -0.8931701880463204 0.3671127147359761 0  -0.6872901025752205 -0.09226470825830768 0  -0.9370104917866877 0.6062221929957745 0  1.203725593454876 -0.2946817064758739 0  1.305655206915811 -1.238258276545324 0  1.125745595707254 1.026987370853565 0  1.021106942336148 0.2508718615856248 0  0.1226559951004212 -3.26835017166685
[...]
<PointData  Vectors="f_44"> 
<DataArray  type="Float64"  Name="f_44"  NumberOfComponents="3" format="ascii">2.3825462095887431e-01 4.5810336000924649e-02 0.0000000000000000e+00  1.5713946458512132e-01 -1.6053504854267553e-01 0.0000000000000000e+00  1.5918701789751999e-01 -9.0095009674439924e-02 0.0000000000000000e+00  2.4743250727916960e-01 6.2098205635020151e-02 0.0000000000000000e+00  1.6689088612376682e-01 9.8608634115683783e-02 0.0000000000000000e+00  1.6828155466041769e-01 1.8440443722559152e-01 0.0000000000000000e+00  -1.9532878137046326e-02 2.2483091900157551e-01 0.0000000000000000e+00  2.9971112879828454e-02 6.2145329316925062e-02 0.0000000000000000e+00  2.9526991497775168e-01 1.1347066266846655e-01 0.0000000000000000e+00  -1.6065323885605807e-02 -1.1571772871439935e-02 0.0000000000000000e+00  -2.1793272542470141e-01 -5.5327432585484691e-02 0.0000000000000000e+00  -1.6364811851821401e-01 1.2599691072231151e-01 0.0000000000000000e+00  -2.3675900749770232e-01 -7.2254631230455668e-02 0.0000000000000000e+00  -2.2284389753466319e-01 -1.3530188204678894e-02 0.0000000000000000e+00  -1.8274366802558956e-01 -1.3996273865074804e-01 0.0000000000000000e+00  -1.5590515365085844e-01 -1.0162578256462693e-01 0.0000000000000000e+00  -2.1704440093549762e-01 2.6159576252918110e-01 0.0000000000000000e+00  -3.4792142875829858e-02 -8.4644631537977050e-02 0.0000000000000000e+00  -1.6626002977622546e-02 -2.6134032945974428e-01 0.0000000000000000e+00  -6.2743433555260686e-02 -2.0090030585835286e-01 0.0000000000000000e+00  2.2719506474408825e-02 -2.3007561802381757e-01 0.0000000000000000e+00  3.5589264454487374e-02 -2.1789902022427715e-01 0.0000000000000000e+00  7.7355261678807033e-02 -2.1310355187611288e-01 0.0000000000000000e+00  1.3847160034657388e-01 -1.7372834700169512e-01 0.0000000000000000e+00  1.3349772831074022e-01 -1.7740616642243004e-01 0.0000000000000000e+00  1.3383084446278834e-01 -1.7618076386119455e-01 0.0000000000000000e+00  1.8833289672627110e-01 -1.2555133039088920e-01 0.0000000000000000e+00  2.0128085807039803e-01 -9.5997301253812756e-02 0.0000000000000000e+00  2.1610931048803006e-01 -5.9953072628261231e-02 0.0000000000000000e+00  2.2240705526900845e-01 -2.1409772509808907e-02 0.0000000000000000e+00  2.2437722076218397e-01 1.3315289956866748e-02 0.0000000000000000e+00  2.1362843289111300e-01 6.3347240354127254e-02 0.0000000000000000e+00  1.9899963699979556e-01 1.0414209778356420e-01 0.0000000000000000e+00  1.8476974373176699e-01 1.2631694890923775e-01 0.0000000000000000e+00  1.5163376074875939e-01 1.6454442229283145e-01 0.0000000000000000e+00  1.0915401256853642e-01 1.9604642694452226e-01 0.0000000000000000e+00  6.5502419704757536e-02 2.1432625808960054e-01 0.0000000000000000e+00  1.0121222024633040e-02 2.2343013044429891e-01 0.0000000000000000e+00  -3.8338790948187637e-02 2.2180602877811301e-01 0.0000000000000000e+00  -9.7120183519223871e-02 2.0116428409602721e-01 0.0000000000000000e+00  -1.5632689685271833e-01 1.6117573110933592e-01 0.0000000000000000e+00  -1.8650812136172826e-01 1.2577865071269537e-01 0.0000000000000000e+00  -2.1202152964324966e-01 6.9208754779677958e-02 0.0000000000000000e+00  -2.2574280351717335e-01 -1.2976980387031341e-03 0.0000000000000000e+00  -2.1339267039069126e-01 -6.5388492000927001e-02 0.0000000000000000e+00  -1.8810669649120484e-01 -1.2519345235467111e-01 0.0000000000000000e+00  -1.3459426294019658e-01 -1.7753095042007269e-01 0.0000000000000000e+00  -8.1320378594861201e-02 -2.0985670998561376e-01 0.0000000000000000e+00  -3.9736960858213287e-02 -2.2107103052668381e-01 0.0000000000000000e+00  3.2852823612420728e-02 -2.2083341803362080e-01 0.0000000000000000e+00  9.5326456889926164e-02 -2.0395658291781874e-01 0.0000000000000000e+00  1.3481554129856257e-01 -1.7851877195120286e-01 0.0000000000000000e+00  1.7397544685087396e-01 -1.4113753822396466e-01 0.0000000000000000e+00  1.9851010202237396e-01 -1.0406648986326356e-01 0.0000000000000000e+00  2.1656102273989297e-01 -5.9247577143194653e-02 0.0000000000000000e+00  2.2308541485911249e-01 3.8706369051976107e-03 0.0000000000000000e+00  2.2429628961716092e-01 9.4107725305065497e-03 0.0000000000000000e+00  2.1832605301189228e-01 3.4739996792511808e-02 0.0000000000000000e+00  2.0327174599345310e-01 9.9574978297963829e-02 0.0000000000000000e+00  1.8310613427314934e-01 1.2565015139042374e-01 0.0000000000000000e+00  1.6778840635460801e-01 1.5286022668413160e-01 0.0000000000000000e+00  1.1694526343945651e-01 1.8323966176925224e-01 0.0000000000000000e+00  1.4304098834917126e-01 1.9696383335451303e-01 0.0000000000000000e+00  2.6811135101817197e-02 1.7504162594668332e-01 0.0000000000000000e+00  -2.0178470172706031e-01 1.7134375099565921e-01 0.0000000000000000e+00  -2.0514150873018753e-02 2.2443452476684733e-01 0.0000000000000000e+00  -5.9689241626322213e-02 2.0699739058735797e-01 0.0000000000000000e+00  -1.1499919514171460e-01 2.1068477937117217e-01 0.0000000000000000e+00  -1.5864436867782836e-01 1.0754378076485308e-01 0.0000000000000000e+00  -2.3060323547867101e-01 1.7250648575030242e-01 0.0000000000000000e+00  6.0906413521119765e-02 3.6784313580646301e-02 0.0000000000000000e+00  2.6192120602251501e-01 -4.6262492224740666e-02 0.0000000000000000e+00  2.1415363855032663e-03 2.7077974636760710e-01 0.0000000000000000e+00  -1.0457122977578548e-01 1.1229920624022549e-01 0.0000000000000000e+00  -2.6418440992520426e-01 -6.9523692394766010e-02 0.0000000000000000e+00  -1.2633184218843194e-01 -7.9217719438324757e-02 0.0000000000000000e+00  -2.3959882989073034e-01 -1.8016164817607103e-01 0.0000000000000000e+00  1.1106883316117447e-01 -5.0789527005429928e-02 0.0000000000000000e+00  -1.1581877195831716e-01 2.4780955702356625e-02 0.0000000000000000e+00  4.0785857968227580e-04 1.0849046338820902e-01 0.0000000000000000e+00  1.2433780811258485e-01 2.1462740190982738e-01 0.0000000000000000e+00  -2.4039151577044726e-01 4.1325446664723375e-02 0.0000000000000000e+00  -8.5983931450975451e-02 1.4510274854429382e-02 0.0000000000000000e+00  1.5707624254494024e-01 2.4584776583777116e-02 0.0000000000000000e+00  7.7399343134991180e-02 1.8938039763517142e-02 0.0000000000000000e+00  1.3083272067998264e-01 -4.2707116703744521e-03 0.0000000000000000e+00  -9.2216950163117095e-02 -2.1886310856854933e-02 0.0000000000000000e+00  -2.5245599175265199e-01 -4.7454604919509043e-02 0.0000000000000000e+00  1.2356876446877381e-01 -2.0541627041460717e-01 0.0000000000000000e+00  4.4434032729262106e-04 -1.2010043070744110e-01 0.0000000000000000e+00  -1.2097646454123846e-01 -4.1595670658221805e-02 0.0000000000000000e+00  9.6872580792260451e-02 3.9788870361270233e-02 0.0000000000000000e+00  -2.7064872504434723e-01 1.3805766889761978e-01 0.0000000000000000e+00  -1.4533768820854756e-01 5.4396870285564287e-02 0.0000000000000000e+00  -2.5965281051087058e-01 4.4377069628095692e-02 0.0000000000000000e+00  -1.1182769720269159e-01 -1.1880150908987365e-01 0.0000000000000000e+00  1.3901441947425196e-02 -2.6197265242309825e-01 0.0000000000000000e+00  2.5880017516444626e-01 2.0638173339249912e-02 0.0000000000000000e+00  7.4061543793859791e-02 -4.8341418550581897e-02 0.0000000000000000e+00  -2.1354685786274791e-01 -1.8963106147924325e-01 0.0000000000000000e+00  -1.5088576036432877e-01 -1.1945741164897615e-01 0.0000000000000000e+00  -1.0350581897270161e-01 -2.1546025947712877e-01 0.0000000000000000e+00  -5.0920799391610774e-02 -2.1126141364902190e-01 0.0000000000000000e+00  -3.0461386448291515e-02 -2.1619369007902428e-01 0.0000000000000000e+00  -2.1435220489580309e-01 -1.6791283146658093e-01 0.0000000000000000e+00  3.6741876574576560e-02 -1.7521221665313996e-01 0.0000000000000000e+00  1.4504862688041373e-01 -1.9358726554587702e-01 0.0000000000000000e+00  1.1492060741136105e-01 -1.8503722918723606e-01 0.0000000000000000e+00  1.6582556746669963e-01 -1.5470604618195549e-01 0.0000000000000000e+00  1.7953771390511994e-01 -1.3145209994962842e-01 0.0000000000000000e+00  2.0086460836143941e-01 -1.0154350576542813e-01 0.0000000000000000e+00  2.1649486281190136e-01 -5.1957790801336223e-02 0.0000000000000000e+00  2.1918925715672166e-01 -4.7921504346724410e-02 0.0000000000000000e+00  2.2119916876330831e-01 -2.1786459130615693e-02 0.0000000000000000e+00  2.1997556510824692e-01 4.8041706501993575e-02 0.0000000000000000e+00  2.0626747102525880e-01 8.7110405431776866e-02 0.0000000000000000e+00  1.8810365466798595e-01 1.2151523719747312e-01 0.0000000000000000e+00  1.5452912600339860e-01 1.6150464853302085e-01 0.0000000000000000e+00  1.2588266864776551e-01 1.8705743455822127e-01 0.0000000000000000e+00  6.6665650486886815e-02 2.1228740306809218e-01 0.0000000000000000e+00  -6.1517438499450097e-03 2.2495027746021384e-01 0.0000000000000000e+00  -3.6780923504758541e-02 2.2188661067460225e-01 0.0000000000000000e+00  -9.1590854276492231e-02 2.0274202421475174e-01 0.0000000000000000e+00  -1.5674275894721532e-01 1.6292022380558002e-01 0.0000000000000000e+00  -1.9361460498787336e-01 1.1160746193704220e-01 0.0000000000000000e+00  -2.2014402185419779e-01 4.6755087479302904e-02 0.0000000000000000e+00  -2.2303558044992150e-01 -2.1904315116796351e-02 0.0000000000000000e+00  -2.0637243119528093e-01 -8.9090312261726312e-02 0.0000000000000000e+00  -1.6973517920499970e-01 -1.4630700804625230e-01 0.0000000000000000e+00  -1.2176852683527263e-01 -1.8882240392711594e-01 0.0000000000000000e+00  -6.5600387088720166e-02 -2.1410626363905522e-01 0.0000000000000000e+00  -6.8284852861627285e-03 -2.2455656152403741e-01 0.0000000000000000e+00  5.0842758680970136e-02 -2.1768529543991655e-01 0.0000000000000000e+00  9.7741781415473794e-02 -2.0265828268240307e-01 0.0000000000000000e+00  1.4549646834463473e-01 -1.6942915339763032e-01 0.0000000000000000e+00  1.8261654880919281e-01 -1.2974494369456965e-01 0.0000000000000000e+00  1.9049704579681095e-01 -1.1979927253757898e-01 0.0000000000000000e+00  2.0815133704694427e-01 -7.6488329033807340e-02 0.0000000000000000e+00  2.2474578569332479e-01 -1.9177813997063836e-02 0.0000000000000000e+00  2.2281933518391286e-01 1.2090680702360048e-02 0.0000000000000000e+00  2.1829153263705237e-01 5.1492333152966932e-02 0.0000000000000000e+00  2.0554920098371682e-01 8.7096738749649266e-02 0.0000000000000000e+00  1.9222385002082568e-01 1.1799619550383299e-01 0.0000000000000000e+00  1.4750688448075508e-01 1.6595792452811423e-01 0.0000000000000000e+00  1.4546202652485804e-01 1.6923731800171793e-01 0.0000000000000000e+00  1.4292042352808432e-01 1.6993681366786312e-01 0.0000000000000000e+00  8.8546204666148626e-02 2.0830336169640998e-01 0.0000000000000000e+00  4.9544370918874821e-02 2.1546044796944189e-01 0.0000000000000000e+00  3.6327796963097028e-02 2.2756254414591684e-01 0.0000000000000000e+00  -4.5529817032907885e-02 2.0639705954473714e-01 0.0000000000000000e+00  1.2303175005088388e-04 2.6038408520700945e-01 0.0000000000000000e+00  -3.5112871320910531e-02 9.4398015741206140e-02 0.0000000000000000e+00  -2.5003165399026589e-01 -2.2053264008228798e-01 0.0000000000000000e+00  -1.5092023036445842e-01 1.2532010392612661e-01 0.0000000000000000e+00  -1.6699694897963513e-01 1.5513470139441943e-01 0.0000000000000000e+00  -2.1836046178163851e-01 4.5270927932992686e-02 0.0000000000000000e+00  -2.2483444793777410e-01 1.0022559112986096e-01 0.0000000000000000e+00  -1.8086009254810392e-01 -9.6042855905846686e-02 0.0000000000000000e+00  -2.1912567599508612e-01 7.6456151096881170e-02 0.0000000000000000e+00  -1.7829870591252951e-02 1.9997669606284050e-02 0.0000000000000000e+00  2.9139378419724260e-01 -1.4056937807018569e-01 0.0000000000000000e+00  7.4133164369523368e-03 -6.2200979745994402e-02 0.0000000000000000e+00  -6.1606714653643715e-02 -2.2068773783343690e-01 0.0000000000000000e+00  1.3197934773474071e-01 -2.0822817004430713e-01 0.0000000000000000e+00  1.4308242174299449e-01 -1.4090327562279933e-01 0.0000000000000000e+00  2.3254026840512870e-01 -8.2778842412106965e-02 0.0000000000000000e+00  1.9479225117180093e-01 5.1736843637817567e-02 0.0000000000000000e+00  1.8507220000579802e-01 1.3460534583132383e-01 0.0000000000000000e+00  -2.1459165510543096e-01 6.5914182891804327e-02 0.0000000000000000e+00  -7.8682075507268578e-02 2.1257790169461219e-01 0.0000000000000000e+00  7.1524864204299668e-02 -2.1313349170808857e-01 0.0000000000000000e+00  -2.2179404694975335e-01 3.2874786412263657e-02 0.0000000000000000e+00  -1.4540253194190392e-01 -1.7401947130735587e-01 0.0000000000000000e+00  1.0701336363726411e-02 2.2520457374153682e-01 0.0000000000000000e+00  -1.2663202821547296e-02 2.2511544784840784e-01 0.0000000000000000e+00  2.2050937621186611e-01 3.1876587055682325e-02 0.0000000000000000e+00  -2.1603632474172452e-02 -2.2399923217882459e-01 0.0000000000000000e+00  -1.8551496956123897e-01 -1.2668686933465478e-01 0.0000000000000000e+00  1.4626564570268832e-01 1.5619301565651522e-01 0.0000000000000000e+00  1.4217868830636413e-01 -1.7164499791149246e-01 0.0000000000000000e+00  -2.2038406596816557e-01 4.7489558045227871e-02 0.0000000000000000e+00  9.4548819123006070e-02 -2.0539032536478971e-01 0.0000000000000000e+00  2.2116949158087298e-01 5.4785791052438935e-02 0.0000000000000000e+00  1.9843502867050278e-01 1.1099618178472011e-01 0.0000000000000000e+00  7.5378409251753778e-02 2.1314790522254287e-01 0.0000000000000000e+00  2.2498594384285306e-01 -5.1389243221281562e-03 0.0000000000000000e+00  1.1290650442888819e-01 1.9427865766412028e-01 0.0000000000000000e+00  1.0339766774087118e-01 -2.0052424881048583e-01 0.0000000000000000e+00  1.5702118065332243e-01 1.6213947597887488e-01 0.0000000000000000e+00  -2.0976492734842878e-01 -8.2372067682657424e-02 0.0000000000000000e+00  -1.9520229858083560e-01 1.1291328792292957e-01 0.0000000000000000e+00  -8.7140042162744902e-02 -2.0950798294722159e-01 0.0000000000000000e+00  5.9317331575099885e-02 2.1724495179956738e-01 0.0000000000000000e+00  -8.6791251035384237e-02 2.0855372383431123e-01 0.0000000000000000e+00  2.0194606013660940e-01 9.8536765931330539e-02 0.0000000000000000e+00  2.2251991791156003e-01 -3.8611405998171228e-02 0.0000000000000000e+00  2.2033819571870286e-01 -4.1994949344975850e-02 0.0000000000000000e+00  -2.1789039157163476e-01 6.0690058232597981e-02 0.0000000000000000e+00  3.0978040777636530e-02 -2.2595030946880892e-01 0.0000000000000000e+00  -1.4598396056430304e-01 -1.7565664886776691e-01 0.0000000000000000e+00  1.3956452572968897e-01 -1.8107042213800359e-01 0.0000000000000000e+00  -2.1951028580911261e-01 6.4290676730626301e-02 0.0000000000000000e+00  3.3394866617021721e-02 -2.2320293539642119e-01 0.0000000000000000e+00  2.2297112054990456e-01 -3.2130194710060289e-02 0.0000000000000000e+00  -9.2366837739515317e-02 -2.0780771885644117e-01 0.0000000000000000e+00  -4.2031211410371909e-02 -2.2371144716351621e-01 0.0000000000000000e+00  1.9301168609473432e-01 1.3424892662814222e-01 0.0000000000000000e+00  -2.0036117048917435e-01 1.0604420845191938e-01 0.0000000000000000e+00  -1.7637651763496445e-01 1.4379624670282171e-01 0.0000000000000000e+00  -2.2205734530876470e-01 2.3548806622063222e-02 0.0000000000000000e+00  -8.3135893727017587e-02 -2.2026489840511157e-01 0.0000000000000000e+00  1.8308244176160551e-01 1.3130092309528779e-01 0.0000000000000000e+00  -9.7139747863191170e-02 -2.0946679642052790e-01 0.0000000000000000e+00  -1.3541174255727051e-01 1.8072880754616935e-01 0.0000000000000000e+00  9.7572362594048070e-02 2.0345227126759444e-01 0.0000000000000000e+00  -1.1601491737293926e-01 1.9214468865328643e-01 0.0000000000000000e+00  2.2258093076763463e-01 -3.0095620878058570e-02 0.0000000000000000e+00  2.2070144945149348e-01 4.1967537658287243e-02 0.0000000000000000e+00  -8.5397365414937920e-02 -2.0971220187479855e-01 0.0000000000000000e+00  -8.4297313233016133e-02 2.1191996713789743e-01 0.0000000000000000e+00  5.4182887912149369e-02 2.2835504515031615e-01 0.0000000000000000e+00  1.2235239126620362e-02 -2.2649250383439407e-01 0.0000000000000000e+00  -1.1815305380560344e-01 -1.9775466706769473e-01 0.0000000000000000e+00  -1.7905123745268064e-01 1.3644481839124667e-01 0.0000000000000000e+00  -2.2048425754498505e-01 -5.9193188677564748e-02 0.0000000000000000e+00  -7.9619590896203643e-02 -2.1041252798380253e-01 0.0000000000000000e+00  -2.1499627950907896e-01 -6.5382400059330964e-02 0.0000000000000000e+00  -2.0836945291476236e-01 8.4213293639190209e-02 0.0000000000000000e+00  -4.7436426780124621e-02 2.2007653567222071e-01 0.0000000000000000e+00  1.9262579585553352e-01 -1.1523361764781752e-01 0.0000000000000000e+00  1.2332443064791957e-02 -2.2380575257846366e-01 0.0000000000000000e+00  -1.4133323323530405e-02 2.2378208960512566e-01 0.0000000000000000e+00  1.8630240387712760e-01 1.2559939265002878e-01 0.0000000000000000e+00  5.1716453037824774e-02 2.1917283805800514e-01 0.0000000000000000e+00  2.0636151959548898e-01 8.9899109772326319e-02 0.0000000000000000e+00  1.8007538765694339e-01 -1.3539633575737550e-01 0.0000000000000000e+00  1.9932362325473876e-02 -2.2448631639238306e-01 0.0000000000000000e+00  -2.2071216215397091e-01 -4.1165495358722708e-02 0.0000000000000000e+00  -1.5346989305898276e-01 1.6381204284074144e-01 0.0000000000000000e+00  -1.8533104326246724e-01 -1.2682228068626891e-01 0.0000000000000000e+00  -2.0593095240338805e-01 8.9526165559937990e-02 0.0000000000000000e+00  1.8554574838496207e-01 1.3078392806328284e-01 0.0000000000000000e+00  1.9187455516229612e-01 1.2045937375274486e-01 0.0000000000000000e+00  -7.6791005736244519e-02 2.1519283423924818e-01 0.0000000000000000e+00  -2.1833539564263715e-01 6.6578424038283124e-02 0.0000000000000000e+00  1.2072674565165920e-01 -1.9063743644167280e-01 0.0000000000000000e+00  -2.2082905645102927e-01 -6.1150061985721149e-02 0.0000000000000000e+00  -1.9938632978994417e-01 -1.0870407221129215e-01 0.0000000000000000e+00  8.3333356860688948e-02 2.1273608019527235e-01 0.0000000000000000e+00  2.1527355929020275e-01 6.0773540222221659e-02 0.0000000000000000e+00  2.2320737169495450e-01 2.6858403841979673e-02 0.0000000000000000e+00  -6.4624033601938344e-02 -2.1407016893373326e-01 0.0000000000000000e+00  -1.1372114544694724e-01 1.9262695087602022e-01 0.0000000000000000e+00  -1.1458734274830709e-01 -1.9312567929230731e-01 0.0000000000000000e+00  1.0000210333128762e-01 2.0607012176743450e-01 0.0000000000000000e+00  -2.2589963752308892e-01 -1.4523261144560585e-02 0.0000000000000000e+00  8.1065964875886853e-02 2.1124715355375781e-01 0.0000000000000000e+00  -2.1700318984870257e-01 -9.6668858807928304e-02 0.0000000000000000e+00  8.5817184489254392e-02 -2.1059558194426203e-01 0.0000000000000000e+00  -2.2279534087275979e-01 4.0923050385257849e-02 0.0000000000000000e+00  -1.6791545113335099e-01 -1.4888565805420176e-01 0.0000000000000000e+00  1.5031301421544493e-01 -1.7674677884370613e-01 0.0000000000000000e+00  -2.1123503201212576e-01 7.9413963382162930e-02 0.0000000000000000e+00  -1.8618478975208938e-01 -1.2649541146127646e-01 0.0000000000000000e+00  2.2662769016692075e-01 -7.9014168449316018e-03 0.0000000000000000e+00  1.6136046876489274e-01 1.5763137721409753e-01 0.0000000000000000e+00  1.7086754900939213e-01 -1.4636470504009455e-01 0.0000000000000000e+00  -7.4546426764563800e-02 -2.1198232171247439e-01 0.0000000000000000e+00  -2.0967006768731925e-02 2.2389928749980922e-01 0.0000000000000000e+00  2.0602024551010761e-01 9.1082251758987362e-02 0.0000000000000000e+00  1.9332954776387784e-01 1.1358689070984511e-01 0.0000000000000000e+00  1.9512944871096743e-01 1.1568542849042557e-01 0.0000000000000000e+00  -8.3949642530556770e-02 2.0832603459893859e-01 0.0000000000000000e+00  3.7866692498535075e-02 2.2130363586607218e-01 0.0000000000000000e+00  2.0457954485342142e-01 9.2373450796181672e-02 0.0000000000000000e+00  2.2348210227857776e-01 -2.4252740103694756e-02 0.0000000000000000e+00  2.0069748731999723e-01 -1.0095384568581316e-01 0.0000000000000000e+00  5.9423851119972998e-04 -2.2472617678968088e-01 0.0000000000000000e+00  2.1020229133259391e-01 8.1718990965238880e-02 0.0000000000000000e+00  -1.9622152483543989e-01 -1.1781866716755347e-01 0.0000000000000000e+00  -4.7959024594910707e-02 2.2116