<?xml version="1.0"?>
<VTKFile type="UnstructuredGrid"  version="0.1"  >
<UnstructuredGrid>
<Piece  NumberOfPoints="2549" NumberOfCells="4928">
<Points>
<DataArray  type="Float64"  NumberOfComponents="3"  format="ascii">1.826628011340194 0.0100575475002409 0  1.823135000265728 0.05644548717862849 0  1.808311387533298 0.09836827340630702 0  1.794374680468875 0.1405924617923867 0  1.775238225291221 0.1805919223205764 0  1.754600722811564 0.2202017332171663 0  1.72991629808953 0.2578971287312279 0  1.705561241460526 0.29637981975479 0  1.670381447758591 0.3281516463499278 0  1.637901727065702 0.351262129209719 0  1.613380988937464 0.3928660200378405 0  1.579556460076418 0.4239313898709761 0  1.546693465735438 0.4573560056125953 0  1.511598347338283 0.4888295594136551 0  1.475392492911507 0.5193213132069064 0  1.438692677306982 0.5509665676920789 0  1.396143303276453 0.5756356035656803 0  1.358408440753897 0.5958410345493996 0  1.321989146108169 0.6320205110037731 0  1.281189253790137 0.659494607652736 0  1.24036429604343 0.6892057388089283 0  1.198156710497378 0.7176523371771615 0  1.15515565176094 0.7461940421608604 0  1.11131249545737 0.7754474106536915 0  1.064849990081697 0.8035507522378681 0  1.018358258080917 0.8278724684022571 0  0.9712686735976157 0.8556530158113096 0  0.9225640332528287 0.8827054156445658 0  0.8724991711960045 0.9094255190718389 0  0.8209932583055999 0.9356734353364616 0  0.7680003494328508 0.9612534052663736 0  0.7135086906743019 0.986455874586136 0  0.6569646076065137 1.009947143681228 0  0.5995565806881394 1.031908368690805 0  0.5402502423183887 1.054088599316469 0  0.4792521550209046 1.074090134268229 0  0.4166750749040721 1.092524904472041 0  0.3525980093184423 1.108972399555262 0  0.2871369992588051 1.123211787803495 0  0.2204820341844999 1.135379617203326 0  0.1525621058353182 1.144453633208759 0  0.084254698551046 1.150735923793695 0  0.01516313773801866 1.154772688350481 0  -0.0541557924514829 1.155449675457937 0  -0.1234379905281298 1.153198374237343 0  -0.1923729318410038 1.147816124048409 0  -0.2606625377346803 1.139565287349514 0  -0.3280285439171433 1.127925022521365 0  -0.3939535733863837 1.114569486986938 0  -0.459120070772783 1.098451247626388 0  -0.5224170985326431 1.079361198442996 0  -0.5840893680610273 1.058500292273549 0  -0.6440191665299476 1.035809260283684 0  -0.7021389606456954 1.011422007799143 0  -0.758496681876425 0.9861486763456656 0  -0.8127742264934451 0.9581325610720863 0  -0.8650207204443339 0.9335454348818869 0  -0.9175773187019238 0.9066589646700989 0  -0.9672066260801068 0.8773070764284939 0  -1.015480014365409 0.8484109560106454 0  -1.062445110407672 0.8194297634329286 0  -1.107881999763706 0.7894135119164518 0  -1.152611608376111 0.7613577470637722 0  -1.194367052385267 0.726162921525954 0  -1.234693304982883 0.7022979537037961 0  -1.279157050215225 0.6783390602745889 0  -1.319670311244088 0.6484500643962918 0  -1.359685233111481 0.6200239518576985 0  -1.398412479644057 0.5903270204507104 0  -1.437335819713156 0.5629462282446879 0  -1.472755845268795 0.5296805387655245 0  -1.515721385583411 0.5145811673279334 0  -1.556821140747306 0.4763914214243465 0  -1.579327193955058 0.4274512631017408 0  -1.611388133972919 0.3947525020444431 0  -1.638871467671421 0.3582299873715347 0  -1.668494464383773 0.3242884589538682 0  -1.691580957447247 0.2858133030811305 0  -1.723010123250737 0.2552155388227295 0  -1.727261666698382 0.2057779256952108 0  -1.765433993856883 0.1912922122173512 0  -1.806948573959035 0.1534324271411052 0  -1.805308336467848 0.1055704001997733 0  -1.820896726071893 0.06186192780492102 0  -1.819151713964946 0.01677767361497101 0  -1.822109673396046 -0.02836796995310506 0  -1.806732838115838 -0.07222781780855372 0  -1.810540944510304 -0.1206403116052465 0  -1.767671438231513 -0.1583329273271906 0  -1.729004666126833 -0.1710146654131197 0  -1.72776885391978 -0.2224723158699743 0  -1.696515111779721 -0.2529929693210915 0  -1.674770067744285 -0.2924633135608322 0  -1.645903624967829 -0.3270323204932357 0  -1.619314869262276 -0.3643771403361525 0  -1.587632952974112 -0.3972666254574649 0  -1.566862323894331 -0.4474744436047649 0  -1.527131830155018 -0.4892869336669797 0  -1.483872094730211 -0.5033091488355533 0  -1.449275165632159 -0.5378693816294827 0  -1.410806196158238 -0.5656491249467813 0  -1.372734094424925 -0.5961400930549239 0  -1.333274329757774 -0.6251600129655339 0  -1.293353095042447 -0.6557373847847024 0  -1.249395990908072 -0.6794708279663697 0  -1.210340742041598 -0.704078067379078 0  -1.169622262805728 -0.7419007355630511 0  -1.125603102522498 -0.7710098932097357 0  -1.080992598681268 -0.8027242407751953 0  -1.034804069581974 -0.8333349753793675 0  -0.9872190745739213 -0.8639278476503087 0  -0.9380456435286415 -0.894603368770808 0  -0.8865965984825608 -0.9220876988570571 0  -0.8356710172332853 -0.9504550715822152 0  -0.7817109838319578 -0.9830441802366696 0  -0.7254717446885087 -1.010920948514463 0  -0.6673772852507432 -1.03872580517522 0  -0.607249016425095 -1.064634269325361 0  -0.5451503111060786 -1.088843318017943 0  -0.4811866436980877 -1.111624308404724 0  -0.4147499159174703 -1.130865211577643 0  -0.3477179852658824 -1.147002729177503 0  -0.2787439977883059 -1.162067861167185 0  -0.2084873464589185 -1.173202847481433 0  -0.1372755672786296 -1.181180817666258 0  -0.06543689692164995 -1.185596052779103 0  0.006661384785164023 -1.186520795640971 0  0.07867949157625517 -1.183823911666986 0  0.1502312931655496 -1.177646956344854 0  0.2209189182291789 -1.168060160348644 0  0.2905306214849256 -1.155395597938891 0  0.3587389133061956 -1.139721681090491 0  0.425326916119763 -1.121418369829022 0  0.490112536392949 -1.100629056110705 0  0.5529934854627949 -1.078109604664995 0  0.6137583958584885 -1.052529635470083 0  0.6720183389801322 -1.028726477402889 0  0.7299522146544918 -1.002668562466247 0  0.7850042874649672 -0.9741147885942564 0  0.8383242695477536 -0.9456410814480153 0  0.8899269210551251 -0.9166026021267033 0  0.9398846702992197 -0.8872662210327988 0  0.9883099152898539 -0.8577355770672477 0  1.034997506341958 -0.8277721501281665 0  1.081017369193692 -0.8013360928403864 0  1.126831256567618 -0.7711860457810085 0  1.17004108869689 -0.7402191648873969 0  1.212346771231603 -0.710058613918927 0  1.253857789021454 -0.680176820560449 0  1.293937075607571 -0.6490705564311805 0  1.334070886538549 -0.6205317598302116 0  1.369603894482288 -0.5827688604384642 0  1.406511316197533 -0.5619300636882975 0  1.448569378920672 -0.5367739549139888 0  1.484632562278367 -0.5043176955072772 0  1.520210845454402 -0.4731034273530865 0  1.554642057942175 -0.4408912550621691 0  1.586792560660852 -0.4067331069210113 0  1.620024690981196 -0.3751464293525703 0  1.643555030395896 -0.3325661609939796 0  1.675516372414929 -0.3094637462497499 0  1.710248130070829 -0.2773384619180873 0  1.733799000176725 -0.2383248340107201 0  1.757721900952265 -0.2002214012127885 0  1.77756878016169 -0.160277237157847 0  1.795624494878096 -0.1199476337510465 0  1.80940953805973 -0.07784265138684397 0  1.822065149992389 -0.0354873592156664 0  -0.1073310831691326 0.7032004122285322 0  0.7030203018344836 -0.519132470638226 0  -0.8685183414799037 -0.4420636236018699 0  -0.08793198339308116 -0.7130261562522566 0  0.6926165235795787 0.5127313260447947 0  1.306761199197185 0.1905793564219263 0  -0.8748302309641516 0.4507595941961325 0  -1.412453759836438 0.01131528611918503 0  1.311222504442004 -0.1781104872861565 0  -1.184672772401979 -0.3035407102647619 0  -0.914851867065172 -0.0005785922016416367 0  -0.5491200116523356 -0.138123750803129 0  -1.193166057246163 0.3095370274412318 0  0.342894541443905 -0.6752829208284388 0  0.1440181630642986 -0.2219596406377595 0  0.2960489075433005 0.6504733516438327 0  0.3634308339081336 0.1875827063859749 0  0.738832831527469 0.005150555219227429 0  -0.4895714961361612 -0.5919673719748437 0  -0.5201001281134694 0.6088110994624564 0  -0.312063222604429 0.2553617887222835 0  1.037525435388136 -0.3297856329462021 0  1.031210309423764 0.3375718084495427 0  0.458843935599169 -0.2134127143518861 0  0.02369915705653375 0.2280656523261307 0  -0.6176980178359031 0.1984060591763305 0  -0.2092875453112059 -0.2058563960526861 0  1.068633139532319 0.005511314691078894 0  1.526091788888709 0.007984279929269278 0  0.8703888471601677 -0.4181108181998132 0  0.881059579033121 -0.1660717652839219 0  0.7075091590590527 -0.2463186077292575 0  0.594197028569887 -0.09680002340380467 0  0.5776666846076283 -0.3704360088222384 0  1.044726110260677 -0.1583256084525364 0  0.9042542703432767 0.005286671779480579 0  -1.047188688277809 0.1580237318535977 0  -1.296637055326992 0.154475787008804 0  -1.165261671865633 0.005885139623232057 0  -1.04349458324977 -0.1550764007355095 0  -1.291863361852019 -0.1394353697283234 0  -1.47500088107365 -0.2154476571010012 0  -1.597222756514385 -0.07129656047801987 0  -1.595450810114257 0.09892319494692675 0  -1.470096036933761 0.2407278434837294 0  -0.1492208548952326 -0.4606672770456862 0  -0.3390050475657823 -0.4050174305148835 0  -0.2934973564675416 -0.6600113612234472 0  -0.3776437432902324 -0.1695613784006132 0  -0.5163322690781711 -0.3603604699733552 0  -1.377360134099908 -0.3770771165336813 0  -1.376222520397417 0.3942908797036954 0  0.4045729979698731 -0.4387324925673134 0  0.3009772730513353 -0.2133341488366725 0  0.2447457682327304 -0.4474456751787088 0  -1.034066954133192 0.3749903054171126 0  -0.8828956909469028 0.2191214408632399 0  1.502099323257391 -0.2454249791214422 0  1.356900084890339 -0.3690262271022711 0  1.349653393465969 0.3817101798072199 0  1.497098526049081 0.2607428729638899 0  -0.8720332788977946 -0.6780725861401454 0  -1.061281991740034 -0.5652260714070794 0  -1.056865705447866 0.5803693582078194 0  -0.86559782155281 0.6862284644231468 0  0.8902712514860599 -0.6640256913042414 0  0.6856118600543811 -0.7694504229161393 0  0.6743675093538239 0.7562459913104085 0  0.878857585791112 0.6612875759986083 0  0.020223
[...]
<PointData  Vectors="f_44"> 
<DataArray  type="Float64"  Name="f_44"  NumberOfComponents="3" format="ascii">2.3121723501091029e-01 -9.7131379172613452e-03 0.0000000000000000e+00  1.9496450539593213e-01 9.6007005442122109e-02 0.0000000000000000e+00  1.7584424258333778e-01 1.4403647610069895e-01 0.0000000000000000e+00  1.6239445998318391e-01 1.4884701495578762e-01 0.0000000000000000e+00  1.3463757642694160e-01 1.8209752503630530e-01 0.0000000000000000e+00  1.0444317546280996e-01 1.9478933292340625e-01 0.0000000000000000e+00  9.9775343981198875e-02 2.0360167041503394e-01 0.0000000000000000e+00  5.2128359111032224e-02 2.1182088629441290e-01 0.0000000000000000e+00  -9.2542680403952998e-02 2.2355862913799385e-01 0.0000000000000000e+00  4.2316631075812516e-02 1.9665186355457173e-01 0.0000000000000000e+00  6.5323809301740740e-02 2.0752334921915896e-01 0.0000000000000000e+00  -2.7801632772617976e-02 2.2725179275963134e-01 0.0000000000000000e+00  1.6535492308742195e-03 2.2246370299475138e-01 0.0000000000000000e+00  -4.0423671244133368e-02 2.2048693178779041e-01 0.0000000000000000e+00  -2.6862926357504324e-02 2.2348069661045764e-01 0.0000000000000000e+00  -6.4448253051829718e-02 2.1030592004183149e-01 0.0000000000000000e+00  -1.4816555601507134e-01 1.8069364640015476e-01 0.0000000000000000e+00  -4.3957779979011367e-02 2.0895657740548934e-01 0.0000000000000000e+00  -2.9735385632744089e-02 2.1929675191607576e-01 0.0000000000000000e+00  -8.9463884331919957e-02 2.0726275634773172e-01 0.0000000000000000e+00  -6.9807763936486356e-02 2.1187339104178435e-01 0.0000000000000000e+00  -8.9513709054725624e-02 2.0529228663045926e-01 0.0000000000000000e+00  -8.4367000586614435e-02 2.0692225129437489e-01 0.0000000000000000e+00  -9.1012775559992820e-02 2.0462616893441157e-01 0.0000000000000000e+00  -1.2081937743012057e-01 1.8803376197472441e-01 0.0000000000000000e+00  -1.1896065279865352e-01 1.8890090645277807e-01 0.0000000000000000e+00  -1.0935005483359206e-01 1.9516395734684702e-01 0.0000000000000000e+00  -1.2281515450350501e-01 1.8694566123509748e-01 0.0000000000000000e+00  -1.2727941118844169e-01 1.8384754738312742e-01 0.0000000000000000e+00  -1.3574914137126132e-01 1.7767483692905470e-01 0.0000000000000000e+00  -1.4131625283598603e-01 1.7338352999720158e-01 0.0000000000000000e+00  -1.5069853328659566e-01 1.6517851373128442e-01 0.0000000000000000e+00  -1.6379523031410909e-01 1.5226764210584642e-01 0.0000000000000000e+00  -1.6702584598600553e-01 1.4879075931598693e-01 0.0000000000000000e+00  -1.7378850944245228e-01 1.4054638490248092e-01 0.0000000000000000e+00  -1.8469497361408918e-01 1.2629838096170351e-01 0.0000000000000000e+00  -1.9172734880964443e-01 1.1509145842190088e-01 0.0000000000000000e+00  -2.0003036749936826e-01 1.0000153475181237e-01 0.0000000000000000e+00  -2.0629484040154777e-01 8.6546677907392358e-02 0.0000000000000000e+00  -2.1257656176270007e-01 6.9421323225196646e-02 0.0000000000000000e+00  -2.1828936875655838e-01 4.8753667627464727e-02 0.0000000000000000e+00  -2.2112892478716581e-01 3.4009605716850730e-02 0.0000000000000000e+00  -2.2302685431464561e-01 1.5635709755709919e-02 0.0000000000000000e+00  -2.2371371101140775e-01 -5.3513364779983605e-03 0.0000000000000000e+00  -2.2221599873669690e-01 -2.4678555480999405e-02 0.0000000000000000e+00  -2.1952194147836199e-01 -4.3573441008172516e-02 0.0000000000000000e+00  -2.1391212887369407e-01 -6.4870920508474608e-02 0.0000000000000000e+00  -2.0829701125518876e-01 -8.1728839343482226e-02 0.0000000000000000e+00  -2.0277590986852706e-01 -9.4347442832291364e-02 0.0000000000000000e+00  -1.9201076748957063e-01 -1.1465611221660783e-01 0.0000000000000000e+00  -1.8171897045195273e-01 -1.3046499691188526e-01 0.0000000000000000e+00  -1.7320357024189917e-01 -1.4152951218445137e-01 0.0000000000000000e+00  -1.6122203157975543e-01 -1.5482800065567165e-01 0.0000000000000000e+00  -1.5459092597276394e-01 -1.6200959566716439e-01 0.0000000000000000e+00  -1.3655811610650062e-01 -1.7672395349486172e-01 0.0000000000000000e+00  -1.3414207095463801e-01 -1.7866813182574423e-01 0.0000000000000000e+00  -1.4207235219308947e-01 -1.7306134608160076e-01 0.0000000000000000e+00  -1.1746783742145975e-01 -1.9014144530430982e-01 0.0000000000000000e+00  -1.0411021282811597e-01 -1.9798781057982123e-01 0.0000000000000000e+00  -1.0608220671741052e-01 -1.9705204984922206e-01 0.0000000000000000e+00  -8.9307031933444997e-02 -2.0461789011634959e-01 0.0000000000000000e+00  -1.0093767923028941e-01 -2.0099993796354265e-01 0.0000000000000000e+00  -6.1288476377935670e-02 -2.1266108583676321e-01 0.0000000000000000e+00  -5.7220092795626815e-02 -2.1415976981410489e-01 0.0000000000000000e+00  -1.3593082119054997e-01 -1.8320786774334463e-01 0.0000000000000000e+00  -9.1260856831294007e-02 -2.0076498138054938e-01 0.0000000000000000e+00  -6.6074145995462935e-02 -2.1486035736801443e-01 0.0000000000000000e+00  -6.2586753697928599e-02 -2.1443587922568122e-01 0.0000000000000000e+00  -7.8624036328509478e-02 -2.0861529667635659e-01 0.0000000000000000e+00  -2.2471093001264618e-02 -2.3072522491416023e-01 0.0000000000000000e+00  -9.8092255721742697e-02 -1.7014163833996679e-01 0.0000000000000000e+00  -1.3870727389006088e-01 -1.8447042762687410e-01 0.0000000000000000e+00  1.0824108528646641e-01 -2.0313779282564576e-01 0.0000000000000000e+00  8.7917712975862497e-02 -1.8452139173645907e-01 0.0000000000000000e+00  1.6811401699201277e-02 -2.2765518631150577e-01 0.0000000000000000e+00  4.3612324674691332e-02 -2.2019184240785003e-01 0.0000000000000000e+00  8.6430909864492034e-02 -2.0047682477427456e-01 0.0000000000000000e+00  1.6538284049527684e-02 -2.3464923455146985e-01 0.0000000000000000e+00  1.4958508487812414e-01 -1.2163636773748995e-01 0.0000000000000000e+00  6.6823921895352745e-02 -4.1565886844476048e-02 0.0000000000000000e+00  -1.7650681946153032e-01 -2.5224091515426644e-01 0.0000000000000000e+00  1.3459212629343090e-01 -9.0100679667983505e-02 0.0000000000000000e+00  2.1900807554938795e-01 -5.0214115788804692e-02 0.0000000000000000e+00  1.8114133130072338e-01 -8.0046625445267167e-02 0.0000000000000000e+00  2.4290187044553208e-01 -8.3531079711930117e-03 0.0000000000000000e+00  1.8114494742338300e-01 7.7372602831175599e-02 0.0000000000000000e+00  2.1997769093433153e-01 3.6428541828779103e-02 0.0000000000000000e+00  1.2964974830188802e-01 7.9376097916244337e-02 0.0000000000000000e+00  -1.8922731378730973e-01 2.5128024796815146e-01 0.0000000000000000e+00  6.6511786039935211e-02 1.1673198978502638e-02 0.0000000000000000e+00  1.5413138525160838e-01 1.0583114379235789e-01 0.0000000000000000e+00  2.3733689318524844e-02 2.3375960512605656e-01 0.0000000000000000e+00  1.0010321371902385e-01 1.9381851600047911e-01 0.0000000000000000e+00  5.4004741301513060e-02 2.1803358704280737e-01 0.0000000000000000e+00  2.4577590437663839e-02 2.2747305708319437e-01 0.0000000000000000e+00  9.2718065578171138e-02 1.7616633484694894e-01 0.0000000000000000e+00  1.3389598001065142e-01 1.9768866545240626e-01 0.0000000000000000e+00  -1.2592956651529830e-01 1.8260491247228117e-01 0.0000000000000000e+00  -9.8365311455280130e-02 1.6409543586362169e-01 0.0000000000000000e+00  -9.1270465816288785e-03 2.3358100970172016e-01 0.0000000000000000e+00  -7.3275745853457599e-02 2.1038871612218435e-01 0.0000000000000000e+00  -5.3803143225442232e-02 2.1673617737878442e-01 0.0000000000000000e+00  -5.8100728867347608e-02 2.1758391248605155e-01 0.0000000000000000e+00  -8.7659454049059865e-02 2.0123372520217930e-01 0.0000000000000000e+00  -1.3361348835268871e-01 1.8620045278797231e-01 0.0000000000000000e+00  -3.6520697112578104e-02 2.1889727507706447e-01 0.0000000000000000e+00  -4.5225502526716414e-02 2.1551344528297811e-01 0.0000000000000000e+00  -9.0485917254086931e-02 2.0633433035888724e-01 0.0000000000000000e+00  -7.4549587583679952e-02 2.1039514943697890e-01 0.0000000000000000e+00  -9.3328355538268001e-02 2.0338984362949444e-01 0.0000000000000000e+00  -9.1968552719147514e-02 2.0413286398567632e-01 0.0000000000000000e+00  -1.1219851240524133e-01 1.9289499720536993e-01 0.0000000000000000e+00  -1.2730352370621531e-01 1.8428186439728486e-01 0.0000000000000000e+00  -1.0465189032913993e-01 1.9792851152394611e-01 0.0000000000000000e+00  -1.1819773113286229e-01 1.8882445408834775e-01 0.0000000000000000e+00  -1.4087429323262710e-01 1.7442955282933670e-01 0.0000000000000000e+00  -1.4511116011466502e-01 1.6986255992545521e-01 0.0000000000000000e+00  -1.6035008481923735e-01 1.5600620670438156e-01 0.0000000000000000e+00  -1.6812805211294701e-01 1.4761440913877386e-01 0.0000000000000000e+00  -1.8080116993950432e-01 1.3156004170610008e-01 0.0000000000000000e+00  -1.9564225604863208e-01 1.0843294227036870e-01 0.0000000000000000e+00  -2.0093348667335550e-01 9.8525183859141816e-02 0.0000000000000000e+00  -2.0768029172431177e-01 8.2462769371106415e-02 0.0000000000000000e+00  -2.1607006030338730e-01 5.8623127547656771e-02 0.0000000000000000e+00  -2.2018859475012803e-01 3.8857833977799586e-02 0.0000000000000000e+00  -2.2314715214733283e-01 1.6482797543269589e-02 0.0000000000000000e+00  -2.2359536794486415e-01 -5.4548818251139606e-03 0.0000000000000000e+00  -2.2201286606518114e-01 -2.7622750832472013e-02 0.0000000000000000e+00  -2.1819506802753474e-01 -4.9152807645716425e-02 0.0000000000000000e+00  -2.1270825244304156e-01 -6.9326383435549505e-02 0.0000000000000000e+00  -2.0542126991437301e-01 -8.8402908432938326e-02 0.0000000000000000e+00  -1.9701734857214392e-01 -1.0605885300443921e-01 0.0000000000000000e+00  -1.8666434273873703e-01 -1.2297301036058846e-01 0.0000000000000000e+00  -1.7855674487995693e-01 -1.3511932477204619e-01 0.0000000000000000e+00  -1.6301531534837257e-01 -1.5268726324331605e-01 0.0000000000000000e+00  -1.5672467567317705e-01 -1.5956573212561265e-01 0.0000000000000000e+00  -1.5747944669466324e-01 -1.5893202368545667e-01 0.0000000000000000e+00  -1.3725741445403128e-01 -1.7642846318276578e-01 0.0000000000000000e+00  -1.2528364926320010e-01 -1.8537680205707630e-01 0.0000000000000000e+00  -1.2109688868844136e-01 -1.8792503817052217e-01 0.0000000000000000e+00  -1.1171059661007988e-01 -1.9372984879588045e-01 0.0000000000000000e+00  -1.0709405574415005e-01 -1.9634799022050381e-01 0.0000000000000000e+00  -9.3877248804621477e-02 -2.0307358687767965e-01 0.0000000000000000e+00  -1.0423520374317365e-01 -1.9745205982190545e-01 0.0000000000000000e+00  -1.0550751028348092e-01 -1.9699015325011759e-01 0.0000000000000000e+00  -7.6304875218850640e-02 -2.1055585473812755e-01 0.0000000000000000e+00  -7.0434179532909050e-02 -2.1206582370261437e-01 0.0000000000000000e+00  -7.6199839059690855e-02 -2.1059943988090565e-01 0.0000000000000000e+00  -5.6305142362096619e-02 -2.1585783540052686e-01 0.0000000000000000e+00  -7.8138330879695655e-02 -2.1189776411300765e-01 0.0000000000000000e+00  -1.6468775682890058e-02 -2.2032769854947595e-01 0.0000000000000000e+00  -2.9970894146588645e-02 -2.1095438885194900e-01 0.0000000000000000e+00  -1.4318949126709693e-01 -1.8594509589188263e-01 0.0000000000000000e+00  -5.7005521368139050e-02 -2.1183705697643079e-01 0.0000000000000000e+00  -1.7134707481039506e-02 -2.2466035025021705e-01 0.0000000000000000e+00  -3.1648623925559893e-02 -2.2190125010983824e-01 0.0000000000000000e+00  1.1793610795008434e-02 -2.2217383241965211e-01 0.0000000000000000e+00  -1.9753335960697015e-02 -2.2834547046522213e-01 0.0000000000000000e+00  7.5346875080804010e-02 -2.0377784224846793e-01 0.0000000000000000e+00  5.0785443228446414e-02 -1.9250105088493905e-01 0.0000000000000000e+00  -8.9875531060014308e-02 -2.2628645972016526e-01 0.0000000000000000e+00  5.9641863942021735e-02 -2.0945593929939094e-01 0.0000000000000000e+00  1.0846256541657942e-01 -1.9916175926007762e-01 0.0000000000000000e+00  1.1096010074932275e-01 -1.9148024863699939e-01 0.0000000000000000e+00  1.4403271507116941e-01 -1.7391667350606613e-01 0.0000000000000000e+00  1.6495399170523567e-01 -1.4780252316157094e-01 0.0000000000000000e+00  1.8396210049107287e-01 -1.3188143255698556e-01 0.0000000000000000e+00  2.0100655510225160e-01 -8.9384224087378075e-02 0.0000000000000000e+00  -2.1849691097256860e-01 -4.8642090710254056e-02 0.0000000000000000e+00  9.4926591865653574e-03 -2.2369104792647701e-01 0.0000000000000000e+00  6.3027788166917995e-02 2.1479473113659989e-01 0.0000000000000000e+00  -2.2082929515386523e-01 3.6601543580173576e-02 0.0000000000000000e+00  1.2098501417914350e-02 2.2358835304478025e-01 0.0000000000000000e+00  1.8150936392242242e-01 1.3109758851426592e-01 0.0000000000000000e+00  6.1674467425580012e-02 -2.1521174927784367e-01 0.0000000000000000e+00  2.2401745986940533e-01 -3.6661496769461181e-03 0.0000000000000000e+00  1.8511907874906411e-01 -1.2593976397934412e-01 0.0000000000000000e+00  1.3263024433684817e-01 1.8034545408902936e-01 0.0000000000000000e+00  2.2390571555531003e-01 4.6896731963145073e-03 0.0000000000000000e+00  1.8541091612938343e-01 1.2598793845833492e-01 0.0000000000000000e+00  1.3406294822122247e-01 -1.7930116032986781e-01 0.0000000000000000e+00  -1.4783472246999904e-01 -1.6807319009775570e-01 0.0000000000000000e+00  -7.0001191976791707e-02 -2.1393932058952891e-01 0.0000000000000000e+00  -1.5598139029376792e-01 1.6056112459079558e-01 0.0000000000000000e+00  1.4664146609585763e-01 1.7000309796021826e-01 0.0000000000000000e+00  2.2413655583345621e-01 -2.4783679356292225e-03 0.0000000000000000e+00  -8.7305698180882629e-02 2.0612502383091594e-01 0.0000000000000000e+00  -8.1984501589212389e-02 -2.0830326413878417e-01 0.0000000000000000e+00  4.0463252852722328e-02 -2.2121057318404791e-01 0.0000000000000000e+00  1.2638162602456249e-01 -1.8479274960864592e-01 0.0000000000000000e+00  1.2283731701131102e-01 1.8718443136074259e-01 0.0000000000000000e+00  1.3128321168456597e-01 -1.8170850593173907e-01 0.0000000000000000e+00  -2.0450720168195283e-01 9.4775896776446433e-02 0.0000000000000000e+00  1.7199304748200900e-01 -1.4349295512635749e-01 0.0000000000000000e+00  -3.2462127329436451e-02 2.2299322188879281e-01 0.0000000000000000e+00  2.2380506009811510e-01 1.7177116548774344e-03 0.0000000000000000e+00  2.2392989568884986e-01 3.6754796190236424e-03 0.0000000000000000e+00  7.9213704743845620e-02 -2.0944519857594079e-01 0.0000000000000000e+00  1.9402420232200873e-01 -1.1189318339328808e-01 0.0000000000000000e+00  1.5304820214953102e-01 -1.6372706147778973e-01 0.0000000000000000e+00  2.0626357047321139e-01 -8.7777644385180500e-02 0.0000000000000000e+00  6.3842636688082904e-02 -2.1476819961634713e-01 0.0000000000000000e+00  1.9782353157485766e-01 -1.0472241903023366e-01 0.0000000000000000e+00  2.2389657824152079e-01 1.2953777777762078e-04 0.0000000000000000e+00  2.0034083375349124e-01 -9.9966980655660065e-02 0.0000000000000000e+00  1.9878612233175613e-01 -1.0318208800949545e-01 0.0000000000000000e+00  2.2384219959632704e-01 -6.5270945439904334e-05 0.0000000000000000e+00  1.9794746759637569e-01 1.0460467977964003e-01 0.0000000000000000e+00  1.9990162812649626e-01 1.0101134790790654e-01 0.0000000000000000e+00  1.6205810782546859e-01 1.5482524694212091e-01 0.0000000000000000e+00  2.1369351939833856e-01 6.6623442260122331e-02 0.0000000000000000e+00  2.1024987665185563e-01 -7.6968866956076507e-02 0.0000000000000000e+00  1.5587498186910376e-01 -1.6105418624131537e-01 0.0000000000000000e+00  -1.9651069757967859e-01 1.0774665258207340e-01 0.0000000000000000e+00  -7.2452160086749415e-02 2.1209317693531096e-01 0.0000000000000000e+00  -1.7296578024950932e-01 1.4209402158363701e-01 0.0000000000000000e+00  1.2893987783930641e-01 1.8403583697310538e-01 0.0000000000000000e+00  3.9776522801460198e-02 2.2046462335351724e-01 0.0000000000000000e+00  6.9740506956214657e-02 2.1294396516633851e-01 0.0000000000000000e+00  6.6962380704965838e-02 -2.1384078372477905e-01 0.0000000000000000e+00  -3.5681062451206037e-02 -2.2114982559976895e-01 0.0000000000000000e+00  7.1253978872199697e-02 -2.1304683320429954e-01 0.0000000000000000e+00  -1.2176540615600205e-01 -1.8817446335158550e-01 0.0000000000000000e+00  1.0530342483825370e-01 -1.9757851444620569e-01 0.0000000000000000e+00  1.7775075440060431e-01 -1.3628649020267081e-01 0.0000000000000000e+00  1.3339313455005508e-01 -1.7988768260639454e-01 0.0000000000000000e+00  7.7358806603102126e-02 -2.1018404497672658e-01 0.0000000000000000e+00  6.9785401467323524e-02 2.1282904182320184e-01 0.0000000000000000e+00  1.2714418263991586e-01 1.8436780571923123e-01 0.0000000000000000e+00  -4.3400302337466119e-02 2.1950120346229962e-01 0.0000000000000000e+00  4.8876599375455871e-03 2.2371649377911587e-01 0.0000000000000000e+00  -3.7049925216438217e-03 -2.2376779377262984e-01 0.0000000000000000e+00  -5.1412731944804974e-02 -2.1779029007902875e-01 0.0000000000000000e+00  -3.6474421463087138e-02 -2.2078913473534792e-01 0.0000000000000000e+00  -9.2409972005608923e-02 -2.0376485429978530e-01 0.0000000000000000e+00  -9.7214554561126126e-02 2.0154290642571818e-01 0.0000000000000000e+00  -4.4083165063183008e-02 2.1942853692912553e-01 0.0000000000000000e+00  -2.2331384690453618e-01 -1.4197526730843299e-02 0.0000000000000000e+00  -2.0731148347430220e-01 8.4184951845977130e-02 0.0000000000000000e+00  -2.0850532157474472e-01 -8.1190046272274691e-02 0.0000000000000000e+00  -2.2334682281567925e-01 1.3350910979124130e-02 0.0000000000000000e+00  -6.5801101908791557e-02 -2.1395414635769133e-01 0.0000000000000000e+00  2.1348835626294765e-01 6.8709028172476830e-02 0.0000000000000000e+00  1.5788258477746872e-01 1.5908352709936821e-01 0.0000000000000000e+00  6.9483557460017734e-02 2.1308692456171363e-01 0.0000000000000000e+00  1.2196072609961864e-01 1.8786788533177204e-01 0.0000000000000000e+00  2.1738922580627071e-01 5.3989001669706715e-02 0.0000000000000000e+00  1.7507644040715697e-01 1.3966364643063650e-01 0.0000000000000000e+00  3.0425340647613274e-02 2.2321808133977039e-01 0.0000000000000000e+00  -2.5526562791973556e-01 -4.8029796643532567e-02 0.0000000000000000e+00  2.2054081160105946e-01 -5.0102384562656220e-02 0.0000000000000000e+00  2.4566546381584772e-02 2.2249690446278858e-01 0.0000000000000000e+00  2.0451831031249118e-02 -2.2293390568414867e-01 0.0000000000000000e+00  1.0573986387688175e-01 1.9731031821138900e-01 0.0000000000000000e+00  1.9414151096661719e-01 1.1169855642174478e-01 0.0000000000000000e+00  7.8297881221513196e-02 2.0981113081535721e-01 0.0000000000000000e+00  1.9633589918064495e-01 1.0749564143327678e-01 0.0000000000000000e+00  -4.3523656308729355e-02 2.1983380274927572e-01 0.0000000000000000e+00  -6.6088338459950907e-02 2.1389534608057584e-01 0.0000000000000000e+00  -2.1604600054137274e-01 -5.9798731186422226e-02 0.0000000000000000e+00  -2.0895336612305579e-01 -8.0329995105489049e-02 0.0000000000000000e+00  -4.1156841205181406e-02 -2.2026189864301160e-01 0.0000000000000000e+00  -1.6412678041785034e-01 -1.5267186183964682e-01 0.0000000000000000e+00  -1.6490005168731428e-01 -1.5142821834419404e-01 0.0000000000000000e+00  2.2212178501917168e-01 -3.2555388215818486e-02 0.0000000000000000e+00  -2.2509713641434012e-01 1.5180887038052277e-02 0.0000000000000000e+00  -1.4662098391373324e-01 -1.6899557720500594e-01 0.0000000000000000e+00  -2.0027411845198145e-01 -9.9779712011745056e-02 0.0000000000000000e+00  -2.0294222192801240e-01 9.4200025581080621e-02 0.0000000000000000e+00  -1.5278799444822500e-01 1.6345419463911623e-01 0.0000000000000000e+00  2.2592019280918083e-01 1.0013650686753381e-01 0.0000000000000000e+00  -1.6517201868647927e-01 1.5146472425770990e-01 0.0000000000000000e+00  -2.1370156271863361e-01 6.6583270935591202e-02 0.0000000000000000e+00  -1.6149494017872243e-01 1.5485651826431751e-01 0.0000000000000000e+00  -9.5058053030522532e-02 2.0253294072023750e-01 0.0000000000000000e+00  6.7123410967234406e-04 2.2383768612965640e-01 0.0000000000000000e+00  -1.0328085338826568e-01 -1.9849081245293299e-01 0.0000000000000000e+00  -1.6457595835049746e-01 -1.5159426180522437e-01 0.0000000000000000e+00  2.0539520509255680e-04 -2.2384829804881240e-01 0.0000000000000000e+00  2.1496029646182860e-01 -6.2846415175621423e-02 0.00000