<?xml version="1.0"?>
<VTKFile type="UnstructuredGrid"  version="0.1"  >
<UnstructuredGrid>
<Piece  NumberOfPoints="2549" NumberOfCells="4928">
<Points>
<DataArray  type="Float64"  NumberOfComponents="3"  format="ascii">0.9164250708762125 0.06285967187650562 0  0.9119915323158001 0.05068716190117586 0  0.870810961227376 0.01450632049177308 0  0.8672196792783826 -0.01246452524002872 0  0.8602499427338262 -0.0433713962611941 0  0.8696567422087149 -0.06498111121440187 0  0.8761270935698164 -0.08585385707899407 0  0.9038331739756935 -0.08875566167539012 0  0.8802350323096911 -0.1206363491054159 0  0.8874271852047179 -0.1940480129665466 0  0.9562180894542329 -0.1397911364578531 0  0.9769907633156086 -0.1399071121293038 0  1.012465433103573 -0.1143982351880053 0  1.041483023969777 -0.0908068402858565 0  1.070050803758017 -0.06364946446378061 0  1.101183824166429 -0.02011724300174345 0  1.100701927356144 -0.0115163434976151 0  1.134655997341527 -0.02259661357928178 0  1.180666629978537 0.07396395148405754 0  1.202694771701617 0.1235435389788014 0  1.227584767022802 0.1941919353398071 0  1.246524170236033 0.2637162062121753 0  1.262909263123559 0.3403352583930465 0  1.276185188676953 0.4276503376208373 0  1.275022610695212 0.5137977707029601 0  1.275413191449236 0.5821238323717681 0  1.273627468879372 0.6776950270275761 0  1.263150373761831 0.7741744511273301 0  1.245432419826525 0.8738843710153436 0  1.219839364506127 0.9758137436978149 0  1.18596625863613 1.078616189561345 0  1.143631523140737 1.183996864840165 0  1.089274883682715 1.283521822219354 0  1.030231633130782 1.378235942250754 0  0.9599504216224717 1.478993686803977 0  0.8796408845674246 1.570741961043432 0  0.7899307710192969 1.657246969280074 0  0.6912405925831129 1.73583080122803 0  0.5842253712778102 1.805071800818252 0  0.470004770787224 1.865789884459751 0  0.3480691404880935 1.911570151829733 0  0.223838335401489 1.944282351310625 0  0.09476961780455832 1.967329302190507 0  -0.03572015839678097 1.973743299412362 0  -0.1660434059400697 1.966224783659166 0  -0.2943228532310613 1.943518053452809 0  -0.4187599448352434 1.907281175413051 0  -0.5376813779338427 1.854284698834089 0  -0.6479213167111326 1.7950256161226 0  -0.7538152742826374 1.722998928144521 0  -0.8484931753805651 1.636947442883855 0  -0.9335614428597913 1.544435479557634 0  -1.008365751921532 1.445160069736898 0  -1.072570600184764 1.340035215772745 0  -1.126568240844258 1.234211651323518 0  -1.16847033477468 1.116183295783242 0  -1.198692036314473 1.024633859330617 0  -1.231983370650603 0.9238841413589941 0  -1.248239663642638 0.8130329080040094 0  -1.257424188620069 0.7104893742739556 0  -1.259992161452591 0.613041576136542 0  -1.254744638350985 0.5149384551940521 0  -1.247009038741498 0.4351083979250706 0  -1.222838852794638 0.3169073414775274 0  -1.192141117607749 0.2760182607013577 0  -1.189993402913102 0.2413214089006649 0  -1.166173677649028 0.1766487672629566 0  -1.142635580948328 0.1285468005218807 0  -1.114883781346193 0.08030527522583064 0  -1.09270279935882 0.05475601410273245 0  -1.053570932845445 0.00109620213460826 0  -1.067251041553501 0.07014135809956668 0  -1.075762294371361 0.004573919690930572 0  -0.9755569038422012 -0.1179071501017496 0  -0.9437619571007007 -0.1279999303357788 0  -0.8934874272980651 -0.1504982766377903 0  -0.8684408946645957 -0.1447807293582043 0  -0.8164560575976154 -0.1547959620568925 0  -0.8329632947635555 -0.1026134925100682 0  -0.6987875511020039 -0.155129749903846 0  -0.7989734965040842 0.02350541508090681 0  -0.9458065137291158 0.06778525779110421 0  -0.8520418921309736 0.0595196126787345 0  -0.8980023186203214 0.08453991567682358 0  -0.869698212280916 0.1048604600936801 0  -0.9055832393964498 0.1247973208985495 0  -0.8609450274315482 0.1488715272691479 0  -0.9682588296751435 0.1371654643097556 0  -0.8129575238456141 0.1824901154827999 0  -0.7096812975304116 0.3724001266679498 0  -0.8627053614452056 0.3072586359649883 0  -0.8472945221764754 0.3599230480582656 0  -0.9076634156679629 0.343687888064867 0  -0.9374384104015094 0.3454836946280354 0  -0.9933040526593636 0.3178459410127562 0  -1.027467897712022 0.3065611353790593 0  -1.138519689040448 0.1761571916815897 0  -1.138566320126611 0.08794760228177079 0  -1.123047491979494 0.1637249849278331 0  -1.167323711353024 0.1019742772425517 0  -1.192344509560038 0.07393157167383546 0  -1.224190964159509 0.02072731699652008 0  -1.251198793363425 -0.03108594581895441 0  -1.27871868308539 -0.1000609370879582 0  -1.284032904640404 -0.1333487248423536 0  -1.322674413147595 -0.1788770030592234 0  -1.353325628928076 -0.3135020760450568 0  -1.365501530594311 -0.3999158382767951 0  -1.375913963162778 -0.5086320595256464 0  -1.37819953372402 -0.6162644953283514 0  -1.373317466729574 -0.7294127281401994 0  -1.359910400817987 -0.848536666988332 0  -1.333541274053588 -0.9530230091753882 0  -1.311575276899289 -1.068198986471425 0  -1.271657628067344 -1.214808550642109 0  -1.218400500453667 -1.336903595243272 0  -1.15435399392813 -1.463388475308756 0  -1.078309245136489 -1.582772836131293 0  -0.9905757539654537 -1.696210690227165 0  -0.8917313550663354 -1.805330558009063 0  -0.7778984575305918 -1.896873894814496 0  -0.6607403863636321 -1.973520365434937 0  -0.5317690701705784 -2.047922261773486 0  -0.3950379445932066 -2.102185074909205 0  -0.2525282606308648 -2.141115055089877 0  -0.1062270613355089 -2.162158157669645 0  0.04163366184903758 -2.16575497275607 0  0.1889932918088693 -2.151082275518699 0  0.3335015613018579 -2.119028421430331 0  0.4727352960662548 -2.070043279117995 0  0.6054355101908181 -2.006220614164496 0  0.7296212425062922 -1.928013810823233 0  0.8440047786170572 -1.837831127761233 0  0.9475182681424352 -1.736610222558941 0  1.039595691274785 -1.629124970232287 0  1.118992977945285 -1.507118859621269 0  1.183360704767714 -1.400892657979751 0  1.246403548015075 -1.285326164091164 0  1.292240871333283 -1.158999835361267 0  1.328158184764389 -1.038111531896069 0  1.354355856439236 -0.9187411401097315 0  1.371404355296454 -0.802679484805049 0  1.380135229452018 -0.6907110348781759 0  1.37940849307873 -0.5814968431592592 0  1.37606873014501 -0.4999561494687521 0  1.373177445615173 -0.4010168071668346 0  1.355943243971826 -0.3029922754343881 0  1.335212049824123 -0.2162554358485133 0  1.311919098135315 -0.1377611962868653 0  1.282368658058517 -0.05839321884495519 0  1.25617750766465 -0.002159256651018682 0  1.204627583141916 0.1042977017716187 0  1.165502008112801 0.09717596773120674 0  1.162913209251652 0.1088210728646145 0  1.12780123730078 0.1574220750863962 0  1.095311137195034 0.1890951656640892 0  1.062144134395564 0.2173029261280883 0  1.022216391967656 0.2473963805660578 0  0.9977412272274542 0.2505385782406995 0  0.9227603310176095 0.3108978143141166 0  0.9123283114117064 0.2374357247314192 0  0.9331262277892629 0.2077641481537427 0  0.9003939816147196 0.2081806990820753 0  0.8891641055875774 0.1898581862408444 0  0.874815910674223 0.1703381785281824 0  0.875031019335466 0.1414947004968187 0  0.8776744020169862 0.1137788171272927 0  0.9053049681072802 0.08030113786601537 0  -0.06554456712771908 1.208148387509163 0  0.6457366125556361 -0.5221618241981847 0  -0.691792496928485 -0.2887306973846702 0  -0.08477865135463669 -1.342128201507752 0  0.5807129984626093 0.4821546704892113 0  0.723797074668158 -0.01184705884699275 0  -0.6365881528477688 0.3658693059648044 0  -0.7113901808778755 0.08308741292018804 0  0.7444705379099119 0.09210389711287234 0  -0.7760037168199618 0.04165031930332469 0  -0.4207030891159591 0.05576583107027012 0  -0.2492781465737351 -0.141587134149309 0  -0.7282107725099053 0.08898157169194693 0  0.418472732242924 -1.119818822565704 0  -0.01195886935985385 -0.4828685850747539 0  0.3314352634109446 0.9822209869370118 0  0.02220647436085077 0.1997467538887911 0  0.2818614341853392 0.01812822209582312 0  -0.4840080544456772 -0.8750234227443564 0  -0.4580714016286145 0.859640503351647 0  -0.1168597167681756 0.4187657869930392 0  0.7038394514795268 -0.05595900089028027 0  0.6655715291353063 0.100322809022437 0  0.1825370258230423 -0.2639432824810741 0  -0.05061812503201955 0.2823840697950878 0  -0.2721757916719793 0.2531039967159291 0  -0.1503723561859656 -0.4124593483944505 0  0.520930466625431 0.031238505735073 0  0.7939785457806156 0.05002286247284002 0  0.6755128979479479 -0.2493839525917292 0  0.4483532276781717 -0.04237930452494496 0  0.3799402257334661 -0.1853146136746694 0  0.2031907612952408 -0.07708842917684723 0  0.3937278560068525 -0.4190739053845199 0  0.5601776015552866 0.01146194414130403 0  0.4046539804890266 0.02440671906749389 0  -0.5318302190763132 0.09452691534237373 0  -0.6812201441044656 0.04884468123478883 0  -0.5761020000895978 0.07265657614810547 0  -0.5591800499441797 0.0298533907973742 0  -0.7018225471789882 0.1041022557646619 0  -0.8333476800108323 0.1460718125620676 0  -0.8069248366143087 0.1466153899888864 0  -0.7958501716134572 0.03841795011716286 0  -0.8026924041364293 0.02429622700533074 0  -0.1213948196646091 -0.8849562805336955 0  -0.25203724807894 -0.6819010512013958 0  -0.3140534572934092 -1.155542044062909 0  -0.1900750314327351 -0.2618438973512903 0  -0.3478088204092246 -0.4790234570991382 0  -0.9672153651286696 0.09909413299922015 0  -0.9096672921949015 0.05506934113460354 0  0.3236533755850826 -0.6567852711305824 0  0.08245297647910144 -0.3462057546644749 0  0.2113157813079639 -0.7939961691052912 0  -0.6828295253540506 0.1951879050685643 0  -0.4539871330583719 0.1735109426800015 0  0.8829612048415856 0.154533171212838 0  0.9426936140774227 0.1008527348280134 0  0.9010066399443422 -0.02041482733845085 0  0.8553110695588745 -0.05763313161393768 0  -0.9781406912195511 -0.595857633971792 0  -1.002442860447234 -0.2389074962570099 0  -0.9275142444424401 0.344947434944675 0  -0.8905922561346672 0.6582262694235664 0  0.9999802711751454 -0.5347552966143128 0  0.9026270314558815 -0.9335331716863539 0  0.8323498395775244 0.8510054741505131 0  0.9286448
[...]
<PointData  Vectors="f_44"> 
<DataArray  type="Float64"  Name="f_44"  NumberOfComponents="3" format="ascii">1.8270817338316236e-01 7.2754339861690207e-02 0.0000000000000000e+00  -2.0075069210341176e-02 -2.5581400452487102e-01 0.0000000000000000e+00  4.1510438745946392e-02 -1.5185197490430999e-01 0.0000000000000000e+00  2.6365067611115267e-01 -8.4823739129472137e-02 0.0000000000000000e+00  1.4612447882690413e-01 7.0923673053795719e-03 0.0000000000000000e+00  2.3205202066959818e-01 1.8472395280749745e-01 0.0000000000000000e+00  -7.6064118567892039e-02 1.3341695574014309e-01 0.0000000000000000e+00  -1.3287872120366051e-01 -1.8441792300603005e-01 0.0000000000000000e+00  2.4084317958340612e-01 -9.7711415496757170e-03 0.0000000000000000e+00  9.4172832271235810e-02 -8.5579788941684790e-02 0.0000000000000000e+00  -1.5193928206799148e-01 -2.1925995445950003e-01 0.0000000000000000e+00  -1.4161234163508363e-01 -9.4943580778051220e-02 0.0000000000000000e+00  -4.2336632506455432e-02 -2.4795797233464997e-01 0.0000000000000000e+00  -3.7364085346954082e-02 -2.1343280746576168e-01 0.0000000000000000e+00  2.1951935930158758e-02 -2.2589851145644133e-01 0.0000000000000000e+00  1.4310569725964570e-01 -1.8650239568183646e-01 0.0000000000000000e+00  -1.8709341605756263e-01 2.2483102296287444e-01 0.0000000000000000e+00  4.9006515652568486e-02 -9.9377832366985580e-02 0.0000000000000000e+00  1.7342067131015465e-01 -1.9882191353873341e-01 0.0000000000000000e+00  1.5548079478436677e-01 -1.4743912257794853e-01 0.0000000000000000e+00  1.8655671922156494e-01 -1.2858539983153749e-01 0.0000000000000000e+00  1.9887645976509877e-01 -9.9560178008787151e-02 0.0000000000000000e+00  2.0871645250174162e-01 -8.6765534176065875e-02 0.0000000000000000e+00  2.1937973250446408e-01 -2.6980484485278487e-02 0.0000000000000000e+00  2.2467079842648482e-01 1.1935040883024117e-02 0.0000000000000000e+00  2.2377367330416345e-01 -4.7914789864490440e-03 0.0000000000000000e+00  2.2177435388465225e-01 2.7479144993078929e-02 0.0000000000000000e+00  2.1461879649479940e-01 6.4307914649516990e-02 0.0000000000000000e+00  2.0451377534739384e-01 9.0895718762679448e-02 0.0000000000000000e+00  1.8811195371714118e-01 1.2064937855478845e-01 0.0000000000000000e+00  1.7341258677934548e-01 1.4261363174719466e-01 0.0000000000000000e+00  1.4183715087098450e-01 1.7208396808063881e-01 0.0000000000000000e+00  1.0623149568546428e-01 1.9749629065095450e-01 0.0000000000000000e+00  9.1295265105227383e-02 2.0458392780555570e-01 0.0000000000000000e+00  5.5049860689002666e-02 2.1640089210196886e-01 0.0000000000000000e+00  9.2387434420130535e-03 2.2420455028382424e-01 0.0000000000000000e+00  -2.7926854475381763e-02 2.2207193336042388e-01 0.0000000000000000e+00  -7.2431346294111382e-02 2.1164049988774289e-01 0.0000000000000000e+00  -1.0772084721363527e-01 1.9696447271825498e-01 0.0000000000000000e+00  -1.4700623361975523e-01 1.6837609839250550e-01 0.0000000000000000e+00  -1.8472777848097194e-01 1.2692416525473491e-01 0.0000000000000000e+00  -2.0281981678280200e-01 9.6048167638160709e-02 0.0000000000000000e+00  -2.1731671322252619e-01 5.1190932280071634e-02 0.0000000000000000e+00  -2.2483556353336123e-01 -2.7399026979257734e-03 0.0000000000000000e+00  -2.1729811335946250e-01 -5.1571965981806786e-02 0.0000000000000000e+00  -2.0241655519605506e-01 -9.8326486122362916e-02 0.0000000000000000e+00  -1.6907858964807915e-01 -1.4545136800676081e-01 0.0000000000000000e+00  -1.3561755211077514e-01 -1.7897953237246861e-01 0.0000000000000000e+00  -1.0735694482584847e-01 -1.9679078889493090e-01 0.0000000000000000e+00  -5.1012148255978509e-02 -2.1757982918079044e-01 0.0000000000000000e+00  1.0240574661803065e-03 -2.2456075406594864e-01 0.0000000000000000e+00  3.8894187323233423e-02 -2.2043431388488111e-01 0.0000000000000000e+00  8.4232996087901454e-02 -2.0702465922517324e-01 0.0000000000000000e+00  1.1524471154944978e-01 -1.9317622903474951e-01 0.0000000000000000e+00  1.5447327907206559e-01 -1.6035446780531598e-01 0.0000000000000000e+00  1.8274738121081693e-01 -1.3005777040079586e-01 0.0000000000000000e+00  1.7437437450372648e-01 -1.4253387901147485e-01 0.0000000000000000e+00  1.9680300535896753e-01 -1.0030437674462674e-01 0.0000000000000000e+00  2.2128483273195232e-01 -4.5550645164955723e-02 0.0000000000000000e+00  2.2105755326034768e-01 -2.9418566972174591e-02 0.0000000000000000e+00  2.2433452370659990e-01 7.8515125131774256e-03 0.0000000000000000e+00  2.1848512425255601e-01 3.4408784015015077e-02 0.0000000000000000e+00  2.2833687011932829e-01 5.3720291903209226e-02 0.0000000000000000e+00  1.4911843176918049e-01 1.4721501338567086e-01 0.0000000000000000e+00  1.0227749806640381e-01 1.4960216683952049e-01 0.0000000000000000e+00  2.1630432505507408e-01 7.4376382667425536e-02 0.0000000000000000e+00  1.4393521451799154e-01 1.7760281734826880e-01 0.0000000000000000e+00  1.3197593418485867e-01 1.8160027121085548e-01 0.0000000000000000e+00  7.6871675201604622e-02 2.0599433204544784e-01 0.0000000000000000e+00  2.5187773870540407e-02 2.2965991080603793e-01 0.0000000000000000e+00  1.3782155042482427e-01 1.7881846051409511e-01 0.0000000000000000e+00  2.5410554811536001e-01 -5.3335383388801456e-02 0.0000000000000000e+00  1.1281367111998886e-01 1.3089263734322412e-01 0.0000000000000000e+00  -2.2201669484717124e-02 2.3709306213106049e-01 0.0000000000000000e+00  -1.9778038209922899e-01 1.6152681697601276e-01 0.0000000000000000e+00  -1.3028768294559129e-01 7.2238812895083312e-02 0.0000000000000000e+00  -3.1937737659645621e-01 -1.9190150652133788e-02 0.0000000000000000e+00  9.5860995360688775e-02 1.2991361247686981e-01 0.0000000000000000e+00  -1.2189820178969764e-01 1.3428408280584933e-01 0.0000000000000000e+00  1.5847541551468097e-02 1.8197505562339308e-01 0.0000000000000000e+00  3.5012725970532101e-02 1.7828910301788065e-01 0.0000000000000000e+00  -2.7655075961931119e-01 5.9491698411119467e-02 0.0000000000000000e+00  -1.7399774795582124e-01 1.1828120737357550e-01 0.0000000000000000e+00  -8.0741776604346130e-02 5.4095540259544907e-03 0.0000000000000000e+00  -9.6011340608584489e-02 5.8404792747480394e-03 0.0000000000000000e+00  -1.1290068489952468e-01 3.9080982020245252e-03 0.0000000000000000e+00  -1.6907282042731986e-01 -1.1837021216437961e-01 0.0000000000000000e+00  -2.7812414041983169e-01 -6.1845327541448981e-02 0.0000000000000000e+00  3.7627832079207765e-02 -1.7212008252577282e-01 0.0000000000000000e+00  1.7956365585805451e-02 -1.8496978045154594e-01 0.0000000000000000e+00  -1.2257337410593329e-01 -1.4089585571664409e-01 0.0000000000000000e+00  8.9398005769845204e-02 -1.3059899938959202e-01 0.0000000000000000e+00  -3.1253779562071277e-01 -3.9759205913698255e-02 0.0000000000000000e+00  -1.3446410642733320e-01 -1.0466982738963963e-01 0.0000000000000000e+00  -1.7853041906855183e-01 -1.6608979534882318e-01 0.0000000000000000e+00  -3.5390274519350624e-02 -2.3434857385174460e-01 0.0000000000000000e+00  1.1680623692706447e-01 -1.4415007488388704e-01 0.0000000000000000e+00  2.5977100819419258e-01 1.6503831184207191e-02 0.0000000000000000e+00  1.3658501560630495e-01 -1.7077182797074009e-01 0.0000000000000000e+00  2.7483717518638942e-02 -2.3135613538961475e-01 0.0000000000000000e+00  6.9144219932654516e-02 -2.0752572906872382e-01 0.0000000000000000e+00  1.2432193260354055e-01 -1.8835098162695452e-01 0.0000000000000000e+00  1.3461389455436831e-01 -1.8065286574165640e-01 0.0000000000000000e+00  2.0997166931920883e-01 -1.0068302859740089e-01 0.0000000000000000e+00  6.7770782349236100e-02 -1.8321752233885022e-01 0.0000000000000000e+00  1.3831320390624932e-01 -1.4967975309226836e-01 0.0000000000000000e+00  2.2628272434978633e-01 -6.8606253260192693e-02 0.0000000000000000e+00  2.1400574874411990e-01 -5.3711071151260621e-02 0.0000000000000000e+00  2.2294965095109151e-01 -2.7363844598270817e-02 0.0000000000000000e+00  2.2301809319752755e-01 7.0870638779072740e-03 0.0000000000000000e+00  2.2346017782948263e-01 2.9075123655698507e-02 0.0000000000000000e+00  2.0559606497350194e-01 8.3914454460424628e-02 0.0000000000000000e+00  2.0086084365072204e-01 9.7318727006943814e-02 0.0000000000000000e+00  2.0654385623004032e-01 8.8800891774523064e-02 0.0000000000000000e+00  1.7268930098636853e-01 1.4085070625419133e-01 0.0000000000000000e+00  1.4098364412180683e-01 1.7526435562762482e-01 0.0000000000000000e+00  1.1665796251740135e-01 1.9045475626874278e-01 0.0000000000000000e+00  7.3032467751378907e-02 2.1153459366467911e-01 0.0000000000000000e+00  4.3198115100843898e-02 2.2067889935871488e-01 0.0000000000000000e+00  -1.1264057012528158e-02 2.2266550998833171e-01 0.0000000000000000e+00  -7.5566855978588587e-02 2.1142566137745197e-01 0.0000000000000000e+00  -9.8286814571687628e-02 2.0190513982644659e-01 0.0000000000000000e+00  -1.3601117871386043e-01 1.7635477212048420e-01 0.0000000000000000e+00  -1.8133125602163680e-01 1.3370083910721639e-01 0.0000000000000000e+00  -2.0463034055871177e-01 8.9817542497978187e-02 0.0000000000000000e+00  -2.2143477523445351e-01 3.7128274721777155e-02 0.0000000000000000e+00  -2.2328685743240625e-01 -1.6667756447358597e-02 0.0000000000000000e+00  -2.1309177071878199e-01 -7.0152628608256884e-02 0.0000000000000000e+00  -1.8990494639285102e-01 -1.1862548691933011e-01 0.0000000000000000e+00  -1.5828399043407651e-01 -1.5894188861326583e-01 0.0000000000000000e+00  -1.1882372450223887e-01 -1.8964030023367093e-01 0.0000000000000000e+00  -7.5107633340146696e-02 -2.1147331223576735e-01 0.0000000000000000e+00  -2.7264519323014515e-02 -2.2168860966504353e-01 0.0000000000000000e+00  1.2450750895005930e-02 -2.2471134505000687e-01 0.0000000000000000e+00  6.5121126060502146e-02 -2.1297783241209439e-01 0.0000000000000000e+00  1.0281441627095633e-01 -1.9925376517124832e-01 0.0000000000000000e+00  1.0596112913989145e-01 -1.9830378838336746e-01 0.0000000000000000e+00  1.4721683163115187e-01 -1.6626675396889895e-01 0.0000000000000000e+00  1.8379704140002681e-01 -1.3016146737879705e-01 0.0000000000000000e+00  1.9431492852309146e-01 -1.0978174980683350e-01 0.0000000000000000e+00  2.0977330138845721e-01 -7.8436689200860082e-02 0.0000000000000000e+00  2.1804830897163249e-01 -5.0894538299447831e-02 0.0000000000000000e+00  2.2307784964369820e-01 -1.5447101676249284e-02 0.0000000000000000e+00  2.2307118350633176e-01 1.6998036106123885e-02 0.0000000000000000e+00  2.2449309289801780e-01 7.9864025571322363e-03 0.0000000000000000e+00  2.1781701858983926e-01 4.1246923870926058e-02 0.0000000000000000e+00  2.0445450671717894e-01 9.5288787272910985e-02 0.0000000000000000e+00  1.9372434434242902e-01 1.0939615530521866e-01 0.0000000000000000e+00  1.8177710074205089e-01 1.3541557785108219e-01 0.0000000000000000e+00  1.4872111267519264e-01 1.5403123642728819e-01 0.0000000000000000e+00  1.7280311837765200e-01 1.9890936969990844e-01 0.0000000000000000e+00  3.7513630944037299e-02 1.0832690529029614e-01 0.0000000000000000e+00  -2.0268764650305338e-01 -1.2377110168336664e-01 0.0000000000000000e+00  1.4648749478625650e-01 2.0785009398255602e-01 0.0000000000000000e+00  2.0672409346891962e-02 2.1963150082680802e-01 0.0000000000000000e+00  -2.8190378788034025e-02 2.1780093868902409e-01 0.0000000000000000e+00  -3.1911925117193360e-02 2.4253258258769550e-01 0.0000000000000000e+00  -1.3462486576729729e-01 1.2431773965783532e-01 0.0000000000000000e+00  -1.4401429623371195e-01 2.3224103343717140e-01 0.0000000000000000e+00  8.6712617491276692e-02 8.3356829694605200e-02 0.0000000000000000e+00  2.4685511098432530e-01 -2.0862988080625748e-02 0.0000000000000000e+00  -1.3408946510667616e-01 2.0464318481062629e-01 0.0000000000000000e+00  -1.2553990363427009e-01 -1.2415845648293687e-01 0.0000000000000000e+00  1.2075083267767192e-01 -2.5690296160284765e-01 0.0000000000000000e+00  1.2591375906354405e-01 -9.0768938510846928e-02 0.0000000000000000e+00  2.7414393335729498e-01 2.2046820241472271e-02 0.0000000000000000e+00  1.0685830236429462e-01 1.4143252374946869e-01 0.0000000000000000e+00  2.3086973414983305e-02 2.6154477235442414e-01 0.0000000000000000e+00  -2.1166981186504086e-01 -7.2883812201023288e-02 0.0000000000000000e+00  1.0590474343938334e-01 -1.9755138962828797e-01 0.0000000000000000e+00  2.2382225742760020e-01 -2.2965558195821526e-03 0.0000000000000000e+00  -2.0059399737861155e-01 9.9612445538168420e-02 0.0000000000000000e+00  5.1403696417669148e-02 2.1840349696951133e-01 0.0000000000000000e+00  2.2223618973906362e-01 -2.5065332374463949e-02 0.0000000000000000e+00  1.9482265403079010e-01 -1.1031769315351593e-01 0.0000000000000000e+00  2.1169031634833449e-01 -7.2856245577220868e-02 0.0000000000000000e+00  2.2291626665071926e-01 1.7665456438455952e-02 0.0000000000000000e+00  1.6589961515942331e-01 -1.5058877810643925e-01 0.0000000000000000e+00  2.0159695253721360e-01 -9.6782762541181025e-02 0.0000000000000000e+00  2.2311667936606486e-01 -2.0820597307889387e-02 0.0000000000000000e+00  2.2295425680413875e-01 2.6810763463881070e-02 0.0000000000000000e+00  -1.6440368244012257e-01 -1.5215662023723492e-01 0.0000000000000000e+00  -6.6756942327443683e-02 2.1920390754310204e-01 0.0000000000000000e+00  -1.8120320076501029e-01 1.3175447967044454e-01 0.0000000000000000e+00  -1.8592296086118018e-01 -1.3015661674064755e-01 0.0000000000000000e+00  1.5521722950208108e-01 1.6224240716781710e-01 0.0000000000000000e+00  5.4823675273862151e-02 2.1725569945191150e-01 0.0000000000000000e+00  -1.1171434060608219e-02 -2.2365807210706687e-01 0.0000000000000000e+00  -4.5810380573209783e-02 -2.1956244639061454e-01 0.0000000000000000e+00  2.2340831654226570e-01 1.0707763451411525e-02 0.0000000000000000e+00  2.1883229625756664e-01 4.8080611318895905e-02 0.0000000000000000e+00  -4.3258461716138346e-03 -2.2632138218109416e-01 0.0000000000000000e+00  -2.6101121554397921e-02 -2.2504215244385914e-01 0.0000000000000000e+00  1.1725862833670091e-01 -1.9061975326714578e-01 0.0000000000000000e+00  1.6215405506081834e-01 1.5803431432254861e-01 0.0000000000000000e+00  2.1096384942819535e-01 7.4235041414967576e-02 0.0000000000000000e+00  2.2230827531704764e-01 -2.4849427013358353e-02 0.0000000000000000e+00  2.0915229227655804e-01 -7.9970004354959809e-02 0.0000000000000000e+00  2.2046520129654645e-01 3.9709250439273501e-02 0.0000000000000000e+00  1.9931135186034474e-01 -1.0403229761758570e-01 0.0000000000000000e+00  2.2496105410352407e-01 3.6256730112373119e-02 0.0000000000000000e+00  1.5473539172342199e-02 -2.2396499771350648e-01 0.0000000000000000e+00  2.1911719559884879e-01 4.4923188066747083e-02 0.0000000000000000e+00  1.9119546938110085e-01 1.1604472619504670e-01 0.0000000000000000e+00  2.0615320451734354e-01 -8.6674352333194635e-02 0.0000000000000000e+00  2.2073808217723803e-01 -4.0350982132942165e-02 0.0000000000000000e+00  2.1025093607068304e-01 -7.6111380627769162e-02 0.0000000000000000e+00  2.1023748003935372e-01 -7.6160424915062822e-02 0.0000000000000000e+00  1.9754699972254647e-01 -1.0643567502789317e-01 0.0000000000000000e+00  1.8660561546350055e-02 -2.2301142715665248e-01 0.0000000000000000e+00  -1.0275699809616911e-02 -2.2437796783016919e-01 0.0000000000000000e+00  1.5400941045219294e-01 1.8320851823048745e-01 0.0000000000000000e+00  1.2022923472233263e-01 1.9200452442520055e-01 0.0000000000000000e+00  -1.2074771102781008e-01 1.8894609417920660e-01 0.0000000000000000e+00  3.7393430227300885e-02 2.2124911936737457e-01 0.0000000000000000e+00  -9.8209203228981343e-02 2.0132631245248678e-01 0.0000000000000000e+00  2.1854298604076630e-01 5.3223580209763553e-02 0.0000000000000000e+00  1.6617136632496193e-01 1.5050290523617921e-01 0.0000000000000000e+00  8.2447911070659297e-02 -2.0813844268118589e-01 0.0000000000000000e+00  1.0073663316940369e-01 1.9980423172131331e-01 0.0000000000000000e+00  -1.6679999338642076e-01 -1.4963224528800542e-01 0.0000000000000000e+00  -2.2379625441875883e-01 1.0235420667418985e-02 0.0000000000000000e+00  -2.2210901527601010e-01 -2.9637611731746203e-02 0.0000000000000000e+00  2.2150149534392954e-01 -3.3734301356051564e-02 0.0000000000000000e+00  1.8618174780894955e-01 -1.2393058869087990e-01 0.0000000000000000e+00  2.0378284357191989e-01 9.4580855508135345e-02 0.0000000000000000e+00  1.4736654443483690e-01 1.7060470735454375e-01 0.0000000000000000e+00  1.2942067393577356e-01 -1.8453188022354983e-01 0.0000000000000000e+00  1.6718654729166152e-01 -1.4811202323704417e-01 0.0000000000000000e+00  2.1700913473334163e-01 5.5455343621219552e-02 0.0000000000000000e+00  2.0602544955818144e-01 -8.7600726214550784e-02 0.0000000000000000e+00  2.2208649406856384e-01 2.9309709106274350e-02 0.0000000000000000e+00  1.9516240545033178e-01 -1.0994461297377477e-01 0.0000000000000000e+00  2.0545275132091678e-01 -8.9410581541208817e-02 0.0000000000000000e+00  9.8992217111196532e-02 -2.0112086453791139e-01 0.0000000000000000e+00  8.8062496508729493e-02 2.0618507097690331e-01 0.0000000000000000e+00  1.9722671174783221e-01 1.0646635327439238e-01 0.0000000000000000e+00  -2.2410461518719352e-01 -2.1178510125385451e-04 0.0000000000000000e+00  -1.5840099802524277e-01 1.5850281616305276e-01 0.0000000000000000e+00  -1.7777637367019178e-01 -1.3635306986583812e-01 0.0000000000000000e+00  -2.2324079406877823e-01 1.8752992111105489e-02 0.0000000000000000e+00  -5.2949870996755806e-02 -2.1774891456742304e-01 0.0000000000000000e+00  -9.7481419391158050e-02 2.0419403346652792e-01 0.0000000000000000e+00  1.0138680873753378e-02 2.2409576196250824e-01 0.0000000000000000e+00  -1.5755530433058551e-01 1.6023673022079454e-01 0.0000000000000000e+00  2.2173650289462379e-01 3.1021863271431898e-02 0.0000000000000000e+00  2.0632925421470752e-01 -8.6584135406902282e-02 0.0000000000000000e+00  2.1749191847893815e-01 -5.2169137447869475e-02 0.0000000000000000e+00  3.1683245374938114e-02 -2.2761588162384999e-01 0.0000000000000000e+00  2.0697862243549467e-01 8.5494996998631403e-02 0.0000000000000000e+00  2.2905236821438535e-01 1.3959581859937007e-02 0.0000000000000000e+00  1.5727832366390565e-01 -1.5907544523317013e-01 0.0000000000000000e+00  1.8706303580987677e-01 1.2283653947971597e-01 0.0000000000000000e+00  2.0516593157283342e-01 -8.9333197660364988e-02 0.0000000000000000e+00  1.6326219738882991e-01 1.5316636349017479e-01 0.0000000000000000e+00  1.6835531222169450e-01 1.4813836125577226e-01 0.0000000000000000e+00  2.1012469900895522e-01 7.6689334777464757e-02 0.0000000000000000e+00  -2.2217343534300682e-01 3.4545412493217943e-02 0.0000000000000000e+00  -9.4703667221440066e-02 2.0332099665577613e-01 0.0000000000000000e+00  -2.0629901438063133e-01 8.7452950946400376e-02 0.0000000000000000e+00  -2.2142598412221665e-01 -3.3545799337477367e-02 0.0000000000000000e+00  -6.9713296583119352e-02 -2.1271953616616929e-01 0.0000000000000000e+00  -1.6955808243774914e-01 -1.4611109857489543e-01 0.0000000000000000e+00  -1.3810242945845377e-01 -1.7624467787968165e-01 0.0000000000000000e+00  -1.7781510380666160e-01 1.9432426169664138e-01 0.0000000000000000e+00  4.0726357253210027e-02 2.2438310718033783e-01 0.0000000000000000e+00  -3.2435248618911325e-02 -2.2178429968048632e-01 0.0000000000000000e+00  -1.7012043278053765e-01 -1.4592709506808665e-01 0.0000000000000000e+00  -1.7011748337447360e-01 1.4584279881622778e-01 0.0000000000000000e+00  -4.5381002003445754e-02 2.1952124722092836e-01 0.0000000000000000e+00  2.1340848036452029e-01 -7.0038754196462036e-02 0.0000000000000000e+00  -2.2284367261192678e-01 -2.5912527060046067e-02 0.0000000000000000e+00  -2.2088412626566947e-01 3.6429771400578438e-02 0.0000000000000000e+00  -1.8784542102689282e-02 2.2330263299491493e-01 0.0000000000000000e+00  1.3872211020605071e-01 1.7593687748381917e-01 0.0000000000000000e+00  1.8497488034835680e-01 1.2634994631170229e-01 0.0000000000000000e+00  1.0176775731772840e-01 -1.9956170158673150e-01 0.0000000000000000e+00  -5.2014024117250528e-02 -2.1794003044752377e-01 0.0000000000000000e+00  1.1304554634040423e-01 -1.9328298906486588e-01 0.0000000000000000e+00  1.7928458519433155e-01 -1.3378084150779701e-01 0.0000000000000000e+00  1.3959375112046563e-01 -1.7486797856292322e-01 0.000