<?xml version="1.0"?>
<VTKFile type="UnstructuredGrid"  version="0.1"  >
<UnstructuredGrid>
<Piece  NumberOfPoints="2549" NumberOfCells="4928">
<Points>
<DataArray  type="Float64"  NumberOfComponents="3"  format="ascii">1.618245106213434 -0.04491181847849551 0  1.608892044455734 -0.002310465862893441 0  1.605635013081149 0.03961830638997991 0  1.596635933677852 0.08315200146532155 0  1.585909541150056 0.125430241133141 0  1.575079182285975 0.1704375726535878 0  1.553886200056345 0.2138340255265793 0  1.559671755637453 0.2648596936672824 0  1.507884428980519 0.2977549107182242 0  1.48689995088419 0.3266422881971944 0  1.477020274296708 0.3961521223467545 0  1.439112867204423 0.4237149487758116 0  1.416410941941777 0.4700736777998406 0  1.382830477956676 0.5091822365707174 0  1.338570542643717 0.5453218757208119 0  1.329422241429367 0.6059271380132952 0  1.255647993201051 0.6075796608299489 0  1.230952153798003 0.6339456413112106 0  1.198865546967073 0.7125413850938298 0  1.152727414071323 0.7158689834775143 0  1.13020860606756 0.7703914061890129 0  1.082658498462436 0.7890925194711246 0  1.046969912898244 0.8328147663730557 0  1.00306520675909 0.8675833127856496 0  0.9550038117064127 0.9028954394117943 0  0.9366285660782435 0.9653713743885596 0  0.8733806908863263 0.9849949725517606 0  0.8277883521579226 1.01216135898418 0  0.782987328163724 1.05551024403409 0  0.7325132376082388 1.084370025051303 0  0.6817144038534553 1.116026516923559 0  0.6324005689417361 1.147176764000392 0  0.5779474974646216 1.174879858632108 0  0.5238272495323731 1.198576743576777 0  0.4705996034678821 1.224986554150252 0  0.4132020874886652 1.245606932492993 0  0.3571282628079813 1.265306156179432 0  0.2990519556943668 1.281147349555448 0  0.2406574461897598 1.295748545613973 0  0.1820160119685432 1.307340925307135 0  0.121717408431478 1.315320210345895 0  0.06213031074470907 1.320717106930927 0  0.001893323789046962 1.323809087731162 0  -0.05832408707763061 1.323524714003828 0  -0.1185936498139705 1.320363748803537 0  -0.1785434763322828 1.314002808711768 0  -0.2383378311591577 1.304975050346052 0  -0.2974459603739054 1.292486622343332 0  -0.3555238599326245 1.277145231556877 0  -0.4141542698653735 1.259188127334352 0  -0.4704289345748519 1.238499367989073 0  -0.5252489567537031 1.213200764243059 0  -0.5812247188750229 1.190992514268052 0  -0.6334357807366239 1.162815659392657 0  -0.686260906978617 1.129407488221161 0  -0.7340963594686047 1.094785778839283 0  -0.7845672686928233 1.068972460383484 0  -0.836008782081456 1.030808069375384 0  -0.8727254305125398 0.9872472418336545 0  -0.9236576605186269 0.9545326117756142 0  -0.9640258953346454 0.9159834672170503 0  -1.015997588561526 0.8992619273719229 0  -1.055055267227033 0.8585906086770505 0  -1.085547943764889 0.7818157988222185 0  -1.127152037370317 0.7578950066111148 0  -1.192680012801338 0.747306257703574 0  -1.203397449904966 0.6854254520800067 0  -1.242767101554732 0.6714829297087175 0  -1.280765958234903 0.6030935114513412 0  -1.31485995653259 0.5915057220781338 0  -1.366595216556124 0.5381017054347537 0  -1.370091707764892 0.4887892432458233 0  -1.454300882810854 0.5075602592856264 0  -1.469009791552258 0.4335780074846853 0  -1.493284890207258 0.3954120957371796 0  -1.518112531150276 0.348473844747601 0  -1.54330910904547 0.3062336068924691 0  -1.555518015841385 0.2547249802730292 0  -1.577105538013369 0.2182715847302053 0  -1.561038121625175 0.1418666950899697 0  -1.594941060509355 0.1384063168035865 0  -1.608533597525442 0.08735576368249227 0  -1.574456974307537 0.03580150672137712 0  -1.565623106108164 -0.0008743794095196905 0  -1.562174132613165 -0.04332345556714581 0  -1.575339087936776 -0.07427511676511497 0  -1.553171938295008 -0.1128385847069219 0  -1.570462389259013 -0.1561217658384986 0  -1.552530770696657 -0.2067386600637794 0  -1.53072142763136 -0.2156664131667378 0  -1.557485475087127 -0.2838475054973559 0  -1.53680757087495 -0.3266042074667415 0  -1.52883286717166 -0.3835211879687563 0  -1.504067337065849 -0.4295291050908092 0  -1.480080261967145 -0.4782796558101614 0  -1.444304006632882 -0.5118434430778931 0  -1.445194750188978 -0.5839505079477161 0  -1.371892107883238 -0.6031442153263026 0  -1.342198135597651 -0.6251480836800911 0  -1.306019169830058 -0.6768098441358478 0  -1.275651017204355 -0.6938000202687012 0  -1.244585689547789 -0.7492041712425082 0  -1.20706003455973 -0.7726404160892766 0  -1.190489422425625 -0.8268122896608046 0  -1.13335086187208 -0.8444780024652604 0  -1.096465594101095 -0.8745226009632941 0  -1.07138815997182 -0.9485108485773205 0  -1.028919534200406 -0.986213658786965 0  -0.9802462562455837 -1.012947927638485 0  -0.9392411159087709 -1.05464045113685 0  -0.8961148078923052 -1.095207085664714 0  -0.852735927704386 -1.137180184991065 0  -0.7994988276888263 -1.168430230744181 0  -0.749303791057677 -1.19989334141547 0  -0.7092685683842965 -1.25394427181536 0  -0.6474673004752202 -1.280171056564649 0  -0.595246608346199 -1.306307770982811 0  -0.5387361529899397 -1.334074700285732 0  -0.4819454012981085 -1.359574930426751 0  -0.4265024789648447 -1.383889929299558 0  -0.3651172387662165 -1.402433888238706 0  -0.3064877264872935 -1.418057117375936 0  -0.24663095296764 -1.431977083360391 0  -0.1855400133901827 -1.441103716678537 0  -0.1246726910555476 -1.448186923069908 0  -0.06323005437030957 -1.451438359822446 0  -0.001778099648928225 -1.451691356825254 0  0.05961565256886668 -1.448295283748038 0  0.1209125456070245 -1.441591828370718 0  0.1812786205979292 -1.431572760032216 0  0.241282258853908 -1.419145240158881 0  0.3002549141044577 -1.403441664314365 0  0.35907391609655 -1.386234608108662 0  0.4159438681810919 -1.365192689571472 0  0.4734217310623588 -1.343282732883607 0  0.5278844714978789 -1.315548008400451 0  0.581258067172601 -1.292418475269796 0  0.6373261877655459 -1.263567088002501 0  0.6856265068097693 -1.230021726607514 0  0.7379112631830431 -1.19896864094412 0  0.7874368871905859 -1.166409487744586 0  0.8334663326329306 -1.127502757703636 0  0.8793279029072822 -1.095537212180293 0  0.9337055022023817 -1.06935040063743 0  0.9652037799681324 -1.021032055634403 0  1.009546580185016 -0.9831466068900206 0  1.05567800263351 -0.9482989623629777 0  1.093548939470782 -0.9058797030148467 0  1.132904658875088 -0.8714463937131117 0  1.17149971749687 -0.8335786680366106 0  1.211674545664367 -0.8057088257277435 0  1.235275066996541 -0.7384295471507626 0  1.273828532880433 -0.7238571945901515 0  1.329688097223896 -0.6954640831126213 0  1.344488485338234 -0.6434017211176838 0  1.38612702233752 -0.6074001054226786 0  1.418624947861784 -0.5666003638351919 0  1.446289426391313 -0.5212521540161356 0  1.480578419856105 -0.4865306589287787 0  1.494383309679224 -0.4230215397408509 0  1.52038335361802 -0.3975257564378751 0  1.556585148267417 -0.3560308135203545 0  1.56218932761262 -0.307054823127122 0  1.579184582179721 -0.2621595485113883 0  1.589508867752635 -0.2165885713443515 0  1.598807133057613 -0.1729085767688668 0  1.604701807018151 -0.1293937257650312 0  1.615047409412163 -0.08980909714010508 0  -0.1012610601256708 0.7884062399834341 0  0.5968845812219078 -0.7118119292914021 0  -0.750966196503504 -0.6192895845942915 0  -0.08113598040121255 -0.8894408995525389 0  0.5941169313240279 0.6028959979639187 0  1.152828228928435 0.1890320102917159 0  -0.7665194844715937 0.513675106799082 0  -1.235729504089184 -0.03864951025168101 0  1.156175252348665 -0.2872974598379323 0  -1.041263710631691 -0.4399491815302902 0  -0.800286802296758 -0.05733066108719299 0  -0.4767038483350265 -0.2326970586056436 0  -1.062665507249143 0.3360441667006672 0  0.2762938714932766 -0.8634476654670933 0  0.1317983347726835 -0.2961034717864066 0  0.243036537610316 0.7471684858800708 0  0.3329772294628572 0.1939372938723469 0  0.6492347140597413 -0.0491323503377863 0  -0.4163687351970637 -0.7806042879650181 0  -0.4509902796563117 0.6924330680947974 0  -0.2771694449676307 0.252657940044742 0  0.9057406415719726 -0.4861407859360099 0  0.9022819615121073 0.3833256510939315 0  0.4002237388552335 -0.3255098063681968 0  0.02610224033495449 0.2470685557608742 0  -0.5414449038867266 0.1924066212718253 0  -0.175241110508153 -0.2882359369713556 0  0.9355886531229579 -0.04940222072988124 0  1.343155400501262 -0.04737349684454793 0  0.7510764248478478 -0.5953657913734095 0  0.7687235646545715 -0.2774323001499889 0  0.6134818796045116 -0.3765563126477486 0  0.5232721294726118 -0.1829194323885849 0  0.4924358857296942 -0.5241142367053681 0  0.9137772546816088 -0.2662295900830365 0  0.7916646122665838 -0.04928096918674833 0  -0.9215795553849302 0.1501560350214254 0  -1.148616527667237 0.1466515261982353 0  -1.021994808313463 -0.0470396418001949 0  -0.9110670273625121 -0.2578700527305172 0  -1.134058360530721 -0.2366558549059262 0  -1.312553813552964 -0.3300989940887496 0  -1.384026526518472 -0.1463098058456365 0  -1.402206464933703 0.07206323954622031 0  -1.326658564808154 0.2476163770752093 0  -0.1287220549473005 -0.5886162446758141 0  -0.2883285053614405 -0.5405385971731448 0  -0.2503236349016367 -0.8412272048067321 0  -0.3252629652274147 -0.2618550578016837 0  -0.4418835267525131 -0.503818408999913 0  -1.235115809738977 -0.5129884119675677 0  -1.253075365617035 0.421590476403934 0  0.3367095646831458 -0.5915241663748874 0  0.265061044196736 -0.3125475927349704 0  0.1980294893338707 -0.5830318647777613 0  -0.9130925562028329 0.4195299202292807 0  -0.7746288956485889 0.2261419098217133 0  1.343034847492074 -0.3596355970073134 0  1.213013390470554 -0.5182701857602235 0  1.209282535393977 0.4191884055230044 0  1.338526161057709 0.2631628050514443 0  -0.7625771346449731 -0.9002529260067028 0  -0.9356895267576988 -0.7588020922073911 0  -0.9412897691179536 0.6605757017490066 0  -0.7623587995064716 0.791841152687795 0  0.7704734057541052 -0.8880653316490642 0  0.5811817657737682 -1.003665127517102 0  0.5784611493537274 0.8915112085502086 0  0.7654993634242319 0.7790128888408393 0  0.00759256458031
[...]
<PointData  Vectors="f_48"> 
<DataArray  type="Float64"  Name="f_48"  NumberOfComponents="3" format="ascii">-1.1266228133120356e-07 -1.2865676596985840e-08 0.0000000000000000e+00  3.9158803218234405e-07 -2.5004220607003993e-07 0.0000000000000000e+00  -3.9144446150886304e-07 -5.7840242020535714e-07 0.0000000000000000e+00  1.4462662243638349e-06 -1.6211674915613555e-07 0.0000000000000000e+00  -1.0379619118019162e-06 -1.4713799720193024e-06 0.0000000000000000e+00  2.8200948317884262e-06 6.2087567092839607e-07 0.0000000000000000e+00  -1.4910097171108270e-06 -1.4900283079359672e-06 0.0000000000000000e+00  2.3835784868238349e-06 -2.7979378299096353e-06 0.0000000000000000e+00  1.4511819268931057e-06 3.2495834654540967e-06 0.0000000000000000e+00  1.6717325873241768e-07 -2.2359101116618161e-06 0.0000000000000000e+00  1.8308668278261313e-06 -2.0933395878109464e-06 0.0000000000000000e+00  4.2052236857361422e-06 3.9287317714911600e-06 0.0000000000000000e+00  -2.1264997256503841e-06 -1.0025492148644561e-05 0.0000000000000000e+00  2.7884336358751193e-06 1.0759625354414550e-05 0.0000000000000000e+00  3.0726530784009219e-07 -6.5403678772161538e-06 0.0000000000000000e+00  8.7555852837370150e-06 2.4329947203371934e-06 0.0000000000000000e+00  3.7591659164369614e-07 7.4204843232430421e-06 0.0000000000000000e+00  -3.2761262623763529e-06 -7.8611566431356504e-06 0.0000000000000000e+00  6.9339251176773470e-06 1.1909164640045506e-06 0.0000000000000000e+00  5.3876156141479046e-06 -2.8213023470798386e-07 0.0000000000000000e+00  6.6774239544985626e-07 -9.5538312441002076e-06 0.0000000000000000e+00  3.6070207231513049e-06 1.0330498723215045e-05 0.0000000000000000e+00  1.7976130915440386e-06 -1.6279046165783765e-05 0.0000000000000000e+00  -3.5185837927153881e-06 2.0432493970034686e-05 0.0000000000000000e+00  3.7656247882157115e-06 -4.4212376497975719e-06 0.0000000000000000e+00  3.5519992887981837e-06 2.5721209648724297e-06 0.0000000000000000e+00  -8.5969279126198192e-06 9.8447513088147721e-06 0.0000000000000000e+00  3.6769427836683757e-06 -2.9652148570937852e-06 0.0000000000000000e+00  3.2739379998063682e-06 -5.2847286257447789e-07 0.0000000000000000e+00  -2.5692070495177167e-06 8.1409522664230827e-06 0.0000000000000000e+00  4.1680230259646449e-06 -3.4171636236514047e-06 0.0000000000000000e+00  2.2293982757291763e-06 -9.5764221169958250e-09 0.0000000000000000e+00  -1.1011559403289349e-06 4.1465337869025589e-06 0.0000000000000000e+00  2.6081149129974888e-06 -7.6607873951733979e-07 0.0000000000000000e+00  1.8672707798297900e-06 4.6949558359137811e-07 0.0000000000000000e+00  -2.2391724583014348e-07 1.3902098370213675e-06 0.0000000000000000e+00  1.4388247144320060e-06 3.9434045744943027e-07 0.0000000000000000e+00  -1.3366259241371215e-07 8.7977336450006112e-07 0.0000000000000000e+00  1.0085691219265565e-06 1.3361499820101708e-07 0.0000000000000000e+00  -7.1638664811402383e-08 3.7685102420594012e-07 0.0000000000000000e+00  8.4741600337642815e-08 7.3916519008000294e-08 0.0000000000000000e+00  -9.2019952822886696e-08 -1.2886228855209668e-07 0.0000000000000000e+00  -1.0882272542841503e-07 -3.8634521341473112e-07 0.0000000000000000e+00  -2.0358395165878568e-08 -5.8841185545767410e-07 0.0000000000000000e+00  1.1723508531923443e-07 -8.3829902200893846e-07 0.0000000000000000e+00  1.4387120760698210e-07 -1.0090478277783449e-06 0.0000000000000000e+00  2.5141919424806164e-07 -1.2659099644729438e-06 0.0000000000000000e+00  8.6713131204305374e-07 -1.1661019091751761e-06 0.0000000000000000e+00  1.4938575489589497e-06 -9.9215712856989554e-07 0.0000000000000000e+00  -6.2889708966760146e-07 -2.6857941951321193e-06 0.0000000000000000e+00  4.9170774750362289e-06 1.9033584553498636e-06 0.0000000000000000e+00  7.0595641789554811e-07 -2.2958369315478231e-06 0.0000000000000000e+00  -3.0467382854910483e-07 -4.4805573826901359e-06 0.0000000000000000e+00  2.8865726794668080e-06 3.5401138186798427e-07 0.0000000000000000e+00  4.4268170739430248e-06 5.6147165822034421e-06 0.0000000000000000e+00  3.1685965852223269e-06 -2.5535407977678234e-06 0.0000000000000000e+00  -2.8907309868335690e-06 -1.2241687158067696e-05 0.0000000000000000e+00  3.0792174691624620e-06 1.4352760065803204e-05 0.0000000000000000e+00  6.3360484940446030e-06 -6.0862425732994232e-06 0.0000000000000000e+00  -1.4456929218769156e-09 6.9639510121567395e-06 0.0000000000000000e+00  9.4893048358033080e-06 -4.9370831816680782e-06 0.0000000000000000e+00  -2.7679904657243013e-06 -1.1071982007676132e-05 0.0000000000000000e+00  -2.3175395687980137e-06 7.9346639432263803e-06 0.0000000000000000e+00  8.0033494333908694e-06 1.2948266777231980e-06 0.0000000000000000e+00  -5.4150754067466045e-06 -6.1108950007848640e-06 0.0000000000000000e+00  4.3345234926142944e-06 5.5215990702869962e-07 0.0000000000000000e+00  9.2480428087186453e-06 1.4738704726586613e-06 0.0000000000000000e+00  1.6863651713923478e-06 -6.8188854454156929e-06 0.0000000000000000e+00  7.1887538204400576e-06 7.5779854192101648e-06 0.0000000000000000e+00  -3.4761493070148695e-06 -2.1954236503010647e-05 0.0000000000000000e+00  1.7591657127838370e-06 1.8523120477882653e-05 0.0000000000000000e+00  1.5415439606149596e-05 -2.8147796608746605e-05 0.0000000000000000e+00  -6.9257016661602867e-07 -3.7325235698288735e-06 0.0000000000000000e+00  5.1630806047322603e-07 7.6358308038121604e-06 0.0000000000000000e+00  3.0980807378014689e-06 -6.3891751014653768e-07 0.0000000000000000e+00  1.7996303377349393e-06 1.4708409032881797e-06 0.0000000000000000e+00  -2.8164923166430242e-07 2.6834653465474959e-06 0.0000000000000000e+00  2.1530283334491199e-06 -2.0236754182293103e-08 0.0000000000000000e+00  5.0228829258983555e-07 8.1621933473379719e-07 0.0000000000000000e+00  -5.7483907313353417e-07 1.0695435327568718e-06 0.0000000000000000e+00  1.9065475495425005e-07 -1.5671872900880831e-07 0.0000000000000000e+00  5.5727999383853318e-07 4.2763749870600917e-07 0.0000000000000000e+00  -6.1653032840675819e-07 -7.7673631719198366e-07 0.0000000000000000e+00  -3.2165493760651841e-07 -1.4669259188037529e-07 0.0000000000000000e+00  1.3826844067696479e-06 3.5132177184724933e-07 0.0000000000000000e+00  -1.9907220384188076e-07 -1.0042466502894273e-08 0.0000000000000000e+00  3.2821887738128972e-07 9.8042239064219172e-08 0.0000000000000000e+00  -3.5097396327440167e-08 2.3745232090368778e-07 0.0000000000000000e+00  1.9981779074198236e-07 -2.5170790642768895e-07 0.0000000000000000e+00  9.8949727102940177e-08 1.6100082370513375e-07 0.0000000000000000e+00  1.5364763665148870e-07 -1.3855105513774166e-07 0.0000000000000000e+00  4.5550827966876521e-07 -1.4716895155227577e-07 0.0000000000000000e+00  2.1177296225970789e-07 -1.1027225146347148e-06 0.0000000000000000e+00  4.7561697532411843e-07 -1.8563307431119383e-06 0.0000000000000000e+00  2.6859203324846054e-06 5.5742441319627267e-07 0.0000000000000000e+00  1.0326173548146544e-06 -1.0175951586482403e-06 0.0000000000000000e+00  1.1789811747495350e-06 -1.2444472692583784e-06 0.0000000000000000e+00  -1.7281852044466785e-06 6.7349970969227936e-06 0.0000000000000000e+00  2.2842296575991805e-06 -5.8987261723953082e-06 0.0000000000000000e+00  3.0499815344330364e-06 5.1037266025561886e-06 0.0000000000000000e+00  4.1703907488264482e-06 -4.5217444540076834e-06 0.0000000000000000e+00  2.5531027834597638e-06 2.3229503017798599e-06 0.0000000000000000e+00  2.3225520072759461e-06 -1.0463566546662523e-06 0.0000000000000000e+00  3.0997063573899700e-06 -3.9235435139576838e-06 0.0000000000000000e+00  -2.2044913524531802e-06 8.1366080542541945e-06 0.0000000000000000e+00  2.1508056267601275e-06 -3.0908734081191763e-06 0.0000000000000000e+00  3.1617066152672123e-06 -2.9331761958421725e-06 0.0000000000000000e+00  -5.4132942540285544e-06 1.4791570783134039e-05 0.0000000000000000e+00  5.9026057393624130e-06 4.2154513371703939e-06 0.0000000000000000e+00  7.1002299380473038e-07 -6.4760383570211881e-06 0.0000000000000000e+00  2.2016112487163311e-06 -2.2559602327404184e-06 0.0000000000000000e+00  4.3799021635222082e-06 -1.7682967669717556e-06 0.0000000000000000e+00  -5.8980357149085198e-06 1.4445723521458315e-05 0.0000000000000000e+00  2.8254864219993511e-06 -5.6676365539421773e-06 0.0000000000000000e+00  4.7145112658576378e-06 3.4711954197392920e-06 0.0000000000000000e+00  -1.1862318261615779e-05 1.2234226200788818e-05 0.0000000000000000e+00  4.1549196326358878e-06 2.5397679383522262e-07 0.0000000000000000e+00  -1.3979719021559993e-06 3.3476634371121484e-06 0.0000000000000000e+00  3.9786724960672196e-06 -1.9938207816598321e-06 0.0000000000000000e+00  2.0052399413614101e-06 7.9339861805103232e-07 0.0000000000000000e+00  -1.4696036519124219e-06 2.2976237096657465e-06 0.0000000000000000e+00  2.2338524148278268e-06 2.0333869736791221e-07 0.0000000000000000e+00  6.8779028617376076e-08 1.2518245647703777e-06 0.0000000000000000e+00  5.1400321511695777e-08 8.1538846672071476e-07 0.0000000000000000e+00  4.8467806439779170e-07 6.9653959068518788e-07 0.0000000000000000e+00  -1.1443645879505910e-07 4.9201449585823726e-07 0.0000000000000000e+00  6.0738320628944126e-08 3.2838192623550807e-07 0.0000000000000000e+00  -1.2012239597648886e-07 8.8168201337420604e-08 0.0000000000000000e+00  1.6599984598690241e-07 -7.2111674052453626e-08 0.0000000000000000e+00  7.8360997748943632e-08 -3.0905104974238247e-07 0.0000000000000000e+00  7.6437439352023356e-07 -3.0072137794827459e-07 0.0000000000000000e+00  4.4717526731120153e-08 -8.1933822383857108e-07 0.0000000000000000e+00  1.4906835064117246e-06 -3.6897279722245630e-07 0.0000000000000000e+00  -8.5606755634679939e-08 -1.4678730620106488e-06 0.0000000000000000e+00  2.0548541107020889e-06 -1.9980774888762724e-07 0.0000000000000000e+00  2.9204247614975746e-06 6.9790103513105470e-07 0.0000000000000000e+00  -2.6275482591615598e-06 -6.0106439961676461e-06 0.0000000000000000e+00  4.1987710384135491e-06 2.9875302329450683e-06 0.0000000000000000e+00  3.6258847008848143e-06 1.9859134889162920e-06 0.0000000000000000e+00  -8.5391864440592494e-07 -6.6537700119295173e-06 0.0000000000000000e+00  3.0037692213638464e-06 1.1596676064088184e-06 0.0000000000000000e+00  5.5689362810347944e-06 7.0967122725455898e-06 0.0000000000000000e+00  -7.2535922885075712e-06 -1.4645500077546270e-05 0.0000000000000000e+00  6.9095610760939297e-06 5.0968349585091820e-07 0.0000000000000000e+00  5.6006473662346096e-07 9.4233469102093884e-06 0.0000000000000000e+00  6.5567184209953355e-08 -1.3755057626397179e-05 0.0000000000000000e+00  4.1614314969079630e-06 5.0472562933198817e-06 0.0000000000000000e+00  2.8735438935559983e-06 -1.4530822807657385e-06 0.0000000000000000e+00  3.8867578245698991e-06 1.5333803912194827e-06 0.0000000000000000e+00  -4.8807167402189113e-07 -1.5473914032909350e-05 0.0000000000000000e+00  2.2281698223266262e-06 3.5290057375021922e-06 0.0000000000000000e+00  5.8354393163494536e-06 1.8044508246486106e-06 0.0000000000000000e+00  -4.7130197993198997e-06 -8.8048723717219059e-06 0.0000000000000000e+00  3.6793034418059033e-06 4.4911611355071267e-06 0.0000000000000000e+00  2.0317901508578350e-06 3.0948778027869194e-06 0.0000000000000000e+00  2.7915788093984542e-06 -7.1585575493533758e-06 0.0000000000000000e+00  1.1915404329397501e-07 7.0994950873736093e-06 0.0000000000000000e+00  3.6405243941374411e-06 -3.8726042834174258e-06 0.0000000000000000e+00  6.1641399930701493e-07 2.4507342105880974e-06 0.0000000000000000e+00  1.9920326151159160e-06 2.6053945407088918e-06 0.0000000000000000e+00  1.5768175282488813e-06 -4.1994328800802011e-06 0.0000000000000000e+00  7.5424545742932061e-07 3.1243301271399121e-06 0.0000000000000000e+00  -6.6569108645641301e-07 1.2394667330330255e-06 0.0000000000000000e+00  1.7122110860201237e-06 3.7119897818909120e-07 0.0000000000000000e+00  -1.1840253287613622e-07 9.9829380849017333e-07 0.0000000000000000e+00  1.7431352369443578e-07 6.2015721373708332e-07 0.0000000000000000e+00  5.4007209518427934e-07 4.8146811342204911e-07 0.0000000000000000e+00  2.9109348153951157e-07 1.4817580568406476e-07 0.0000000000000000e+00  3.3603987107580440e+02 -1.5442573564192091e+03 0.0000000000000000e+00  3.9566200260657379e+03 -4.4632119950893099e+02 0.0000000000000000e+00  3.6381440164136206e+03 -8.1563718654767024e+02 0.0000000000000000e+00  1.7683314052767949e+02 1.2369558677874074e+03 0.0000000000000000e+00  3.1768108161000587e+03 2.4635074171246725e+02 0.0000000000000000e+00  7.7793639662248415e+02 -1.2269815293139891e+03 0.0000000000000000e+00  4.3253855384827857e+03 7.6807355443672418e+02 0.0000000000000000e+00  2.6248057391295379e+01 6.1914929120262639e+02 0.0000000000000000e+00  8.9700038541033325e+02 1.4948282240518936e+03 0.0000000000000000e+00  1.6332993556695806e+03 -1.4386665779266280e+03 0.0000000000000000e+00  -2.0169503614550305e+01 3.5144596153254190e+02 0.0000000000000000e+00  1.4886713788608683e+03 -1.5317974354809942e+03 0.0000000000000000e+00  2.8148331136120405e+03 1.7404424359831194e+03 0.0000000000000000e+00  1.5071969106134445e+03 -1.7690510052149143e+03 0.0000000000000000e+00  1.0647599733051522e+03 -4.8126712828180064e+02 0.0000000000000000e+00  9.6531226571640889e+02 1.2964666931123977e+03 0.0000000000000000e+00  7.7046179106781653e+02 -4.5080480388170463e+02 0.0000000000000000e+00  4.4192487362499069e+00 7.5494576580411740e+02 0.0000000000000000e+00  3.2926890255839676e+03 2.0577441760698616e+03 0.0000000000000000e+00  3.5624166583234960e+03 -1.9772488401865762e+03 0.0000000000000000e+00  2.1805806310799762e+03 6.9207640621078184e+01 0.0000000000000000e+00  2.8139470339934737e+03 1.7876122036158313e+03 0.0000000000000000e+00  2.3053981688795043e+03 -1.4587871572392414e+03 0.0000000000000000e+00  2.6969215864803032e+03 1.1119396630057740e+03 0.0000000000000000e+00  -7.0714400090920918e+01 -2.4072982641299555e+02 0.0000000000000000e+00  1.9733159103856181e+03 1.8251064827190994e+03 0.0000000000000000e+00  1.5869512202917190e+03 6.8914484150400335e+02 0.0000000000000000e+00  -4.6175985862622255e+00 4.1220013241230879e+02 0.0000000000000000e+00  -4.4743461404824769e+00 5.5193422187542289e+01 0.0000000000000000e+00  3.7834266512982485e+03 9.9421133057105612e+02 0.0000000000000000e+00  1.5569741474042517e+03 2.1707601839702688e+03 0.0000000000000000e+00  2.8901089333383666e+03 1.8815309461487257e+03 0.0000000000000000e+00  1.0987070169612939e+03 1.8516476403744048e+03 0.0000000000000000e+00  3.8713438880852468e+03 2.3328120171220297e+02 0.0000000000000000e+00  1.1532651221941708e+03 1.9620360744477671e+03 0.0000000000000000e+00  -3.2559405293012383e-01 5.8665789598717538e+02 0.0000000000000000e+00  1.3376973214660093e+03 2.1866151748828574e+03 0.0000000000000000e+00  1.1002269721179161e+03 1.8215055976982658e+03 0.0000000000000000e+00  2.5078415392399947e+01 6.7058859938046487e+02 0.0000000000000000e+00  6.9241628873491447e+02 -1.3186680446231612e+03 0.0000000000000000e+00  3.0432359353799507e+02 -7.6990136788531845e+02 0.0000000000000000e+00  4.2591482377575278e+02 -6.9177380136868578e+02 0.0000000000000000e+00  9.3040967187218337e-01 -1.5125945914604301e+01 0.0000000000000000e+00  7.8747119681547744e+01 6.1703572927090613e+02 0.0000000000000000e+00  1.1757224028041071e+03 1.0778761395263484e+03 0.0000000000000000e+00  7.8042402966475515e+02 1.9507051994076226e+03 0.0000000000000000e+00  2.9420089259667820e+03 1.8867410152483740e+03 0.0000000000000000e+00  1.5729684743724295e+03 2.4066258711446794e+03 0.0000000000000000e+00  2.0623630337654199e+03 -8.0487790589487292e+02 0.0000000000000000e+00  3.9584403763515847e+03 2.7943763920355701e+02 0.0000000000000000e+00  1.1970051022154425e+03 -6.9940285918766131e+02 0.0000000000000000e+00  2.0315863864255257e+03 1.4499185219499626e+02 0.0000000000000000e+00  3.0240076410258625e+03 -1.2807243004245008e+03 0.0000000000000000e+00  2.2446424997844942e+03 2.0414308123450749e+02 0.0000000000000000e+00  1.4870249866654108e+03 -1.4559939322131563e+03 0.0000000000000000e+00  3.6506923445238531e+03 1.5907880875832536e+03 0.0000000000000000e+00  2.2405610776997446e+03 2.3239685334706810e+03 0.0000000000000000e+00  7.9885109103395757e+02 8.9923348520688830e+02 0.0000000000000000e+00  1.5772842764833013e+03 9.8184950066375836e+02 0.0000000000000000e+00  1.5893333013920717e+03 -7.8769304730053693e+02 0.0000000000000000e+00  7.8740822244058256e+02 -8.3068518440250170e+02 0.0000000000000000e+00  2.5484225461632141e+03 2.9240253592211434e+02 0.0000000000000000e+00  2.3021376234246377e+03 -4.8338782371551810e+02 0.0000000000000000e+00  3.0154743989499448e+03 2.4239823272248725e+02 0.0000000000000000e+00  2.9770179152772021e+03 -6.2235577849007279e+02 0.0000000000000000e+00  2.6880090875976507e+03 -3.6727931400601591e+02 0.0000000000000000e+00  2.1737392573450115e+03 -1.0691095305963049e+03 0.0000000000000000e+00  1.8887843731926991e+03 8.9241637103108292e+02 0.0000000000000000e+00  2.3851403550619425e+03 2.4942961536735291e+02 0.0000000000000000e+00  -1.6101672122335856e+01 2.2927349884955370e+02 0.0000000000000000e+00  4.6662148580896314e+02 1.2169632412771086e+03 0.0000000000000000e+00  5.3686842708589734e+02 -1.3578969298627658e+03 0.0000000000000000e+00  -1.4285894495100203e+01 -3.9711449855009255e+02 0.0000000000000000e+00  3.0939670703208640e+03 -1.5826401604636899e+03 0.0000000000000000e+00  8.4921487852887708e+01 -2.7232527852297397e+02 0.0000000000000000e+00  1.6657526763840574e+03 -1.2747015677963800e+03 0.0000000000000000e+00  2.4927301929078676e+03 -2.4019599339807752e+02 0.0000000000000000e+00  3.3150070474190261e+03 -1.3872597330569413e+03 0.0000000000000000e+00  2.8765291420810308e+02 -9.3928592464557494e+02 0.0000000000000000e+00  1.7199946635362696e+03 -1.8397433023833182e+03 0.0000000000000000e+00  4.5662461533782755e+02 5.1608017190825642e+01 0.0000000000000000e+00  1.1295217119513987e+02 3.3832587594956306e+02 0.0000000000000000e+00  1.3761701413186026e+02 7.8689994337754945e+02 0.0000000000000000e+00  1.8624623710629651e+03 -7.0397699573476041e+02 0.0000000000000000e+00  2.7635075120316901e+03 5.1155908875077381e+02 0.0000000000000000e+00  2.6398701468680515e+03 -1.4665669458284040e+03 0.0000000000000000e+00  8.3750712953314496e+02 -1.2883592460625102e+03 0.0000000000000000e+00  3.0024430719881589e+03 -8.7214397622414890e+02 0.0000000000000000e+00  7.2566341740330211e+02 -1.2792921108904163e+03 0.0000000000000000e+00  1.7530961459985017e+03 8.6552542805270411e+02 0.0000000000000000e+00  2.4186495218518126e+03 1.2529871446680625e+03 0.0000000000000000e+00  -1.4534218198985716e+01 1.7769327560462813e+01 0.0000000000000000e+00  1.8039049389390809e+02 -6.2503047083237266e+02 0.0000000000000000e+00  3.5353064004466969e+03 -1.3449115663114696e+03 0.0000000000000000e+00  1.6105806328753517e+03 -2.0955839757563026e+03 0.0000000000000000e+00  1.8902239697585489e+03 -2.4646292300077475e+03 0.0000000000000000e+00  2.1202723977347236e+02 1.0750406008021530e+03 0.0000000000000000e+00  -4.9556048490292476e+01 4.3685049671384542e+02 0.0000000000000000e+00  1.2953505736602629e+03 -1.2355823895452802e+03 0.0000000000000000e+00  3.3264975223396141e+02 -7.3784132300988699e+02 0.0000000000000000e+00  2.1785984078624611e+02 5.4389807167362653e+02 0.0000000000000000e+00  1.0620912360731954e+03 1.0788518566929617e+03 0.0000000000000000e+00  -1.1258646606146840e+01 1.3950186674864484e+00 0.0000000000000000e+00  3.6767127920718144e+02 6.3270064618356503e+02 0.0000000000000000e+00  1.4120480748631220e+01 9.0459390392797630e+01 0.0000000000000000e+00  1.4200275840390527e+03 1.5397112352105482e+03 0.0000000000000000e+00  2.3479528591419689e+03 1.0436407535128208e+03 0.0000000000000000e+00  4.1043591601695598e+03 5.7667879399456979e+02 0.0000000000000000e+00  2.4921646242685356e+03 -1.2652080363813429e+03 0.0000000000000000e+00  1.5270119098658972e+03 -1.6814164247248784e+03 0.0000000000000000e+00  4.4470650117889891e+03 -6.0187380332973805e+02 0.0000000000000000e+00  5.2411608550687629e+02 1.4882889748530451e+03 0.0000000000000000e+00  3.7729767814696547e+03 1.5524073146707906e+03 0.0000000000000000e+00  -3.2957051825273638e+00 1.158416