<?xml version="1.0"?>
<VTKFile type="UnstructuredGrid"  version="0.1"  >
<UnstructuredGrid>
<Piece  NumberOfPoints="2549" NumberOfCells="4928">
<Points>
<DataArray  type="Float64"  NumberOfComponents="3"  format="ascii">1.638558671091573 -0.03762025468613885 0  1.635482954602385 0.009943489387005322 0  1.628752580004579 0.0570059785068876 0  1.620437238900468 0.1041924821674177 0  1.609113988451674 0.1510458579301534 0  1.595538826524625 0.1977588819682625 0  1.578597031643918 0.243785743159977 0  1.560169973937267 0.2896514412643865 0  1.536078466901081 0.3329130902928052 0  1.510745542433737 0.3745882660514934 0  1.487422995649022 0.4208706043703923 0  1.458759548917424 0.4628110213743892 0  1.429585269382552 0.5051659714862479 0  1.398410179648637 0.5462118521032895 0  1.365674423365059 0.5865367344866438 0  1.331432180669609 0.625847006564366 0  1.295311869702383 0.6634667055311567 0  1.25911263236719 0.6997613435466358 0  1.22284238339307 0.7406661292357078 0  1.184418342112113 0.7781513064324532 0  1.145429226713576 0.8164926994483067 0  1.105138855426664 0.8538347287129113 0  1.064017873330388 0.8912047699628859 0  1.021353323837085 0.9275493093354813 0  0.9771906052283517 0.9625835599986521 0  0.932402780979619 0.9961071514440977 0  0.8863122476881279 1.029188008422621 0  0.8391649324954433 1.061381691124242 0  0.7910190280481243 1.092805268924919 0  0.7417249798827568 1.122978042513433 0  0.6913721586897882 1.151922952324888 0  0.6399702540731061 1.179445360528532 0  0.5873280975112996 1.20491708788623 0  0.5338313483734579 1.228515160942734 0  0.4794063322019539 1.250618730328872 0  0.424004247246403 1.270374337971986 0  0.367813173435557 1.288028388354665 0  0.3108543511777438 1.303263857648649 0  0.2532425210438617 1.316055514159985 0  0.195099732649499 1.326319434178859 0  0.1364536619117353 1.333666001465608 0  0.07760314990745615 1.338318215830686 0  0.01855710488229884 1.340483582750664 0  -0.0405194440841002 1.339775252741526 0  -0.09951074930780318 1.336300155052337 0  -0.1582592919920128 1.329969288639235 0  -0.2166412112937597 1.320905651657684 0  -0.2744943956406189 1.308932591111857 0  -0.3317127941841851 1.294587163537817 0  -0.3882999531844714 1.277575153686785 0  -0.4438696483084123 1.257696155149682 0  -0.4984892773478507 1.235463022677145 0  -0.5521169354232238 1.211187179026663 0  -0.6045249621359688 1.184680355008052 0  -0.6560244482174831 1.156865538968177 0  -0.70605387174644 1.126696107060204 0  -0.7549711591049185 1.09625015404879 0  -0.8030830508024733 1.064204269577718 0  -0.8494435928795991 1.030098801236929 0  -0.8945164561461096 0.9949957024166159 0  -0.9385523020888558 0.9594751321512699 0  -0.9810989633308145 0.922769860453228 0  -1.023141372002507 0.8867930307797406 0  -1.062355201293524 0.8468896292114338 0  -1.101588897031793 0.8112797635680323 0  -1.140315432168997 0.7755310616852186 0  -1.17770435930535 0.7385964978198912 0  -1.214415234633925 0.7021957135660575 0  -1.249864707967736 0.6649385363227378 0  -1.284949567559123 0.6294316338132774 0  -1.319796584043294 0.5927326523445908 0  -1.354396098588828 0.5593182701864587 0  -1.389416957262571 0.5223753292376273 0  -1.413230428408888 0.4756301862280697 0  -1.446183317270562 0.4342137272757975 0  -1.471827938079588 0.3893988029638814 0  -1.495072115670423 0.343121427675561 0  -1.511673036300924 0.2940192014333535 0  -1.530164031066074 0.2469217730710154 0  -1.530729801708379 0.1925468829331194 0  -1.545528692746999 0.1483297351801002 0  -1.557353854660545 0.1016510998303605 0  -1.550054526250648 0.05373764350555351 0  -1.554623634673773 0.007532971867692211 0  -1.553741942165811 -0.03840225853193785 0  -1.555792418158395 -0.08432286915211984 0  -1.553038467412756 -0.1307555489532143 0  -1.55829919154902 -0.1791337738904366 0  -1.54866108219743 -0.2262447506013749 0  -1.535696235439647 -0.271186321510586 0  -1.535190412593312 -0.3264545672303464 0  -1.517779274265806 -0.3742561806880921 0  -1.501538750980516 -0.424060879254621 0  -1.478401335807599 -0.4705773664895839 0  -1.452757384994093 -0.5156184153021087 0  -1.4207364048468 -0.5573011529601823 0  -1.396277381386635 -0.6039326028071598 0  -1.360821789913931 -0.6408972847000581 0  -1.326337251764082 -0.6747965338833639 0  -1.291277718735304 -0.711408580642091 0  -1.256145620231506 -0.7469961097927058 0  -1.220834945495334 -0.7845881024394433 0  -1.184330234593232 -0.8214733205979662 0  -1.147176891744097 -0.8590246553442358 0  -1.10875532909493 -0.8955027876046564 0  -1.069629601971072 -0.9319814644106578 0  -1.031253266039731 -0.974206478944873 0  -0.9891613448167864 -1.011390678545365 0  -0.9467040550149179 -1.049555304969121 0  -0.9027427313749464 -1.086684036072102 0  -0.8576864620625064 -1.123404361418655 0  -0.8112009691667896 -1.159087112295385 0  -0.7632688770130696 -1.19324943360837 0  -0.7139558354496428 -1.226221614525702 0  -0.6642134332318141 -1.260329540227069 0  -0.6119446767617422 -1.290209108800937 0  -0.5590729020306723 -1.318959583131953 0  -0.5047873839423088 -1.34521573055533 0  -0.4494699249607605 -1.369279022692237 0  -0.3932178972349001 -1.390976615929385 0  -0.3356282398240595 -1.409098525694286 0  -0.277491921268451 -1.424297458017582 0  -0.2186840489345795 -1.437263634711981 0  -0.1592551855956595 -1.446997346683863 0  -0.09941522865782493 -1.453825495134933 0  -0.03928183118585642 -1.457496011932002 0  0.02097012789418523 -1.458061508331992 0  0.08118261410702239 -1.455422676726588 0  0.1411865684439857 -1.449592150323144 0  0.2007591222882275 -1.440784506630031 0  0.2598322389098806 -1.429293573355244 0  0.3182685036790243 -1.415078166551932 0  0.3759902223721094 -1.398358516502126 0  0.4328345682270555 -1.379092106472382 0  0.488846618145211 -1.357843672549569 0  0.5437443140246728 -1.334003387492988 0  0.5976440615334506 -1.309191535417323 0  0.6508140270842701 -1.282372017450313 0  0.7024282212114084 -1.253010456483231 0  0.7530067522044226 -1.222406569954099 0  0.802422001243363 -1.190592563996988 0  0.8506462038692457 -1.157613913771411 0  0.897797845820257 -1.123907362784109 0  0.9438407578549227 -1.089421201884027 0  0.9885471530545766 -1.054612094855619 0  1.03260508546066 -1.018296452266304 0  1.075106494802548 -0.9806787331166607 0  1.116049941941117 -0.9421562975297019 0  1.156100475645073 -0.9036563122190504 0  1.194809340945444 -0.8641910118110163 0  1.232980597678983 -0.8257164791981262 0  1.268807182351495 -0.7836180828848047 0  1.304664171334758 -0.7465492379745777 0  1.340604149842914 -0.7083730396943581 0  1.374471196495601 -0.6682800523606101 0  1.406899313526581 -0.6273402440536999 0  1.437753236933595 -0.5856821778388724 0  1.466582716329567 -0.5427146515470807 0  1.494816264795153 -0.5001655918849608 0  1.51777905846052 -0.4533031600268008 0  1.542742918748059 -0.4111976512489 0  1.566351440403722 -0.3674264868122772 0  1.58421680328731 -0.3210274465371198 0  1.600471599169737 -0.2745149823244446 0  1.613319625955057 -0.2273461616274039 0  1.623681794082863 -0.1800504265028761 0  1.631060726193848 -0.132559115776953 0  1.636574286750736 -0.08524024303141527 0  -0.08083231081787744 0.8001141801060333 0  0.6187957830435282 -0.7191090929887411 0  -0.7274729151823988 -0.6294615958852523 0  -0.05694990612244537 -0.8903791041088026 0  0.6145076273848611 0.6234570260381185 0  1.166886349976378 0.2040200293867973 0  -0.7400512155159541 0.5297142141756952 0  -1.210309751209083 -0.04315914931738455 0  1.171109499031765 -0.2864130061729683 0  -1.015883508934439 -0.4548762398367826 0  -0.7767199467730403 -0.0579950917270915 0  -0.45593762547975 -0.2323027310515823 0  -1.026443517292302 0.3496154213645065 0  0.2990525072034122 -0.8675272036002865 0  0.154192400839057 -0.2931289596102405 0  0.2625311699294622 0.7617452244153553 0  0.3546883825765151 0.2036056183065607 0  0.6695050228338758 -0.04233026116285118 0  -0.3920061231952774 -0.7827293876376584 0  -0.4287809866390446 0.7052075320243727 0  -0.2560331013467227 0.259634300399548 0  0.9245704320360554 -0.4924925347388664 0  0.9203866612808737 0.4062303428881254 0  0.4224611030787661 -0.3240641375996515 0  0.04754844692224988 0.2550578396842144 0  -0.5192876343595836 0.1986039998910966 0  -0.1537440730661065 -0.2854855471851238 0  0.9530115323689589 -0.04193424841812286 0  1.360337105989881 -0.03957572275874768 0  0.7720141671222405 -0.6029128567182734 0  0.7882967366834071 -0.2768721110834577 0  0.6347404630394698 -0.3776003128678795 0  0.5446382458514059 -0.1793057617217721 0  0.5147535009625711 -0.5267965182855509 0  0.9316788881848801 -0.265626514666489 0  0.810582334596846 -0.04210975213115575 0  -0.8931591564972637 0.1551046352697152 0  -1.113921228690087 0.1491937465648633 0  -0.9955933706415262 -0.04967124112159333 0  -0.8877708751079196 -0.2651050711955769 0  -1.109164577172244 -0.2441093683872562 0  -1.283980871474254 -0.3365062344260987 0  -1.371674389189234 -0.1527315438176842 0  -1.369649524447673 0.07043642653498466 0  -1.27955824284215 0.2529151982234639 0  -0.1059372012857396 -0.5875653783313254 0  -0.2661685122651846 -0.5400433152055921 0  -0.2258048565538787 -0.8419266203938101 0  -0.3043009153794423 -0.2599846013788842 0  -0.4202467663359942 -0.5051358250599682 0  -1.202682838569117 -0.5337131057401863 0  -1.204175550489142 0.4418886185562821 0  0.359589726239579 -0.5933306719389932 0  0.287535792059143 -0.3102108347398778 0  0.2210877567446732 -0.5833276728563532 0  -0.8826779794365841 0.4354758072377256 0  -0.7489030290316178 0.2337350349291061 0  1.354632103372348 -0.3594034180104844 0  1.226131781047001 -0.5243633000730915 0  1.219365072244887 0.4417777584034422 0  1.349163601039292 0.2793007480323167 0  -0.7329742385041663 -0.9128490732005108 0  -0.9075942457353748 -0.7777644547906829 0  -0.9105797069228603 0.6855313996346313 0  -0.7364933404791572 0.8139712430142363 0  0.7904205883819907 -0.9015765891824691 0  0.6010413429731278 -1.014478290892211 0  0.5942395243199364 0.9150553336779773 0  0.7830421808198023 0.8077947436813726 0  0.0314753282239755
[...]
<PointData  Vectors="f_13666"> 
<DataArray  type="Float64"  Name="f_13666"  NumberOfComponents="3" format="ascii">5.2484615485376342e-02 1.1222634184787877e-03 0.0000000000000000e+00  7.0162404662911793e-02 8.6237322450426462e-03 0.0000000000000000e+00  6.6823196302083901e-02 1.1010474906753427e-02 0.0000000000000000e+00  7.6316433053193605e-02 1.7130298291043389e-02 0.0000000000000000e+00  7.7450605721041760e-02 2.1674145561597979e-02 0.0000000000000000e+00  1.0084242333080862e-01 3.7244217909722904e-02 0.0000000000000000e+00  7.0344051372360328e-02 2.8015100918430697e-02 0.0000000000000000e+00  3.2181044992892593e-02 3.5524800080818077e-02 0.0000000000000000e+00  1.9023990238689584e-01 1.1561446808123939e-01 0.0000000000000000e+00  1.4273219789400465e-01 7.5821395685612414e-02 0.0000000000000000e+00  -2.8028674270270400e-02 -1.9044880654712942e-03 0.0000000000000000e+00  1.3485318475106759e-02 1.2232820177279235e-02 0.0000000000000000e+00  4.2326083354015727e-02 3.4508497484016583e-02 0.0000000000000000e+00  1.1582286606124156e-01 9.5573613270877170e-02 0.0000000000000000e+00  1.0069971419203406e-01 8.9981348432475378e-02 0.0000000000000000e+00  1.2171341062856404e-01 1.1942576280344211e-01 0.0000000000000000e+00  1.1634574178587891e-01 1.1591260391481722e-01 0.0000000000000000e+00  3.7206178173901282e-02 3.1304286475849263e-02 0.0000000000000000e+00  -6.4499593586182565e-03 -2.1688036844123154e-03 0.0000000000000000e+00  -2.5797457944313262e-02 -2.4589516036846004e-02 0.0000000000000000e+00  5.1375862542714888e-03 6.6884108806402887e-03 0.0000000000000000e+00  1.6364799498096518e-02 1.9157421694338456e-02 0.0000000000000000e+00  6.9239041148572451e-03 1.1103542093685220e-02 0.0000000000000000e+00  5.1938740656646290e-02 6.7236557806753763e-02 0.0000000000000000e+00  4.2159846433918541e-02 5.6680711955822201e-02 0.0000000000000000e+00  2.2836355615308754e-02 3.2528174754279361e-02 0.0000000000000000e+00  1.1321675029202326e-02 1.7384505005093604e-02 0.0000000000000000e+00  -9.5220856171616096e-04 -3.7357294416216910e-04 0.0000000000000000e+00  -9.9691732626311907e-03 -1.4079452617172609e-02 0.0000000000000000e+00  -1.1538164606344294e-02 -1.8052304979345030e-02 0.0000000000000000e+00  -2.4450128050443325e-02 -4.2307075791859577e-02 0.0000000000000000e+00  -2.4764651944917858e-02 -4.4690106894294306e-02 0.0000000000000000e+00  -1.1367338581070904e-02 -2.2351141814732359e-02 0.0000000000000000e+00  -2.0827774713327477e-02 -4.7662717709717785e-02 0.0000000000000000e+00  -2.3890484976971979e-02 -5.8871323656782076e-02 0.0000000000000000e+00  -1.8063556689282671e-02 -5.1554342311009714e-02 0.0000000000000000e+00  -1.8988845315529614e-02 -6.1776958794134293e-02 0.0000000000000000e+00  -1.3959213668510728e-02 -5.3975426190914368e-02 0.0000000000000000e+00  -1.2235832898444687e-02 -5.8119923174616561e-02 0.0000000000000000e+00  -8.1684251891215344e-03 -4.9266765628037633e-02 0.0000000000000000e+00  -4.4711027469749075e-03 -4.1538412390289721e-02 0.0000000000000000e+00  -2.4676222500063325e-03 -3.8860630951175854e-02 0.0000000000000000e+00  -3.5490730511335424e-04 -3.7200962065446042e-02 0.0000000000000000e+00  1.5731485763707830e-03 -3.5470223830350062e-02 0.0000000000000000e+00  3.5331090992744558e-03 -3.4729684296652616e-02 0.0000000000000000e+00  4.8725747082009390e-03 -3.1511685863845521e-02 0.0000000000000000e+00  7.8588444256147989e-03 -3.6472414407817053e-02 0.0000000000000000e+00  8.7290039725814207e-03 -3.3786067367766438e-02 0.0000000000000000e+00  8.1965883273408969e-03 -2.4496440669282884e-02 0.0000000000000000e+00  2.0374484021966916e-02 -5.4196072807859090e-02 0.0000000000000000e+00  2.8717061318300208e-02 -7.1331789874671495e-02 0.0000000000000000e+00  1.9602240300686153e-02 -4.2982393006988341e-02 0.0000000000000000e+00  3.5471183288036591e-02 -7.0068080394722593e-02 0.0000000000000000e+00  1.5452352983518675e-02 -2.8964896261009298e-02 0.0000000000000000e+00  2.6884378002807789e-02 -4.2418129435894431e-02 0.0000000000000000e+00  1.1496963127123823e-02 -1.8265483144940822e-02 0.0000000000000000e+00  -1.8830470135769217e-02 3.0812879075332672e-02 0.0000000000000000e+00  1.1541210671061003e-02 -1.0893361803047067e-02 0.0000000000000000e+00  3.3961030320815558e-02 -4.3215019829917378e-02 0.0000000000000000e+00  -3.7308085889585074e-04 9.3486998864145848e-04 0.0000000000000000e+00  4.8009214282501156e-02 -5.6345912887336022e-02 0.0000000000000000e+00  4.7983821240039810e-02 -5.5696852694102822e-02 0.0000000000000000e+00  7.9317111881600844e-02 -7.5759022291320977e-02 0.0000000000000000e+00  -1.6709719504138912e-01 1.7114089875940142e-01 0.0000000000000000e+00  -4.5237937688353706e-02 4.8455276198633504e-02 0.0000000000000000e+00  -9.9939467653577304e-03 1.3422985029528456e-02 0.0000000000000000e+00  -1.3039880700366930e-02 1.4874185403919169e-02 0.0000000000000000e+00  -3.0019241865701436e-02 2.9586337050418802e-02 0.0000000000000000e+00  1.0830638872170327e-02 -1.1608299949480594e-02 0.0000000000000000e+00  -5.1165070098668046e-02 4.1829812019446418e-02 0.0000000000000000e+00  -2.8558065065916748e-02 3.5341954262181545e-03 0.0000000000000000e+00  -2.6610272907406346e-01 2.7126264069854766e-01 0.0000000000000000e+00  1.2378361861029723e+00 -6.8825196870356642e-01 0.0000000000000000e+00  -4.9079639734291930e-01 3.2929538423095001e-01 0.0000000000000000e+00  -1.1188342640253000e+00 7.8752101669957619e-01 0.0000000000000000e+00  -2.2383705667422316e-01 1.2280265469779351e-01 0.0000000000000000e+00  5.7093811252749878e-02 -1.3449838226020396e-02 0.0000000000000000e+00  3.4724649264650242e-01 -1.3963992835817421e-01 0.0000000000000000e+00  5.4360655815469305e-01 -4.3640355556687271e-02 0.0000000000000000e+00  -3.6988685084123563e-01 3.9831490837404164e-02 0.0000000000000000e+00  -1.3518779613071297e-01 6.6510277572674303e-02 0.0000000000000000e+00  6.5080381272406540e-01 3.5376439487560168e-02 0.0000000000000000e+00  -1.4241772529666033e-01 -6.4953958365421491e-03 0.0000000000000000e+00  -1.3137056667419592e-01 5.9116564412626700e-03 0.0000000000000000e+00  -6.4338597891833327e-02 1.3083066271589586e-03 0.0000000000000000e+00  -4.4347166080351684e-02 -7.9800153084827680e-04 0.0000000000000000e+00  -2.7930235376323557e-02 2.7806645865352908e-03 0.0000000000000000e+00  4.3978757447373767e-01 -1.1227471523418027e-02 0.0000000000000000e+00  -1.2236598097654371e-01 -4.7772328243273599e-02 0.0000000000000000e+00  -3.0491892191988107e-01 -3.2941961732106326e-02 0.0000000000000000e+00  3.8455828913839113e-01 2.0473664429767752e-02 0.0000000000000000e+00  1.9146833954916320e-01 7.7427743122208320e-02 0.0000000000000000e+00  1.2866070817502141e-02 -8.5453477429969452e-03 0.0000000000000000e+00  -2.2222361811279126e-01 -1.1671459630425349e-01 0.0000000000000000e+00  -9.1680057424935080e-01 -6.2871964728230922e-01 0.0000000000000000e+00  -4.3144598474943519e-01 -2.9062739644914776e-01 0.0000000000000000e+00  9.2794616638470340e-01 4.9806858053964986e-01 0.0000000000000000e+00  -1.1648924559622821e-01 -1.0608829483896839e-01 0.0000000000000000e+00  -4.0584226380962228e-02 -1.7669274906457835e-02 0.0000000000000000e+00  -4.4088790265135430e-02 -3.5641138198236805e-02 0.0000000000000000e+00  2.2350770158797134e-02 2.4410506269734213e-02 0.0000000000000000e+00  -2.0295168015985871e-02 -1.9169653068167911e-02 0.0000000000000000e+00  -4.2479035935665994e-03 -5.5493744943409347e-03 0.0000000000000000e+00  5.2002683192834461e-03 1.8271710155861663e-03 0.0000000000000000e+00  -6.4036258532009699e-02 -6.6182689878604123e-02 0.0000000000000000e+00  -2.9818964521867458e-01 -2.8746082726094285e-01 0.0000000000000000e+00  1.9963623886667781e-01 1.8723602990675373e-01 0.0000000000000000e+00  9.3866593049377389e-02 1.0500037106372079e-01 0.0000000000000000e+00  6.2500215131446324e-02 7.1602137621162923e-02 0.0000000000000000e+00  4.1472088240734018e-03 5.1797317917863742e-03 0.0000000000000000e+00  2.9080071916060771e-02 3.5594539090844479e-02 0.0000000000000000e+00  2.5553203775857094e-02 3.2376908860093222e-02 0.0000000000000000e+00  -2.5323986094039099e-02 -3.6774230028806074e-02 0.0000000000000000e+00  -2.4714464840800903e-02 -3.4693385264481867e-02 0.0000000000000000e+00  1.3097408322008355e-01 1.9210447760214991e-01 0.0000000000000000e+00  2.5570455733154928e-02 4.7439343788330375e-02 0.0000000000000000e+00  7.6852780848896116e-02 1.4527041599215754e-01 0.0000000000000000e+00  2.8979919163428073e-02 6.1210062348255795e-02 0.0000000000000000e+00  5.0333662005851806e-02 1.2063726209597671e-01 0.0000000000000000e+00  3.9522314276354727e-02 9.9500551213869318e-02 0.0000000000000000e+00  7.6463531085592326e-03 2.0656153995774376e-02 0.0000000000000000e+00  1.1328572091899200e-02 4.4104203261408917e-02 0.0000000000000000e+00  1.1040223806363872e-02 5.0137098017840047e-02 0.0000000000000000e+00  5.8392269819875610e-03 3.7247318414149674e-02 0.0000000000000000e+00  4.2198685607661461e-03 3.9862242053512749e-02 0.0000000000000000e+00  1.5672623484541881e-03 3.3861463388522563e-02 0.0000000000000000e+00  -4.1217848820963014e-04 3.4447849054333644e-02 0.0000000000000000e+00  -2.5182091903591416e-03 3.2875119654558110e-02 0.0000000000000000e+00  -5.7677164534935830e-03 4.3199653695575067e-02 0.0000000000000000e+00  -8.3788766707219471e-03 4.6460591340572385e-02 0.0000000000000000e+00  -1.2134837033315573e-02 5.2230567271162785e-02 0.0000000000000000e+00  -1.4181707867904259e-02 5.0587565772273010e-02 0.0000000000000000e+00  -2.0740274870632545e-02 6.2415064402198010e-02 0.0000000000000000e+00  -1.7050487507560951e-02 4.6030811538256368e-02 0.0000000000000000e+00  -2.6742785787553802e-02 6.1546495864914903e-02 0.0000000000000000e+00  -1.8858132950810142e-02 4.1259496570816998e-02 0.0000000000000000e+00  -2.4363516925634812e-03 2.8695677301623212e-03 0.0000000000000000e+00  -4.0134695226860952e-02 6.8557826250159534e-02 0.0000000000000000e+00  -3.4026226812258559e-02 5.7038223317253660e-02 0.0000000000000000e+00  -1.6672414141733333e-02 2.5546087836183892e-02 0.0000000000000000e+00  -1.7301374939846133e-02 2.4838359840525862e-02 0.0000000000000000e+00  -5.5088267770968336e-03 7.0710843091848236e-03 0.0000000000000000e+00  5.4077891375945639e-03 -8.2795229700258367e-03 0.0000000000000000e+00  1.8572252512959724e-02 -2.5319841481486201e-02 0.0000000000000000e+00  4.0048454124018758e-02 -5.1661073348921373e-02 0.0000000000000000e+00  4.7017299819109404e-02 -5.8751958603681029e-02 0.0000000000000000e+00  4.1726454540777901e-03 -7.2875635195485669e-03 0.0000000000000000e+00  1.6673555184253008e-02 -1.8699107025672474e-02 0.0000000000000000e+00  -3.0547599142496892e-03 1.9829353988118398e-03 0.0000000000000000e+00  -3.6735200944901743e-02 3.4707930727448953e-02 0.0000000000000000e+00  -1.6159860633287070e-02 1.0812750562622141e-02 0.0000000000000000e+00  6.7698864851877122e-02 -5.6511229537518241e-02 0.0000000000000000e+00  9.1167144067792680e-02 -8.8856097919405158e-02 0.0000000000000000e+00  1.2502943250840814e-01 -1.2027409858476933e-01 0.0000000000000000e+00  9.2325151455371374e-02 -8.0389039378059357e-02 0.0000000000000000e+00  1.1607571793365858e-01 -9.3376132340104293e-02 0.0000000000000000e+00  4.3534122312002002e-02 -3.4431672001649163e-02 0.0000000000000000e+00  2.0975170439389183e-02 -1.7261072450477064e-02 0.0000000000000000e+00  -3.0499903245443390e-02 4.5909840925805866e-03 0.0000000000000000e+00  1.2477189644760671e-01 -6.4083282493108157e-02 0.0000000000000000e+00  1.9175210987817723e-01 -1.1363770203575420e-01 0.0000000000000000e+00  3.3659371505459348e-02 -3.4691308543059914e-02 0.0000000000000000e+00  6.9677859343909104e-02 -2.6411994328078833e-02 0.0000000000000000e+00  9.6673346046677933e-02 -3.3821710084883508e-02 0.0000000000000000e+00  7.3865543569841707e-02 -1.9100942211734244e-02 0.0000000000000000e+00  6.9756124295998340e-02 -1.3860559456082446e-02 0.0000000000000000e+00  6.2855812038015491e-02 -8.8017506342947978e-03 0.0000000000000000e+00  4.7803097380529604e-02 -3.9555095485219469e-03 0.0000000000000000e+00  3.6539809891434120e-05 4.4419666214054433e-06 0.0000000000000000e+00  -5.4843147295782915e-05 -6.1459514559957613e-05 0.0000000000000000e+00  3.3075193222411613e-05 -6.2368717933345867e-05 0.0000000000000000e+00  2.9103289385554198e-05 -2.6425257258111303e-06 0.0000000000000000e+00  -5.7456211892924905e-05 6.7272689871580220e-05 0.0000000000000000e+00  7.4825252823545129e-07 3.4589625418695555e-05 0.0000000000000000e+00  3.0478853906391128e-05 5.9892513026517673e-05 0.0000000000000000e+00  -3.2956733035052093e-06 1.4797424607661301e-06 0.0000000000000000e+00  9.1696520232486048e-07 -3.1338017840391887e-05 0.0000000000000000e+00  1.9969293712475617e-07 -4.7741445472596557e-05 0.0000000000000000e+00  1.0825701995262815e-05 1.2966311632959019e-05 0.0000000000000000e+00  6.4320019505255952e-05 -1.1410647043720321e-04 0.0000000000000000e+00  1.9752952631195983e-06 5.1836061887826525e-05 0.0000000000000000e+00  -6.4529680605644073e-05 -2.3517014977883353e-05 0.0000000000000000e+00  -4.2584795592268631e-05 -9.8900668783866955e-05 0.0000000000000000e+00  -6.5987944309863096e-05 2.2606916567361282e-05 0.0000000000000000e+00  -1.0896737629766600e-04 8.7438643769355599e-05 0.0000000000000000e+00  -1.1413482309980685e-05 -8.2573939829022776e-06 0.0000000000000000e+00  8.4902359715081094e-05 -5.0493042258908347e-05 0.0000000000000000e+00  6.7629627568089264e-05 4.2726438805216525e-05 0.0000000000000000e+00  6.8948409169203989e-05 8.9261761176190964e-05 0.0000000000000000e+00  -9.7908315217746123e-06 -6.3302604836826522e-05 0.0000000000000000e+00  -1.0069775922503618e-05 6.5421949304933093e-05 0.0000000000000000e+00  -1.1086787844546999e-04 -8.4232490629233695e-05 0.0000000000000000e+00  -3.2497019548450678e-05 -4.7793271413286561e-05 0.0000000000000000e+00  5.3221831639531868e-05 8.1295918129734444e-05 0.0000000000000000e+00  2.4176176080307121e-05 -1.1084253993591731e-04 0.0000000000000000e+00  -1.2138257597686290e-05 4.9118461620155038e-07 0.0000000000000000e+00  3.7159328681548762e-06 1.8960550350068559e-06 0.0000000000000000e+00  -2.9338847171758779e-05 -6.7539001193281766e-05 0.0000000000000000e+00  3.5221231159990557e-06 -1.0549193174564275e-04 0.0000000000000000e+00  -6.4657131262987893e-06 -5.6221020881052600e-05 0.0000000000000000e+00  -9.6239644700180202e-05 -1.8820687790267404e-04 0.0000000000000000e+00  -5.3943337618866148e-05 -4.1185144394661612e-05 0.0000000000000000e+00  -4.9020066145659115e-06 -2.2985205333754419e-05 0.0000000000000000e+00  -1.3315124688894589e-06 8.9120153532964595e-07 0.0000000000000000e+00  7.1710817601416694e-07 6.5495596914259268e-05 0.0000000000000000e+00  9.0285352308053235e-06 6.2390086325463302e-05 0.0000000000000000e+00  7.3861866586508434e-07 -1.2269421968237398e-07 0.0000000000000000e+00  4.5195128304251816e-08 -5.4349399175510576e-05 0.0000000000000000e+00  6.3909868750173187e-06 -6.2673643671580474e-05 0.0000000000000000e+00  5.5319266666649974e-06 -5.4543371535951347e-05 0.0000000000000000e+00  1.5497531581569159e-07 -1.2804107752649788e-05 0.0000000000000000e+00  1.2141711231938135e-06 1.4779791689778074e-05 0.0000000000000000e+00  5.6218957226961347e-06 5.3611663781798961e-05 0.0000000000000000e+00  1.1496179047614733e-04 -2.4710437174299364e-05 0.0000000000000000e+00  1.0695524381837084e-04 -7.8280586907208098e-05 0.0000000000000000e+00  7.9027892259322133e-05 -2.3814866843485514e-05 0.0000000000000000e+00  2.0813100784284407e-05 -9.5466119646944394e-05 0.0000000000000000e+00  7.1339790422081102e-05 -8.3945910675843854e-05 0.0000000000000000e+00  -2.2825908483876288e-05 -9.2828905692947288e-05 0.0000000000000000e+00  -1.8443986968052383e-05 9.2712612751767352e-05 0.0000000000000000e+00  -8.8302499434566656e-05 -6.2535881275494864e-05 0.0000000000000000e+00  -8.9274588594918545e-05 -9.6242663460336438e-05 0.0000000000000000e+00  -6.8199087516379250e-05 -3.9055390368795582e-05 0.0000000000000000e+00  1.1090266608247879e-05 5.6529007947967412e-05 0.0000000000000000e+00  3.1171548777196486e-06 4.7024122239675632e-05 0.0000000000000000e+00  5.7184830150429423e-06 -5.4941268365784376e-05 0.0000000000000000e+00  7.0752249788515165e-06 -6.4408068157957560e-05 0.0000000000000000e+00  6.6239347363320996e-06 6.7961755029856543e-05 0.0000000000000000e+00  5.5787739599471090e-06 5.8163417621605082e-05 0.0000000000000000e+00  4.2112890646779573e-05 -4.0968669274722358e-05 0.0000000000000000e+00  1.8294434623399036e-05 -4.6497517982354721e-05 0.0000000000000000e+00  1.9800426184253788e-05 5.1451824740473444e-05 0.0000000000000000e+00  4.2063683792554433e-05 4.3915163692385326e-05 0.0000000000000000e+00  -3.9124815682652824e-05 -4.8102109405239420e-05 0.0000000000000000e+00  -5.0427758337614272e-05 -3.1443533615927395e-05 0.0000000000000000e+00  -5.3747469489431014e-05 3.6265030960416853e-05 0.0000000000000000e+00  -3.9624428286359975e-05 5.1823396455791910e-05 0.0000000000000000e+00  5.2697495462261320e-06 -7.0000755977587463e-08 0.0000000000000000e+00  3.4514435416222577e-05 -4.3253203250775897e-06 0.0000000000000000e+00  3.5527178849403942e-05 5.0288162233999106e-06 0.0000000000000000e+00  6.6669926485791726e-06 7.7359620524697045e-08 0.0000000000000000e+00  -6.5934522559572039e-05 -4.4636910774529956e-05 0.0000000000000000e+00  -7.4658717372289761e-05 2.2125471506667150e-04 0.0000000000000000e+00  -9.4239029059567419e-06 6.4367761973268921e-05 0.0000000000000000e+00  -6.5037975498366676e-05 4.4642469296707219e-05 0.0000000000000000e+00  3.0993400973660491e-05 -5.1133263901638091e-05 0.0000000000000000e+00  3.9517823490758258e-05 -1.3676897253995593e-04 0.0000000000000000e+00  4.9494508076211553e-06 -5.0995694374971891e-05 0.0000000000000000e+00  -4.6892325186129148e-05 6.9853792887154679e-05 0.0000000000000000e+00  4.4731302215185727e-05 -1.1071823698177025e-05 0.0000000000000000e+00  -1.2882683960382989e-05 1.2732883960274904e-05 0.0000000000000000e+00  -3.3295452591639593e-06 -5.7358199016522706e-05 0.0000000000000000e+00  -1.1610101161892020e-06 6.2876839694289889e-05 0.0000000000000000e+00  9.9474040727357999e-06 -5.1622084041535153e-05 0.0000000000000000e+00  2.9564278467480781e-06 1.0276701323469730e-04 0.0000000000000000e+00  -2.8564691091788119e-05 6.8525871211080558e-05 0.0000000000000000e+00  -5.2839814655196519e-06 2.4552789175490112e-05 0.0000000000000000e+00  -9.8316604795092952e-05 6.4346970530866675e-05 0.0000000000000000e+00  -7.2327112448488455e-05 4.9494682466573472e-05 0.0000000000000000e+00  -4.0893035805916571e-05 -6.5498490445697931e-07 0.0000000000000000e+00  -3.7294828029280015e-05 -4.9936200456682494e-06 0.0000000000000000e+00  6.8029649766404454e-05 5.8981271481684514e-05 0.0000000000000000e+00  1.0053654335096286e-04 3.6078124172842001e-05 0.0000000000000000e+00  7.1515374009994330e-05 2.5279174942641766e-05 0.0000000000000000e+00  -5.8441990881704601e-05 -9.1806948960542194e-05 0.0000000000000000e+00  5.8573487633404849e-04 3.1497913085884975e-04 0.0000000000000000e+00  -4.6030325831289444e-05 -1.4171383927110668e-05 0.0000000000000000e+00  -3.2747917839377042e-05 -4.3065467786028455e-06 0.0000000000000000e+00  -3.1972185617514209e-05 4.9161371584207888e-06 0.0000000000000000e+00  -5.1184102727304653e-05 1.7667093129195984e-05 0.0000000000000000e+00  -8.3421580662812619e-05 -3.0238857526487426e-04 0.0000000000000000e+00  -6.6490372959417034e-05 1.6995323947600579e-05 0.0000000000000000e+00  -2.0238550085552526e-05 1.1635498985916300e-06 0.0000000000000000e+00  6.0637097387219459e-05 -1.7744632570693754e-05 0.0000000000000000e+00  5.8485316385566556e-05 -2.9441064528188258e-05 0.0000000000000000e+00  6.1928710279881020e-05 -6.4119741496281843e-05 0.0000000000000000e+00  5.4106187628201360e-05 3.0348071148585641e-05 0.0000000000000000e+00  5.7106252611891113e-05 1.8434820876380724e-05 0.0000000000000000e+00  5.0215850389726620e-05 5.5496713567892435e-05 0.0000000000000000e+00  4.4778975845409698e-05 1.2175549959201904e-04 0.0000000000000000e+00  2.8958862064671736e-05 