<?xml version="1.0"?>
<VTKFile type="UnstructuredGrid"  version="0.1"  >
<UnstructuredGrid>
<Piece  NumberOfPoints="2549" NumberOfCells="4928">
<Points>
<DataArray  type="Float64"  NumberOfComponents="3"  format="ascii">1.618245106213434 -0.04491181847849551 0  1.608892044455734 -0.002310465862893441 0  1.605635013081149 0.03961830638997991 0  1.596635933677852 0.08315200146532155 0  1.585909541150056 0.125430241133141 0  1.575079182285975 0.1704375726535878 0  1.553886200056345 0.2138340255265793 0  1.559671755637453 0.2648596936672824 0  1.507884428980519 0.2977549107182242 0  1.48689995088419 0.3266422881971944 0  1.477020274296708 0.3961521223467545 0  1.439112867204423 0.4237149487758116 0  1.416410941941777 0.4700736777998406 0  1.382830477956676 0.5091822365707174 0  1.338570542643717 0.5453218757208119 0  1.329422241429367 0.6059271380132952 0  1.255647993201051 0.6075796608299489 0  1.230952153798003 0.6339456413112106 0  1.198865546967073 0.7125413850938298 0  1.152727414071323 0.7158689834775143 0  1.13020860606756 0.7703914061890129 0  1.082658498462436 0.7890925194711246 0  1.046969912898244 0.8328147663730557 0  1.00306520675909 0.8675833127856496 0  0.9550038117064127 0.9028954394117943 0  0.9366285660782435 0.9653713743885596 0  0.8733806908863263 0.9849949725517606 0  0.8277883521579226 1.01216135898418 0  0.782987328163724 1.05551024403409 0  0.7325132376082388 1.084370025051303 0  0.6817144038534553 1.116026516923559 0  0.6324005689417361 1.147176764000392 0  0.5779474974646216 1.174879858632108 0  0.5238272495323731 1.198576743576777 0  0.4705996034678821 1.224986554150252 0  0.4132020874886652 1.245606932492993 0  0.3571282628079813 1.265306156179432 0  0.2990519556943668 1.281147349555448 0  0.2406574461897598 1.295748545613973 0  0.1820160119685432 1.307340925307135 0  0.121717408431478 1.315320210345895 0  0.06213031074470907 1.320717106930927 0  0.001893323789046962 1.323809087731162 0  -0.05832408707763061 1.323524714003828 0  -0.1185936498139705 1.320363748803537 0  -0.1785434763322828 1.314002808711768 0  -0.2383378311591577 1.304975050346052 0  -0.2974459603739054 1.292486622343332 0  -0.3555238599326245 1.277145231556877 0  -0.4141542698653735 1.259188127334352 0  -0.4704289345748519 1.238499367989073 0  -0.5252489567537031 1.213200764243059 0  -0.5812247188750229 1.190992514268052 0  -0.6334357807366239 1.162815659392657 0  -0.686260906978617 1.129407488221161 0  -0.7340963594686047 1.094785778839283 0  -0.7845672686928233 1.068972460383484 0  -0.836008782081456 1.030808069375384 0  -0.8727254305125398 0.9872472418336545 0  -0.9236576605186269 0.9545326117756142 0  -0.9640258953346454 0.9159834672170503 0  -1.015997588561526 0.8992619273719229 0  -1.055055267227033 0.8585906086770505 0  -1.085547943764889 0.7818157988222185 0  -1.127152037370317 0.7578950066111148 0  -1.192680012801338 0.747306257703574 0  -1.203397449904966 0.6854254520800067 0  -1.242767101554732 0.6714829297087175 0  -1.280765958234903 0.6030935114513412 0  -1.31485995653259 0.5915057220781338 0  -1.366595216556124 0.5381017054347537 0  -1.370091707764892 0.4887892432458233 0  -1.454300882810854 0.5075602592856264 0  -1.469009791552258 0.4335780074846853 0  -1.493284890207258 0.3954120957371796 0  -1.518112531150276 0.348473844747601 0  -1.54330910904547 0.3062336068924691 0  -1.555518015841385 0.2547249802730292 0  -1.577105538013369 0.2182715847302053 0  -1.561038121625175 0.1418666950899697 0  -1.594941060509355 0.1384063168035865 0  -1.608533597525442 0.08735576368249227 0  -1.574456974307537 0.03580150672137712 0  -1.565623106108164 -0.0008743794095196905 0  -1.562174132613165 -0.04332345556714581 0  -1.575339087936776 -0.07427511676511497 0  -1.553171938295008 -0.1128385847069219 0  -1.570462389259013 -0.1561217658384986 0  -1.552530770696657 -0.2067386600637794 0  -1.53072142763136 -0.2156664131667378 0  -1.557485475087127 -0.2838475054973559 0  -1.53680757087495 -0.3266042074667415 0  -1.52883286717166 -0.3835211879687563 0  -1.504067337065849 -0.4295291050908092 0  -1.480080261967145 -0.4782796558101614 0  -1.444304006632882 -0.5118434430778931 0  -1.445194750188978 -0.5839505079477161 0  -1.371892107883238 -0.6031442153263026 0  -1.342198135597651 -0.6251480836800911 0  -1.306019169830058 -0.6768098441358478 0  -1.275651017204355 -0.6938000202687012 0  -1.244585689547789 -0.7492041712425082 0  -1.20706003455973 -0.7726404160892766 0  -1.190489422425625 -0.8268122896608046 0  -1.13335086187208 -0.8444780024652604 0  -1.096465594101095 -0.8745226009632941 0  -1.07138815997182 -0.9485108485773205 0  -1.028919534200406 -0.986213658786965 0  -0.9802462562455837 -1.012947927638485 0  -0.9392411159087709 -1.05464045113685 0  -0.8961148078923052 -1.095207085664714 0  -0.852735927704386 -1.137180184991065 0  -0.7994988276888263 -1.168430230744181 0  -0.749303791057677 -1.19989334141547 0  -0.7092685683842965 -1.25394427181536 0  -0.6474673004752202 -1.280171056564649 0  -0.595246608346199 -1.306307770982811 0  -0.5387361529899397 -1.334074700285732 0  -0.4819454012981085 -1.359574930426751 0  -0.4265024789648447 -1.383889929299558 0  -0.3651172387662165 -1.402433888238706 0  -0.3064877264872935 -1.418057117375936 0  -0.24663095296764 -1.431977083360391 0  -0.1855400133901827 -1.441103716678537 0  -0.1246726910555476 -1.448186923069908 0  -0.06323005437030957 -1.451438359822446 0  -0.001778099648928225 -1.451691356825254 0  0.05961565256886668 -1.448295283748038 0  0.1209125456070245 -1.441591828370718 0  0.1812786205979292 -1.431572760032216 0  0.241282258853908 -1.419145240158881 0  0.3002549141044577 -1.403441664314365 0  0.35907391609655 -1.386234608108662 0  0.4159438681810919 -1.365192689571472 0  0.4734217310623588 -1.343282732883607 0  0.5278844714978789 -1.315548008400451 0  0.581258067172601 -1.292418475269796 0  0.6373261877655459 -1.263567088002501 0  0.6856265068097693 -1.230021726607514 0  0.7379112631830431 -1.19896864094412 0  0.7874368871905859 -1.166409487744586 0  0.8334663326329306 -1.127502757703636 0  0.8793279029072822 -1.095537212180293 0  0.9337055022023817 -1.06935040063743 0  0.9652037799681324 -1.021032055634403 0  1.009546580185016 -0.9831466068900206 0  1.05567800263351 -0.9482989623629777 0  1.093548939470782 -0.9058797030148467 0  1.132904658875088 -0.8714463937131117 0  1.17149971749687 -0.8335786680366106 0  1.211674545664367 -0.8057088257277435 0  1.235275066996541 -0.7384295471507626 0  1.273828532880433 -0.7238571945901515 0  1.329688097223896 -0.6954640831126213 0  1.344488485338234 -0.6434017211176838 0  1.38612702233752 -0.6074001054226786 0  1.418624947861784 -0.5666003638351919 0  1.446289426391313 -0.5212521540161356 0  1.480578419856105 -0.4865306589287787 0  1.494383309679224 -0.4230215397408509 0  1.52038335361802 -0.3975257564378751 0  1.556585148267417 -0.3560308135203545 0  1.56218932761262 -0.307054823127122 0  1.579184582179721 -0.2621595485113883 0  1.589508867752635 -0.2165885713443515 0  1.598807133057613 -0.1729085767688668 0  1.604701807018151 -0.1293937257650312 0  1.615047409412163 -0.08980909714010508 0  -0.1012610601256708 0.7884062399834341 0  0.5968845812219078 -0.7118119292914021 0  -0.750966196503504 -0.6192895845942915 0  -0.08113598040121255 -0.8894408995525389 0  0.5941169313240279 0.6028959979639187 0  1.152828228928435 0.1890320102917159 0  -0.7665194844715937 0.513675106799082 0  -1.235729504089184 -0.03864951025168101 0  1.156175252348665 -0.2872974598379323 0  -1.041263710631691 -0.4399491815302902 0  -0.800286802296758 -0.05733066108719299 0  -0.4767038483350265 -0.2326970586056436 0  -1.062665507249143 0.3360441667006672 0  0.2762938714932766 -0.8634476654670933 0  0.1317983347726835 -0.2961034717864066 0  0.243036537610316 0.7471684858800708 0  0.3329772294628572 0.1939372938723469 0  0.6492347140597413 -0.0491323503377863 0  -0.4163687351970637 -0.7806042879650181 0  -0.4509902796563117 0.6924330680947974 0  -0.2771694449676307 0.252657940044742 0  0.9057406415719726 -0.4861407859360099 0  0.9022819615121073 0.3833256510939315 0  0.4002237388552335 -0.3255098063681968 0  0.02610224033495449 0.2470685557608742 0  -0.5414449038867266 0.1924066212718253 0  -0.175241110508153 -0.2882359369713556 0  0.9355886531229579 -0.04940222072988124 0  1.343155400501262 -0.04737349684454793 0  0.7510764248478478 -0.5953657913734095 0  0.7687235646545715 -0.2774323001499889 0  0.6134818796045116 -0.3765563126477486 0  0.5232721294726118 -0.1829194323885849 0  0.4924358857296942 -0.5241142367053681 0  0.9137772546816088 -0.2662295900830365 0  0.7916646122665838 -0.04928096918674833 0  -0.9215795553849302 0.1501560350214254 0  -1.148616527667237 0.1466515261982353 0  -1.021994808313463 -0.0470396418001949 0  -0.9110670273625121 -0.2578700527305172 0  -1.134058360530721 -0.2366558549059262 0  -1.312553813552964 -0.3300989940887496 0  -1.384026526518472 -0.1463098058456365 0  -1.402206464933703 0.07206323954622031 0  -1.326658564808154 0.2476163770752093 0  -0.1287220549473005 -0.5886162446758141 0  -0.2883285053614405 -0.5405385971731448 0  -0.2503236349016367 -0.8412272048067321 0  -0.3252629652274147 -0.2618550578016837 0  -0.4418835267525131 -0.503818408999913 0  -1.235115809738977 -0.5129884119675677 0  -1.253075365617035 0.421590476403934 0  0.3367095646831458 -0.5915241663748874 0  0.265061044196736 -0.3125475927349704 0  0.1980294893338707 -0.5830318647777613 0  -0.9130925562028329 0.4195299202292807 0  -0.7746288956485889 0.2261419098217133 0  1.343034847492074 -0.3596355970073134 0  1.213013390470554 -0.5182701857602235 0  1.209282535393977 0.4191884055230044 0  1.338526161057709 0.2631628050514443 0  -0.7625771346449731 -0.9002529260067028 0  -0.9356895267576988 -0.7588020922073911 0  -0.9412897691179536 0.6605757017490066 0  -0.7623587995064716 0.791841152687795 0  0.7704734057541052 -0.8880653316490642 0  0.5811817657737682 -1.003665127517102 0  0.5784611493537274 0.8915112085502086 0  0.7654993634242319 0.7790128888408393 0  0.00759256458031
[...]
<PointData  Vectors="f_8082"> 
<DataArray  type="Float64"  Name="f_8082"  NumberOfComponents="3" format="ascii">1.3427295786240738e-02 2.9768407177492860e-04 0.0000000000000000e+00  -1.6172367358174386e-02 -2.0656021287476086e-03 0.0000000000000000e+00  -2.8367574283264922e-02 -4.4166626333311098e-03 0.0000000000000000e+00  8.1967925208251025e-02 1.8986035160736197e-02 0.0000000000000000e+00  1.3075126361007483e-01 3.4141550846655030e-02 0.0000000000000000e+00  5.4882274327872860e-01 1.7810616948878327e-01 0.0000000000000000e+00  9.5453168293843260e-01 1.9167283117989189e-01 0.0000000000000000e+00  -4.8823373849022789e-01 -2.5073318846680681e-01 0.0000000000000000e+00  -1.0795782346447496e+00 -1.0341130605863924e+00 0.0000000000000000e+00  6.6959082092044764e-01 2.7611076884211333e-01 0.0000000000000000e+00  -3.7024890341650701e-01 -2.4108112175771859e-01 0.0000000000000000e+00  -1.6754277737347107e+00 -1.3306015745936164e+00 0.0000000000000000e+00  -1.7462957098400280e+00 -1.2100227799628163e+00 0.0000000000000000e+00  1.0101363101783578e+00 9.5784117462844043e-01 0.0000000000000000e+00  2.3334616096690910e+00 1.5199284325722493e+00 0.0000000000000000e+00  2.9274668485056632e-01 2.3091841545918582e-01 0.0000000000000000e+00  -1.5759403494661279e+00 -3.2407648007001284e+00 0.0000000000000000e+00  2.5990812444812508e+00 1.8280064173781012e+00 0.0000000000000000e+00  9.5549895539767740e-02 8.8910417982344572e-02 0.0000000000000000e+00  4.1122974019957171e-04 4.2534924869360037e-02 0.0000000000000000e+00  -3.8592837587791462e+00 -4.1211335642401092e+00 0.0000000000000000e+00  -2.5348196637628746e+00 -3.2258619178299499e+00 0.0000000000000000e+00  -2.2109578312379643e+00 -2.3521792001537252e+00 0.0000000000000000e+00  5.4739044562657727e-02 7.6981087471499426e-02 0.0000000000000000e+00  1.0085242675613977e+00 7.8031750823315116e-01 0.0000000000000000e+00  8.2285873362668704e-01 7.9417715146888868e-01 0.0000000000000000e+00  -1.0566571973524854e+00 -2.1744128352112040e+00 0.0000000000000000e+00  4.4897082546577893e-01 5.6436161061174261e-01 0.0000000000000000e+00  -1.6322316097745385e-01 -2.2060414796357522e-01 0.0000000000000000e+00  -1.7841472179136508e-01 -2.9264611236979315e-01 0.0000000000000000e+00  1.0544474767237383e-02 1.6210672766413026e-02 0.0000000000000000e+00  -4.2197950617793523e-02 -7.4043737762622339e-02 0.0000000000000000e+00  5.9612300193220391e-02 1.2473044338595636e-01 0.0000000000000000e+00  3.7734166649850825e-02 8.0648304707622645e-02 0.0000000000000000e+00  -3.9899724401152165e-02 -9.3391349917056499e-02 0.0000000000000000e+00  -1.1796303869641932e-02 -3.4076791738284477e-02 0.0000000000000000e+00  -2.1038770880357726e-02 -6.6763138405432715e-02 0.0000000000000000e+00  -7.5120942256463180e-03 -2.9042319372805867e-02 0.0000000000000000e+00  -1.1723372410788854e-02 -5.2477923583787077e-02 0.0000000000000000e+00  -3.3176805446114353e-03 -1.9705484883220173e-02 0.0000000000000000e+00  -3.2219852211028887e-03 -2.9049019995216790e-02 0.0000000000000000e+00  -1.8076411461324963e-03 -2.5186210836265308e-02 0.0000000000000000e+00  -4.8679441908220809e-04 -2.1886723626652463e-02 0.0000000000000000e+00  6.4045953166876914e-04 -2.3375776883701269e-02 0.0000000000000000e+00  1.8574831191524046e-03 -2.2981223213696340e-02 0.0000000000000000e+00  2.4463656104291328e-03 -1.9528394187003546e-02 0.0000000000000000e+00  2.7221975678675624e-03 -1.4647450312087420e-02 0.0000000000000000e+00  6.5915036576442033e-03 -2.7639476077308239e-02 0.0000000000000000e+00  1.0353763411478997e-02 -3.6756866601946846e-02 0.0000000000000000e+00  -9.7818951327309344e-03 3.0560245016693507e-02 0.0000000000000000e+00  1.1291518982760647e-01 -2.7510300349874006e-01 0.0000000000000000e+00  2.9971694936707288e-02 -7.1699453959050571e-02 0.0000000000000000e+00  -1.2135248842562237e-01 2.5852495715983081e-01 0.0000000000000000e+00  3.5717668677038732e-02 -5.7601101839857984e-02 0.0000000000000000e+00  1.9849380807066760e-01 -2.9833616688121473e-01 0.0000000000000000e+00  4.4063811926207098e-02 -7.3470667800808978e-02 0.0000000000000000e+00  -6.8644762263196257e-01 1.1119406895360822e+00 0.0000000000000000e+00  1.7679327669510509e+00 -1.9347817560541398e+00 0.0000000000000000e+00  8.7763771261809542e-01 -1.0128032830698541e+00 0.0000000000000000e+00  7.5122715918679817e-01 -9.3245162555818950e-01 0.0000000000000000e+00  -1.0945454270963378e-01 1.4623568425243458e-01 0.0000000000000000e+00  -2.4538910560789038e+00 3.7703370813476145e+00 0.0000000000000000e+00  1.6334512941777770e+00 -1.0465322946277498e+00 0.0000000000000000e+00  1.8668917520137571e-01 -2.3539997733835266e-01 0.0000000000000000e+00  9.9346967035041378e-01 -2.1820356050228340e+00 0.0000000000000000e+00  4.9957139194966749e-01 -5.5448000740215531e-01 0.0000000000000000e+00  8.2455090245165216e-02 -5.5703762161597635e-02 0.0000000000000000e+00  -2.5517992649352594e+00 2.9655578655289814e+00 0.0000000000000000e+00  -2.9520495810518259e+00 3.6523909714417004e+00 0.0000000000000000e+00  -3.8928704260432601e+00 5.6983369299132471e+00 0.0000000000000000e+00  3.5320911391618450e+00 -1.7072757949313864e+00 0.0000000000000000e+00  1.0423455571180847e-01 5.2810194349683881e-01 0.0000000000000000e+00  -1.4040505152576106e+00 1.8173663769829669e+00 0.0000000000000000e+00  -1.6228718081716933e+00 9.2523320132716735e-01 0.0000000000000000e+00  -3.2573973572971321e-01 1.9047452681513530e-01 0.0000000000000000e+00  -4.2231924647953605e-02 2.6873968176904857e-02 0.0000000000000000e+00  4.7895464240949903e-01 -1.9889482375622747e-01 0.0000000000000000e+00  4.3151218966776927e-01 -1.6603329254278826e-01 0.0000000000000000e+00  -2.4331182982312632e-01 5.7472626021656481e-02 0.0000000000000000e+00  -5.9946537616249473e-01 3.8840412435958588e-01 0.0000000000000000e+00  -1.2817917285521502e-01 3.6942513876736173e-02 0.0000000000000000e+00  -4.3714706798460728e-01 -5.3295739016046270e-02 0.0000000000000000e+00  -3.9839932622952734e-01 -1.4997261846219548e-01 0.0000000000000000e+00  6.1038733970288474e-03 -6.0949264603091975e-03 0.0000000000000000e+00  6.5408618333457635e-01 -7.9164029193353178e-02 0.0000000000000000e+00  1.9368874254433519e-01 2.4924751672455226e-03 0.0000000000000000e+00  2.6891559982287927e-01 1.6753095836124127e-02 0.0000000000000000e+00  3.9603547416919196e-02 7.9313470303467738e-03 0.0000000000000000e+00  1.1281212104836322e-01 7.0251998021579776e-02 0.0000000000000000e+00  8.1586880064703618e-02 3.2196079835510913e-02 0.0000000000000000e+00  -9.0060376043705120e-02 -3.5635741869480034e-03 0.0000000000000000e+00  5.4662363349847420e-02 1.5879706166491519e-02 0.0000000000000000e+00  6.5466354165993335e-02 2.1966487967949876e-02 0.0000000000000000e+00  -1.1916244910180433e-01 -6.3607396676209391e-02 0.0000000000000000e+00  -2.1959873339304248e-01 -1.5022330968130410e-01 0.0000000000000000e+00  4.8261422372136861e-02 3.5318486001118699e-02 0.0000000000000000e+00  5.8914104234972120e-01 5.0125515926883846e-01 0.0000000000000000e+00  1.1568947629036059e+00 2.1083650488999126e+00 0.0000000000000000e+00  -1.5202246549937908e+00 -1.5415469982268257e+00 0.0000000000000000e+00  -1.5736755069039217e+00 -1.7059602290722242e+00 0.0000000000000000e+00  -1.5440820378834212e+00 -1.5513417627077610e+00 0.0000000000000000e+00  -8.4557169956721534e-01 -7.9771101328903715e-01 0.0000000000000000e+00  -1.0002048508536537e-02 1.0001979061576601e-02 0.0000000000000000e+00  1.8565225052312446e+00 1.9083030597789761e+00 0.0000000000000000e+00  1.5423779077285584e+00 2.4798062290401144e+00 0.0000000000000000e+00  -5.8903042996359589e-01 -3.8412715582215784e-01 0.0000000000000000e+00  3.3595640902707180e-01 1.6181608667963124e-01 0.0000000000000000e+00  -1.6830173941707223e+00 -2.2432276407209817e+00 0.0000000000000000e+00  1.6796877529833382e-01 2.3115319285514532e-01 0.0000000000000000e+00  2.3017662812351489e-01 2.3303168354647358e-01 0.0000000000000000e+00  -6.7707096800454947e-02 -6.5621075151932842e-02 0.0000000000000000e+00  3.3077352138474825e-01 4.3216891118837697e-01 0.0000000000000000e+00  2.4137828478276135e-01 4.0268440239594339e-01 0.0000000000000000e+00  -1.1308993149845545e+00 -1.2676437388337389e+00 0.0000000000000000e+00  -4.4142267704352167e-01 -5.8015356229748860e-01 0.0000000000000000e+00  3.7178424105738411e-01 8.0605079066478924e-01 0.0000000000000000e+00  -1.9791857995615201e-02 -3.7056203457789379e-02 0.0000000000000000e+00  -5.3970592284952159e-03 -9.8197891055878655e-03 0.0000000000000000e+00  -3.3708569143893852e-03 -6.6214141371160736e-03 0.0000000000000000e+00  3.6541347152369501e-02 9.7327603934642237e-02 0.0000000000000000e+00  -3.3596313539200908e-03 -1.0617549899498056e-02 0.0000000000000000e+00  9.9482911989092707e-03 4.0191668591912325e-02 0.0000000000000000e+00  3.4918403593697599e-04 5.3930776685058698e-04 0.0000000000000000e+00  2.3019373239117121e-03 1.9228999208721842e-02 0.0000000000000000e+00  3.0347997509988264e-03 3.4618444427288890e-02 0.0000000000000000e+00  5.3952298313708700e-04 2.0381760130420416e-02 0.0000000000000000e+00  -6.1563497601022175e-04 2.5098617046679532e-02 0.0000000000000000e+00  -1.7295902091749109e-03 2.0902935095902669e-02 0.0000000000000000e+00  -4.1414116083244726e-03 2.9994855429994007e-02 0.0000000000000000e+00  -5.1835489755539281e-03 2.7846057179518331e-02 0.0000000000000000e+00  -1.0904029607079339e-02 4.5874026310013208e-02 0.0000000000000000e+00  -7.9194229347085299e-03 2.8679183473677296e-02 0.0000000000000000e+00  -2.2652174356622413e-02 6.7844756302438872e-02 0.0000000000000000e+00  -1.1359189581830995e-02 3.0691116602949278e-02 0.0000000000000000e+00  -4.7350112079701002e-02 1.0706639151132499e-01 0.0000000000000000e+00  5.2284699966722234e-02 -1.1110730730657652e-01 0.0000000000000000e+00  1.0512462176526093e-01 -2.2081808069833878e-01 0.0000000000000000e+00  -2.2266221502945313e-01 3.7250237070830217e-01 0.0000000000000000e+00  9.9287962451025086e-02 -1.5429500216860251e-01 0.0000000000000000e+00  9.8596110698162501e-02 -1.5578433682846138e-01 0.0000000000000000e+00  -1.0451948282457796e-01 1.4046976458004443e-01 0.0000000000000000e+00  3.3747020173901487e-01 -4.2671385762239877e-01 0.0000000000000000e+00  -1.2045518467454066e+00 1.9624107670182700e+00 0.0000000000000000e+00  -4.0143791424328024e-01 4.7771896918805340e-01 0.0000000000000000e+00  1.5740294179715637e+00 -1.4301870616578527e+00 0.0000000000000000e+00  -4.8114388372413636e-01 6.0191121701372352e-01 0.0000000000000000e+00  -5.9860755139190391e-01 6.5412600353531225e-01 0.0000000000000000e+00  -1.8420489840017909e-01 1.9043813590884801e-01 0.0000000000000000e+00  -1.9582193760921091e-01 2.1788532333503222e-01 0.0000000000000000e+00  -1.6537302321195375e+00 1.8976647469236685e+00 0.0000000000000000e+00  -1.0269294682543220e+00 8.4819973436397678e-01 0.0000000000000000e+00  4.5510591288856039e-01 -4.6733659426042462e-01 0.0000000000000000e+00  1.4772239170604323e-01 -3.5589094395580062e-01 0.0000000000000000e+00  -1.5166015112551738e+00 1.2860152780342382e+00 0.0000000000000000e+00  6.8759306562031397e-01 -4.4867863037837158e-01 0.0000000000000000e+00  7.0978957190019865e-01 -6.4130222115190738e-01 0.0000000000000000e+00  -5.1460365822914722e-01 3.6651733621913257e-01 0.0000000000000000e+00  -8.6787851701789631e-01 6.4516335702504668e-01 0.0000000000000000e+00  -6.3364731696620280e-01 3.6162052290219443e-01 0.0000000000000000e+00  3.9395968108994411e-01 -2.2271705920027440e-01 0.0000000000000000e+00  3.4415839423621163e-02 -3.5695908101885360e-02 0.0000000000000000e+00  -7.4169574739719002e-01 3.2613915844237978e-01 0.0000000000000000e+00  3.0130181752763219e-01 -6.7749740276234802e-02 0.0000000000000000e+00  1.6167763563388909e-01 -4.6154400308980492e-02 0.0000000000000000e+00  4.9952535943153312e-02 -1.1198675282294474e-02 0.0000000000000000e+00  2.1887194073590306e-02 -3.8316168509588844e-03 0.0000000000000000e+00  -6.2864036482028355e-03 1.1320427937405318e-03 0.0000000000000000e+00  8.0029535068144017e-02 -1.3074461740100293e-02 0.0000000000000000e+00  1.4141064704556822e-09 -1.8497190111336626e-08 0.0000000000000000e+00  -2.8781771943864959e-08 4.9925377262070760e-08 0.0000000000000000e+00  -8.1444733621942514e-08 -1.1256280673826179e-07 0.0000000000000000e+00  1.3548671374352005e-09 1.8153127929126637e-08 0.0000000000000000e+00  -3.2924883981543709e-08 -7.7311881550869071e-08 0.0000000000000000e+00  -3.3260777859447345e-07 -2.3636535079996821e-07 0.0000000000000000e+00  -7.8168769040212624e-08 1.8814046182059493e-07 0.0000000000000000e+00  1.2772399394932797e-07 -2.0919684424611522e-08 0.0000000000000000e+00  -1.1246882743592760e-07 7.4957939752719064e-08 0.0000000000000000e+00  -3.9111507660418559e-07 -3.8373126807388468e-07 0.0000000000000000e+00  1.7486746999198808e-13 5.7420076797144316e-13 0.0000000000000000e+00  -5.8692337522230844e-14 -2.8870424304025712e-14 0.0000000000000000e+00  -7.7002295479890780e-07 1.0181996940933405e-06 0.0000000000000000e+00  -9.5207329986732790e-09 2.9376245698381153e-08 0.0000000000000000e+00  -4.1275414477345735e-15 2.8643592100812134e-14 0.0000000000000000e+00  -8.4640598356418260e-09 -2.7896774027530323e-08 0.0000000000000000e+00  -8.8715212079965000e-16 -4.4444805343032803e-16 0.0000000000000000e+00  4.2921281572979120e-14 -5.7560123237158958e-14 0.0000000000000000e+00  -6.7457491485269244e-09 1.2051017642018623e-08 0.0000000000000000e+00  -1.0475092706132809e-08 2.6882787250882938e-08 0.0000000000000000e+00  9.9632460752843980e-15 -3.0376188196435356e-14 0.0000000000000000e+00  -2.1925764478358329e-07 2.3455233940716758e-07 0.0000000000000000e+00  -1.0834108995432752e-06 -1.2108912447227200e-06 0.0000000000000000e+00  -5.7407771969793339e-15 2.9180273140752352e-15 0.0000000000000000e+00  -3.3689052868292980e-15 -2.6763810356428192e-14 0.0000000000000000e+00  1.8713925904091286e-13 -1.3752542611271300e-13 0.0000000000000000e+00  7.2269995364151165e-15 2.4566265384762562e-14 0.0000000000000000e+00  -1.2233918933670025e-13 3.1298688665304511e-14 0.0000000000000000e+00  1.2740910906095199e-07 1.4137484433820275e-08 0.0000000000000000e+00  1.4374484594485063e-07 -8.8346866745322681e-08 0.0000000000000000e+00  -1.6153231795935645e-10 1.9754886960455254e-10 0.0000000000000000e+00  -1.9937076613532633e-10 3.4016426569259974e-10 0.0000000000000000e+00  -3.2262394841189114e-14 6.1825430277893270e-14 0.0000000000000000e+00  2.7858769728199470e-12 -1.8798695339268717e-12 0.0000000000000000e+00  -3.3467847185413851e-10 3.2203807084034772e-10 0.0000000000000000e+00  -1.2681772540799942e-12 -8.2843105400906345e-13 0.0000000000000000e+00  -2.2911692962836862e-10 6.2273137856930017e-10 0.0000000000000000e+00  -2.1712298881967218e-07 2.9526996622019204e-07 0.0000000000000000e+00  -1.0796664929502795e-10 1.2040512706289823e-10 0.0000000000000000e+00  -1.4180533017463052e-10 -7.1073026882490427e-11 0.0000000000000000e+00  1.0359084035020639e-07 1.3254532913938354e-07 0.0000000000000000e+00  -1.2891284448067359e-05 -3.7453452032987448e-06 0.0000000000000000e+00  6.2583238900765049e-05 2.4028843852541005e-06 0.0000000000000000e+00  -1.4988633876486906e-04 -1.2317236498307528e-05 0.0000000000000000e+00  -1.0377057462458384e-04 8.9759646655001918e-05 0.0000000000000000e+00  3.0405758580023872e-12 1.6019714460285812e-11 0.0000000000000000e+00  1.3218588796972264e-12 1.1283199915153567e-11 0.0000000000000000e+00  5.6485036995117083e-09 1.7998928821357511e-08 0.0000000000000000e+00  -6.4235636546887959e-15 3.0219793731254933e-14 0.0000000000000000e+00  -1.2483637840486512e-10 -1.0168362230670579e-10 0.0000000000000000e+00  -2.4629527288518136e-04 -2.3690647791897994e-04 0.0000000000000000e+00  3.0136110764649820e-04 8.0308441952770500e-05 0.0000000000000000e+00  -1.0099855451610301e-11 2.4525237424200405e-11 0.0000000000000000e+00  -1.1381063424074606e-14 3.5151005662160809e-14 0.0000000000000000e+00  -7.0639027420326183e-12 2.9453520200009411e-11 0.0000000000000000e+00  1.4876273025234469e-07 -2.4756826416483969e-07 0.0000000000000000e+00  7.9694438850285397e-11 1.6990756927151738e-10 0.0000000000000000e+00  -1.5248537647099354e-04 9.1617482511158931e-05 0.0000000000000000e+00  6.4875592394880808e-05 -3.3003340287302150e-05 0.0000000000000000e+00  2.7104451401354111e-04 1.5107015006471242e-04 0.0000000000000000e+00  -1.3822577026347194e-04 -1.0619678524517498e-04 0.0000000000000000e+00  -2.6518502481272299e-05 -2.1886195264762432e-05 0.0000000000000000e+00  6.1547816421973130e-05 8.3657654777617135e-06 0.0000000000000000e+00  3.2576877044717691e-04 -1.2240629347451585e-04 0.0000000000000000e+00  2.2005804541505439e-04 -2.3723889176272892e-04 0.0000000000000000e+00  -2.6006722980996105e-04 4.3203187929497438e-04 0.0000000000000000e+00  1.7896886844529514e-05 -2.7911866038658523e-05 0.0000000000000000e+00  -6.2407908437210016e-06 -1.0795558117678695e-05 0.0000000000000000e+00  -1.6801351940670363e-04 -4.2016925955540475e-04 0.0000000000000000e+00  -4.3404430160044019e-07 1.5602559421773598e-05 0.0000000000000000e+00  1.7870114162794477e-06 9.9035996235332618e-06 0.0000000000000000e+00  2.6050587990383363e-06 -1.3581585987878652e-05 0.0000000000000000e+00  -4.0088364440255321e-07 -1.5936152788612608e-05 0.0000000000000000e+00  3.2125524972659489e-09 -1.3479110648811777e-08 0.0000000000000000e+00  -2.8110098774886131e-14 -9.3737827075957201e-14 0.0000000000000000e+00  -4.8988300995488543e-11 -2.2433249046391868e-10 0.0000000000000000e+00  -1.7484351475476084e-11 -3.3573520004581485e-11 0.0000000000000000e+00  -9.3848340722959793e-12 -2.1503964718593982e-12 0.0000000000000000e+00  -1.2738617509051033e-13 -1.8051853957222111e-13 0.0000000000000000e+00  -5.6458432111164529e-11 -1.1481700142247578e-10 0.0000000000000000e+00  -9.9193727550659350e-15 -3.2861754624278776e-14 0.0000000000000000e+00  -8.5172840044242557e-18 -6.7458261203074483e-18 0.0000000000000000e+00  -1.6725601926262089e-17 1.0133336570482073e-17 0.0000000000000000e+00  3.6698866175713531e-05 7.4118005625184696e-05 0.0000000000000000e+00  -1.1389810679672659e-04 1.2674421045627988e-04 0.0000000000000000e+00  2.8977374858402792e-07 3.9880461184382544e-07 0.0000000000000000e+00  -7.0847056790115016e-10 -8.1680579715722580e-10 0.0000000000000000e+00  8.7056281956907503e-08 2.3250526744519579e-08 0.0000000000000000e+00  -4.7948883772491361e-11 -1.4844981401200515e-10 0.0000000000000000e+00  -8.0946408276234623e-12 -2.2179094088776424e-11 0.0000000000000000e+00  4.6091251702626662e-09 1.0929921287679357e-08 0.0000000000000000e+00  -6.2041787812903481e-13 2.0277107444458652e-11 0.0000000000000000e+00  -2.7667246177700522e-09 1.9517383555034374e-08 0.0000000000000000e+00  2.5594203113938134e-11 -6.2394512244478734e-11 0.0000000000000000e+00  3.7781821384273518e-12 -1.9420891753006076e-11 0.0000000000000000e+00  6.7563506916644112e-09 -2.1398804286474496e-08 0.0000000000000000e+00  -4.3329629833035665e-17 -1.9033538514290299e-17 0.0000000000000000e+00  1.7069053789196497e-15 2.2937908194224364e-14 0.0000000000000000e+00  -1.2513883300337486e-05 3.0062983641988704e-05 0.0000000000000000e+00  -5.2230769681586403e-06 2.1950944519890978e-05 0.0000000000000000e+00  -5.2347028907399893e-06 -2.3258145416659677e-05 0.0000000000000000e+00  -1.0443052102219721e-05 -2.6739980026497112e-05 0.0000000000000000e+00  3.3234339066394223e-18 -4.8538955500432773e-18 0.0000000000000000e+00  -6.3311556933134280e-12 -2.8106054934013736e-11 0.0000000000000000e+00  -2.5464857364472845e-09 -2.0925847658393875e-08 0.0000000000000000e+00  -6.7527287613556465e-06 -1.1785634633676037e-05 0.0000000000000000e+00  -1.0723680699821061e-04 -1.0659598536927738e-04 0.0000000000000000e+00  -1.1483820370533963e-08 2.1247555481248323e-08 0.0000000000000000e+00  4.7941551172083825e-05 -6.6081713732182154e-05 0.0000000000000000e+00  2.6621808439530375e-05 -6.5933996037222760e-05 0.0000000000000000e+00  3.9802234035776345e-08 2.5336533169227221e-08 0.0000000000000000e+00  -8.4339887718871852e-14 2.5010681959155612e-13 0.00000000000000