<?xml version="1.0"?>
<VTKFile type="UnstructuredGrid"  version="0.1"  >
<UnstructuredGrid>
<Piece  NumberOfPoints="2549" NumberOfCells="4928">
<Points>
<DataArray  type="Float64"  NumberOfComponents="3"  format="ascii">1.638558671091573 -0.03762025468613885 0  1.635482954602385 0.009943489387005322 0  1.628752580004579 0.0570059785068876 0  1.620437238900468 0.1041924821674177 0  1.609113988451674 0.1510458579301534 0  1.595538826524625 0.1977588819682625 0  1.578597031643918 0.243785743159977 0  1.560169973937267 0.2896514412643865 0  1.536078466901081 0.3329130902928052 0  1.510745542433737 0.3745882660514934 0  1.487422995649022 0.4208706043703923 0  1.458759548917424 0.4628110213743892 0  1.429585269382552 0.5051659714862479 0  1.398410179648637 0.5462118521032895 0  1.365674423365059 0.5865367344866438 0  1.331432180669609 0.625847006564366 0  1.295311869702383 0.6634667055311567 0  1.25911263236719 0.6997613435466358 0  1.22284238339307 0.7406661292357078 0  1.184418342112113 0.7781513064324532 0  1.145429226713576 0.8164926994483067 0  1.105138855426664 0.8538347287129113 0  1.064017873330388 0.8912047699628859 0  1.021353323837085 0.9275493093354813 0  0.9771906052283517 0.9625835599986521 0  0.932402780979619 0.9961071514440977 0  0.8863122476881279 1.029188008422621 0  0.8391649324954433 1.061381691124242 0  0.7910190280481243 1.092805268924919 0  0.7417249798827568 1.122978042513433 0  0.6913721586897882 1.151922952324888 0  0.6399702540731061 1.179445360528532 0  0.5873280975112996 1.20491708788623 0  0.5338313483734579 1.228515160942734 0  0.4794063322019539 1.250618730328872 0  0.424004247246403 1.270374337971986 0  0.367813173435557 1.288028388354665 0  0.3108543511777438 1.303263857648649 0  0.2532425210438617 1.316055514159985 0  0.195099732649499 1.326319434178859 0  0.1364536619117353 1.333666001465608 0  0.07760314990745615 1.338318215830686 0  0.01855710488229884 1.340483582750664 0  -0.0405194440841002 1.339775252741526 0  -0.09951074930780318 1.336300155052337 0  -0.1582592919920128 1.329969288639235 0  -0.2166412112937597 1.320905651657684 0  -0.2744943956406189 1.308932591111857 0  -0.3317127941841851 1.294587163537817 0  -0.3882999531844714 1.277575153686785 0  -0.4438696483084123 1.257696155149682 0  -0.4984892773478507 1.235463022677145 0  -0.5521169354232238 1.211187179026663 0  -0.6045249621359688 1.184680355008052 0  -0.6560244482174831 1.156865538968177 0  -0.70605387174644 1.126696107060204 0  -0.7549711591049185 1.09625015404879 0  -0.8030830508024733 1.064204269577718 0  -0.8494435928795991 1.030098801236929 0  -0.8945164561461096 0.9949957024166159 0  -0.9385523020888558 0.9594751321512699 0  -0.9810989633308145 0.922769860453228 0  -1.023141372002507 0.8867930307797406 0  -1.062355201293524 0.8468896292114338 0  -1.101588897031793 0.8112797635680323 0  -1.140315432168997 0.7755310616852186 0  -1.17770435930535 0.7385964978198912 0  -1.214415234633925 0.7021957135660575 0  -1.249864707967736 0.6649385363227378 0  -1.284949567559123 0.6294316338132774 0  -1.319796584043294 0.5927326523445908 0  -1.354396098588828 0.5593182701864587 0  -1.389416957262571 0.5223753292376273 0  -1.413230428408888 0.4756301862280697 0  -1.446183317270562 0.4342137272757975 0  -1.471827938079588 0.3893988029638814 0  -1.495072115670423 0.343121427675561 0  -1.511673036300924 0.2940192014333535 0  -1.530164031066074 0.2469217730710154 0  -1.530729801708379 0.1925468829331194 0  -1.545528692746999 0.1483297351801002 0  -1.557353854660545 0.1016510998303605 0  -1.550054526250648 0.05373764350555351 0  -1.554623634673773 0.007532971867692211 0  -1.553741942165811 -0.03840225853193785 0  -1.555792418158395 -0.08432286915211984 0  -1.553038467412756 -0.1307555489532143 0  -1.55829919154902 -0.1791337738904366 0  -1.54866108219743 -0.2262447506013749 0  -1.535696235439647 -0.271186321510586 0  -1.535190412593312 -0.3264545672303464 0  -1.517779274265806 -0.3742561806880921 0  -1.501538750980516 -0.424060879254621 0  -1.478401335807599 -0.4705773664895839 0  -1.452757384994093 -0.5156184153021087 0  -1.4207364048468 -0.5573011529601823 0  -1.396277381386635 -0.6039326028071598 0  -1.360821789913931 -0.6408972847000581 0  -1.326337251764082 -0.6747965338833639 0  -1.291277718735304 -0.711408580642091 0  -1.256145620231506 -0.7469961097927058 0  -1.220834945495334 -0.7845881024394433 0  -1.184330234593232 -0.8214733205979662 0  -1.147176891744097 -0.8590246553442358 0  -1.10875532909493 -0.8955027876046564 0  -1.069629601971072 -0.9319814644106578 0  -1.031253266039731 -0.974206478944873 0  -0.9891613448167864 -1.011390678545365 0  -0.9467040550149179 -1.049555304969121 0  -0.9027427313749464 -1.086684036072102 0  -0.8576864620625064 -1.123404361418655 0  -0.8112009691667896 -1.159087112295385 0  -0.7632688770130696 -1.19324943360837 0  -0.7139558354496428 -1.226221614525702 0  -0.6642134332318141 -1.260329540227069 0  -0.6119446767617422 -1.290209108800937 0  -0.5590729020306723 -1.318959583131953 0  -0.5047873839423088 -1.34521573055533 0  -0.4494699249607605 -1.369279022692237 0  -0.3932178972349001 -1.390976615929385 0  -0.3356282398240595 -1.409098525694286 0  -0.277491921268451 -1.424297458017582 0  -0.2186840489345795 -1.437263634711981 0  -0.1592551855956595 -1.446997346683863 0  -0.09941522865782493 -1.453825495134933 0  -0.03928183118585642 -1.457496011932002 0  0.02097012789418523 -1.458061508331992 0  0.08118261410702239 -1.455422676726588 0  0.1411865684439857 -1.449592150323144 0  0.2007591222882275 -1.440784506630031 0  0.2598322389098806 -1.429293573355244 0  0.3182685036790243 -1.415078166551932 0  0.3759902223721094 -1.398358516502126 0  0.4328345682270555 -1.379092106472382 0  0.488846618145211 -1.357843672549569 0  0.5437443140246728 -1.334003387492988 0  0.5976440615334506 -1.309191535417323 0  0.6508140270842701 -1.282372017450313 0  0.7024282212114084 -1.253010456483231 0  0.7530067522044226 -1.222406569954099 0  0.802422001243363 -1.190592563996988 0  0.8506462038692457 -1.157613913771411 0  0.897797845820257 -1.123907362784109 0  0.9438407578549227 -1.089421201884027 0  0.9885471530545766 -1.054612094855619 0  1.03260508546066 -1.018296452266304 0  1.075106494802548 -0.9806787331166607 0  1.116049941941117 -0.9421562975297019 0  1.156100475645073 -0.9036563122190504 0  1.194809340945444 -0.8641910118110163 0  1.232980597678983 -0.8257164791981262 0  1.268807182351495 -0.7836180828848047 0  1.304664171334758 -0.7465492379745777 0  1.340604149842914 -0.7083730396943581 0  1.374471196495601 -0.6682800523606101 0  1.406899313526581 -0.6273402440536999 0  1.437753236933595 -0.5856821778388724 0  1.466582716329567 -0.5427146515470807 0  1.494816264795153 -0.5001655918849608 0  1.51777905846052 -0.4533031600268008 0  1.542742918748059 -0.4111976512489 0  1.566351440403722 -0.3674264868122772 0  1.58421680328731 -0.3210274465371198 0  1.600471599169737 -0.2745149823244446 0  1.613319625955057 -0.2273461616274039 0  1.623681794082863 -0.1800504265028761 0  1.631060726193848 -0.132559115776953 0  1.636574286750736 -0.08524024303141527 0  -0.08083231081787744 0.8001141801060333 0  0.6187957830435282 -0.7191090929887411 0  -0.7274729151823988 -0.6294615958852523 0  -0.05694990612244537 -0.8903791041088026 0  0.6145076273848611 0.6234570260381185 0  1.166886349976378 0.2040200293867973 0  -0.7400512155159541 0.5297142141756952 0  -1.210309751209083 -0.04315914931738455 0  1.171109499031765 -0.2864130061729683 0  -1.015883508934439 -0.4548762398367826 0  -0.7767199467730403 -0.0579950917270915 0  -0.45593762547975 -0.2323027310515823 0  -1.026443517292302 0.3496154213645065 0  0.2990525072034122 -0.8675272036002865 0  0.154192400839057 -0.2931289596102405 0  0.2625311699294622 0.7617452244153553 0  0.3546883825765151 0.2036056183065607 0  0.6695050228338758 -0.04233026116285118 0  -0.3920061231952774 -0.7827293876376584 0  -0.4287809866390446 0.7052075320243727 0  -0.2560331013467227 0.259634300399548 0  0.9245704320360554 -0.4924925347388664 0  0.9203866612808737 0.4062303428881254 0  0.4224611030787661 -0.3240641375996515 0  0.04754844692224988 0.2550578396842144 0  -0.5192876343595836 0.1986039998910966 0  -0.1537440730661065 -0.2854855471851238 0  0.9530115323689589 -0.04193424841812286 0  1.360337105989881 -0.03957572275874768 0  0.7720141671222405 -0.6029128567182734 0  0.7882967366834071 -0.2768721110834577 0  0.6347404630394698 -0.3776003128678795 0  0.5446382458514059 -0.1793057617217721 0  0.5147535009625711 -0.5267965182855509 0  0.9316788881848801 -0.265626514666489 0  0.810582334596846 -0.04210975213115575 0  -0.8931591564972637 0.1551046352697152 0  -1.113921228690087 0.1491937465648633 0  -0.9955933706415262 -0.04967124112159333 0  -0.8877708751079196 -0.2651050711955769 0  -1.109164577172244 -0.2441093683872562 0  -1.283980871474254 -0.3365062344260987 0  -1.371674389189234 -0.1527315438176842 0  -1.369649524447673 0.07043642653498466 0  -1.27955824284215 0.2529151982234639 0  -0.1059372012857396 -0.5875653783313254 0  -0.2661685122651846 -0.5400433152055921 0  -0.2258048565538787 -0.8419266203938101 0  -0.3043009153794423 -0.2599846013788842 0  -0.4202467663359942 -0.5051358250599682 0  -1.202682838569117 -0.5337131057401863 0  -1.204175550489142 0.4418886185562821 0  0.359589726239579 -0.5933306719389932 0  0.287535792059143 -0.3102108347398778 0  0.2210877567446732 -0.5833276728563532 0  -0.8826779794365841 0.4354758072377256 0  -0.7489030290316178 0.2337350349291061 0  1.354632103372348 -0.3594034180104844 0  1.226131781047001 -0.5243633000730915 0  1.219365072244887 0.4417777584034422 0  1.349163601039292 0.2793007480323167 0  -0.7329742385041663 -0.9128490732005108 0  -0.9075942457353748 -0.7777644547906829 0  -0.9105797069228603 0.6855313996346313 0  -0.7364933404791572 0.8139712430142363 0  0.7904205883819907 -0.9015765891824691 0  0.6010413429731278 -1.014478290892211 0  0.5942395243199364 0.9150553336779773 0  0.7830421808198023 0.8077947436813726 0  0.0314753282239755
[...]
<PointData  Vectors="f_13693"> 
<DataArray  type="Float64"  Name="f_13693"  NumberOfComponents="3" format="ascii">4.4761519368239210e-02 5.3375430207263763e-04 0.0000000000000000e+00  5.2357066586138312e-02 5.4306173915794950e-03 0.0000000000000000e+00  4.8953108267664233e-02 7.7983592280266118e-03 0.0000000000000000e+00  5.5041943962421153e-02 1.1561555616682173e-02 0.0000000000000000e+00  5.5539953435976598e-02 1.4708394510353719e-02 0.0000000000000000e+00  7.1584780195620423e-02 2.3764087998579427e-02 0.0000000000000000e+00  5.1788813427314916e-02 1.9383776299600100e-02 0.0000000000000000e+00  2.6495202411469264e-02 1.3527782173515985e-02 0.0000000000000000e+00  1.3450530421313228e-01 7.6787640860714865e-02 0.0000000000000000e+00  9.8953901253268986e-02 5.5202356951495161e-02 0.0000000000000000e+00  -1.5847989839124527e-02 -9.4609908193547584e-03 0.0000000000000000e+00  1.2336216169350723e-02 8.5017235056387540e-03 0.0000000000000000e+00  3.0454934134431493e-02 2.2259782704167785e-02 0.0000000000000000e+00  8.0010123391388091e-02 6.2890352380730138e-02 0.0000000000000000e+00  6.7435179878544971e-02 5.6763445194566740e-02 0.0000000000000000e+00  8.3492918263932334e-02 7.6378832309542344e-02 0.0000000000000000e+00  8.0046607799592481e-02 7.7541496857696568e-02 0.0000000000000000e+00  2.1748328766100302e-02 2.0567506174676519e-02 0.0000000000000000e+00  -3.5207962212245075e-03 -3.5328782035330985e-03 0.0000000000000000e+00  -1.6998287852587418e-02 -1.7180803777295549e-02 0.0000000000000000e+00  4.1256082097160703e-03 4.3531485665842798e-03 0.0000000000000000e+00  1.1110553083281755e-02 1.2120555485045321e-02 0.0000000000000000e+00  3.6824030427997944e-03 4.2648596011558371e-03 0.0000000000000000e+00  3.5608645642918338e-02 4.3409447292068151e-02 0.0000000000000000e+00  2.7231210069543349e-02 3.5191529303272823e-02 0.0000000000000000e+00  1.3844637812377920e-02 1.8843007473205938e-02 0.0000000000000000e+00  6.2966337112431922e-03 8.9726276533114852e-03 0.0000000000000000e+00  -1.8003211424152616e-03 -2.7375152633627728e-03 0.0000000000000000e+00  -7.5260163231800460e-03 -1.1913661851933276e-02 0.0000000000000000e+00  -8.2661721669064544e-03 -1.3963153542368557e-02 0.0000000000000000e+00  -1.6971590699547984e-02 -3.0697453591946592e-02 0.0000000000000000e+00  -1.6794807377987050e-02 -3.2871523400003842e-02 0.0000000000000000e+00  -7.8977772903540931e-03 -1.7070512591102281e-02 0.0000000000000000e+00  -1.4661507252429731e-02 -3.4777932476053333e-02 0.0000000000000000e+00  -1.6278399348878505e-02 -4.2649191955891910e-02 0.0000000000000000e+00  -1.2441608894236978e-02 -3.7189687487300754e-02 0.0000000000000000e+00  -1.3034989887952047e-02 -4.4815226522882286e-02 0.0000000000000000e+00  -9.6303338701931897e-03 -3.9348366068776293e-02 0.0000000000000000e+00  -8.5009250916727227e-03 -4.2724007503075416e-02 0.0000000000000000e+00  -5.5981032219921383e-03 -3.6895600346644263e-02 0.0000000000000000e+00  -3.3023400671422505e-03 -3.2266323452525988e-02 0.0000000000000000e+00  -1.7693406775292425e-03 -3.0408169440714266e-02 0.0000000000000000e+00  -3.5627320919633907e-04 -2.9319708295909363e-02 0.0000000000000000e+00  9.8728527378383292e-04 -2.8087301798071746e-02 0.0000000000000000e+00  2.3010212278888743e-03 -2.7538023565428667e-02 0.0000000000000000e+00  3.2845783182754986e-03 -2.5043453568018053e-02 0.0000000000000000e+00  5.1686911569324163e-03 -2.8430119497016567e-02 0.0000000000000000e+00  5.9918122272793447e-03 -2.6295434491166076e-02 0.0000000000000000e+00  5.3217169514253680e-03 -1.9238796551364158e-02 0.0000000000000000e+00  1.2994158737686079e-02 -3.9200792517424796e-02 0.0000000000000000e+00  1.9181253890610313e-02 -5.0328634529839163e-02 0.0000000000000000e+00  1.2708285137644616e-02 -2.9641603478455472e-02 0.0000000000000000e+00  2.3865218068476256e-02 -4.9754535169634281e-02 0.0000000000000000e+00  1.0302508606100179e-02 -1.9951555015994760e-02 0.0000000000000000e+00  1.8030961238230146e-02 -3.1413595121118486e-02 0.0000000000000000e+00  8.5700936202931718e-03 -1.4210647014227038e-02 0.0000000000000000e+00  -1.2732066267316633e-02 1.9694894676549859e-02 0.0000000000000000e+00  6.8462061142795941e-03 -9.5423893884729813e-03 0.0000000000000000e+00  2.3282643041754141e-02 -3.0894551678795828e-02 0.0000000000000000e+00  -1.5442299263114993e-03 1.9395993052742505e-03 0.0000000000000000e+00  3.1875536505764843e-02 -3.8149343373732353e-02 0.0000000000000000e+00  3.1260315502401999e-02 -3.6213771640043774e-02 0.0000000000000000e+00  5.6184759907470037e-02 -6.0519439062941389e-02 0.0000000000000000e+00  -1.1577040540650262e-01 1.2109161901238959e-01 0.0000000000000000e+00  -2.6410115414224718e-02 2.8401849415592206e-02 0.0000000000000000e+00  -6.1582326926719619e-03 6.4352858576523847e-03 0.0000000000000000e+00  -9.2785933898608761e-03 9.4295416584859303e-03 0.0000000000000000e+00  -2.0764970284569917e-02 2.0310943350465509e-02 0.0000000000000000e+00  7.7026468766662488e-03 -7.4269370930689933e-03 0.0000000000000000e+00  -3.1561595961437851e-02 3.0823893522932772e-02 0.0000000000000000e+00  -7.4624532267080186e-03 7.0554677807925219e-03 0.0000000000000000e+00  -2.1376837856629996e-01 2.1278890612664295e-01 0.0000000000000000e+00  8.1718426414722445e-01 -5.8071089927258879e-01 0.0000000000000000e+00  -3.5817112807185736e-01 2.3023810295658229e-01 0.0000000000000000e+00  -7.8024324480145746e-01 5.1928893887951522e-01 0.0000000000000000e+00  -1.2953406698527292e-01 7.0529836412712779e-02 0.0000000000000000e+00  2.9582006791209172e-02 -9.8398927468179229e-03 0.0000000000000000e+00  2.2383210188863339e-01 -7.9472440671150946e-02 0.0000000000000000e+00  3.6413052354979669e-01 -7.4291649969150830e-02 0.0000000000000000e+00  -2.7281285800637639e-01 4.9070491904031906e-02 0.0000000000000000e+00  -1.1685052040840462e-01 3.2976514618797921e-02 0.0000000000000000e+00  4.4641484024030947e-01 -2.3505192349091920e-02 0.0000000000000000e+00  -1.2222071334044712e-01 -4.1465187570306223e-03 0.0000000000000000e+00  -8.9031600281889570e-02 2.5717316013688283e-03 0.0000000000000000e+00  -4.2776231443134090e-02 6.1247808744604570e-04 0.0000000000000000e+00  -3.1715708746508406e-02 -4.2127433406762829e-05 0.0000000000000000e+00  -3.7567938855392578e-02 2.1460540561621423e-03 0.0000000000000000e+00  2.9772648667540830e-01 1.4620329084277897e-02 0.0000000000000000e+00  -1.0204841453695847e-01 -2.3789236646418854e-02 0.0000000000000000e+00  -2.2479960549014988e-01 -3.4884376680059261e-02 0.0000000000000000e+00  2.5911082769097177e-01 4.8582844023779340e-02 0.0000000000000000e+00  1.1973676578198589e-01 4.0739803862033352e-02 0.0000000000000000e+00  1.6826929839182606e-03 -1.8118528768642575e-03 0.0000000000000000e+00  -1.3289642612654737e-01 -7.0887138462680854e-02 0.0000000000000000e+00  -6.3451971604224822e-01 -4.1457908219909079e-01 0.0000000000000000e+00  -3.1630896040365714e-01 -2.0141413853338191e-01 0.0000000000000000e+00  5.9781685584899458e-01 4.3030329832851305e-01 0.0000000000000000e+00  -9.6105366836979456e-02 -9.5346812217874430e-02 0.0000000000000000e+00  -2.1474410437332978e-02 -2.1008157852471274e-02 0.0000000000000000e+00  -2.7574697906062026e-02 -2.6997594946847964e-02 0.0000000000000000e+00  1.6440078733257420e-02 1.5875066675089790e-02 0.0000000000000000e+00  -1.4211686630819469e-02 -1.3691018162145883e-02 0.0000000000000000e+00  -3.6052322476578373e-03 -3.5939715489815304e-03 0.0000000000000000e+00  5.1950246105861289e-03 5.2846188739166227e-03 0.0000000000000000e+00  -3.6452499710998600e-02 -3.7784573114216014e-02 0.0000000000000000e+00  -2.0861012159848177e-01 -2.0725297332864398e-01 0.0000000000000000e+00  1.4039247493055962e-01 1.4327780528334461e-01 0.0000000000000000e+00  6.0385293279429167e-02 6.7101738138752864e-02 0.0000000000000000e+00  4.0607449195923684e-02 4.6511511776135460e-02 0.0000000000000000e+00  1.4817763812211536e-03 1.8335529978148277e-03 0.0000000000000000e+00  1.9772552626477969e-02 2.5031724719902788e-02 0.0000000000000000e+00  1.8128112928803067e-02 2.4458365550020351e-02 0.0000000000000000e+00  -1.5781566207649266e-02 -2.2913554523173233e-02 0.0000000000000000e+00  -1.9723640748676254e-02 -2.8466634423069469e-02 0.0000000000000000e+00  8.7346579880332148e-02 1.3885853468565143e-01 0.0000000000000000e+00  1.4704152669382046e-02 2.6874572049671735e-02 0.0000000000000000e+00  5.1201766658830417e-02 9.9495574465893161e-02 0.0000000000000000e+00  1.7759880423342412e-02 3.8758882117214198e-02 0.0000000000000000e+00  3.3282644109526506e-02 8.1674146040826581e-02 0.0000000000000000e+00  2.4501360826754706e-02 6.9270084652746200e-02 0.0000000000000000e+00  4.2922628566732686e-03 1.4778007170720003e-02 0.0000000000000000e+00  7.7511232409686950e-03 3.2403324550743698e-02 0.0000000000000000e+00  7.1251655960456878e-03 3.6910877231199554e-02 0.0000000000000000e+00  3.8689563901430335e-03 2.7919042086938864e-02 0.0000000000000000e+00  2.6657751286441457e-03 3.0258682053785148e-02 0.0000000000000000e+00  9.2434264964372692e-04 2.6194211428160672e-02 0.0000000000000000e+00  -4.5707267173775704e-04 2.6840725614903416e-02 0.0000000000000000e+00  -1.8093002917852999e-03 2.5590367520628890e-02 0.0000000000000000e+00  -4.0549372357997710e-03 3.2971993909235685e-02 0.0000000000000000e+00  -5.9223199965540785e-03 3.4625204226156066e-02 0.0000000000000000e+00  -8.4389807432487824e-03 3.8507551668037092e-02 0.0000000000000000e+00  -9.8120788689446282e-03 3.6863051149914554e-02 0.0000000000000000e+00  -1.4241716658590297e-02 4.5279265009694654e-02 0.0000000000000000e+00  -1.1840428102820086e-02 3.3110296161971184e-02 0.0000000000000000e+00  -1.8276012718270711e-02 4.4862457874502874e-02 0.0000000000000000e+00  -1.3552718166756537e-02 3.0529395324576623e-02 0.0000000000000000e+00  -1.5627405897479468e-03 3.2069930606136790e-03 0.0000000000000000e+00  -2.6781215263538622e-02 4.9676970443988007e-02 0.0000000000000000e+00  -2.3130967174765097e-02 3.9700599111099105e-02 0.0000000000000000e+00  -1.1506772933830678e-02 1.8428817230043030e-02 0.0000000000000000e+00  -1.2457590147690906e-02 1.8807710311468915e-02 0.0000000000000000e+00  -4.7163782801649661e-03 6.7800609360350213e-03 0.0000000000000000e+00  2.3169450342266358e-03 -3.1425826946373490e-03 0.0000000000000000e+00  1.0940271990674908e-02 -1.4278867229423991e-02 0.0000000000000000e+00  2.5908448690004606e-02 -3.2201093090140132e-02 0.0000000000000000e+00  3.2225061652857545e-02 -3.7826568189816549e-02 0.0000000000000000e+00  1.7622473429606967e-03 -1.9892039415738932e-03 0.0000000000000000e+00  1.1603488922136735e-02 -1.2218987417480294e-02 0.0000000000000000e+00  -1.2666513387953695e-03 1.2467684310231428e-03 0.0000000000000000e+00  -2.4273673217207452e-02 2.3733944744540957e-02 0.0000000000000000e+00  -1.0730111687076880e-02 1.0081210541236117e-02 0.0000000000000000e+00  4.3390807923077875e-02 -3.9557018594462687e-02 0.0000000000000000e+00  6.1154765068435382e-02 -5.7631222589015298e-02 0.0000000000000000e+00  8.7061331922072799e-02 -7.7660473757818121e-02 0.0000000000000000e+00  6.1515095339176783e-02 -5.0356934149882210e-02 0.0000000000000000e+00  8.0249073488539741e-02 -6.1531392624274941e-02 0.0000000000000000e+00  3.1134357817746743e-02 -2.2147748551249388e-02 0.0000000000000000e+00  1.7843993431078262e-02 -1.1963472001420479e-02 0.0000000000000000e+00  -1.7809485910401532e-02 1.0337197900609010e-02 0.0000000000000000e+00  8.6499260463633904e-02 -4.6975034061434516e-02 0.0000000000000000e+00  1.3641462197135137e-01 -7.5709616001844574e-02 0.0000000000000000e+00  2.7198037591026746e-02 -1.3386019991921350e-02 0.0000000000000000e+00  5.1450811544874464e-02 -1.8377596660270435e-02 0.0000000000000000e+00  6.8897308584205300e-02 -2.1594845243984744e-02 0.0000000000000000e+00  5.3430152368215689e-02 -1.3078619204226847e-02 0.0000000000000000e+00  5.0797426064688574e-02 -9.5505795483050750e-03 0.0000000000000000e+00  4.7141899795107058e-02 -6.4400072583504176e-03 0.0000000000000000e+00  3.6921139179423343e-02 -2.8675780751892433e-03 0.0000000000000000e+00  1.8072925584678141e-09 -2.2213830469944058e-08 0.0000000000000000e+00  -7.2419573572048574e-09 1.1385877824790807e-08 0.0000000000000000e+00  1.6267503148767494e-08 1.8394962201441585e-08 0.0000000000000000e+00  1.9011950899331281e-09 2.1311823438348513e-08 0.0000000000000000e+00  -4.8157289101009137e-09 -8.0483759524622919e-09 0.0000000000000000e+00  2.7138936555150183e-08 2.0531451855329557e-08 0.0000000000000000e+00  1.1348259288424097e-08 -1.3584859718854444e-08 0.0000000000000000e+00  -4.3545990179827578e-08 -2.0949200891944562e-09 0.0000000000000000e+00  2.7551603263619649e-08 -2.0288244793587280e-08 0.0000000000000000e+00  -3.6333832239269610e-09 -4.0638271994179175e-09 0.0000000000000000e+00  4.7340908022486490e-15 -6.5144197531253130e-15 0.0000000000000000e+00  7.8667156774603114e-15 1.2095735051510799e-14 0.0000000000000000e+00  -7.5894080122919076e-09 8.2164535361836324e-09 0.0000000000000000e+00  -8.4609366747087213e-09 2.7221828242531707e-08 0.0000000000000000e+00  -3.9628069078209421e-15 3.1442458292189254e-14 0.0000000000000000e+00  -7.9307034391558911e-09 -2.7516796996421096e-08 0.0000000000000000e+00  -1.0948074952315996e-14 -2.4263048925457238e-14 0.0000000000000000e+00  1.4439859566839790e-14 1.8296083681769689e-15 0.0000000000000000e+00  1.8859433257520310e-08 3.7260525758297189e-08 0.0000000000000000e+00  1.1209164081784838e-08 -2.4034724909330640e-08 0.0000000000000000e+00  8.0040123089778138e-15 -2.8024405972951934e-14 0.0000000000000000e+00  -6.5766092839671996e-10 4.5558153858853186e-10 0.0000000000000000e+00  1.1722961513723896e-09 1.4329251256969777e-09 0.0000000000000000e+00  -1.4392978910795015e-14 2.9671833352786239e-14 0.0000000000000000e+00  -3.4308609381994851e-15 -3.1219101365134660e-14 0.0000000000000000e+00  7.1375536889802793e-15 -1.1241851803714777e-14 0.0000000000000000e+00  1.0427280316214681e-14 3.2771746336336233e-14 0.0000000000000000e+00  7.1519209403845493e-14 1.7079353911349726e-15 0.0000000000000000e+00  8.3039320958149525e-08 1.0695140440094561e-09 0.0000000000000000e+00  6.4733299408950381e-09 -7.8574648548313127e-09 0.0000000000000000e+00  5.0771536821261716e-12 -6.0107955606328099e-12 0.0000000000000000e+00  -9.1124431130530293e-13 1.8699474200019306e-12 0.0000000000000000e+00  -8.5585395848342608e-15 1.3871510765141247e-14 0.0000000000000000e+00  -1.2436335947852737e-11 2.1867928259622123e-11 0.0000000000000000e+00  3.4110248305938635e-12 -2.9565095640281904e-12 0.0000000000000000e+00  3.4513938017172220e-15 1.9674022168792552e-15 0.0000000000000000e+00  -1.5582282515231732e-11 1.9791152364680325e-11 0.0000000000000000e+00  7.5048974347328028e-08 -5.3323739146717059e-08 0.0000000000000000e+00  -2.6429940827760980e-10 1.5374630746963795e-11 0.0000000000000000e+00  -1.2180811707386612e-11 -1.4388926010101924e-11 0.0000000000000000e+00  5.0587117259403135e-08 3.9460385676676051e-08 0.0000000000000000e+00  -1.5017818253602538e-04 -9.5018818090083704e-05 0.0000000000000000e+00  4.1137759678696173e-05 1.1649244003116899e-05 0.0000000000000000e+00  5.2217128954179534e-05 -1.9675469123696470e-05 0.0000000000000000e+00  -1.8949511674175445e-04 1.2326695810459145e-04 0.0000000000000000e+00  4.8948478125243665e-12 2.4875619623250706e-11 0.0000000000000000e+00  1.6130669618299170e-11 3.9069581304151621e-11 0.0000000000000000e+00  7.2704731182303354e-09 2.3084043200150167e-08 0.0000000000000000e+00  2.2198825826941704e-14 4.3952425791612468e-14 0.0000000000000000e+00  2.1931498294899324e-11 3.7288503311657321e-11 0.0000000000000000e+00  -3.9778072971771975e-06 -6.6127540336756706e-06 0.0000000000000000e+00  6.4067436035612952e-07 3.6707032186304410e-06 0.0000000000000000e+00  -1.1126400573881904e-11 2.8104887809324529e-11 0.0000000000000000e+00  -1.0689638731728874e-14 3.4522912488942546e-14 0.0000000000000000e+00  -6.6264801762457723e-12 2.9994001559940859e-11 0.0000000000000000e+00  -1.2071271817322686e-08 1.2605837039507021e-08 0.0000000000000000e+00  5.1953141674237300e-12 -6.4460975145479650e-12 0.0000000000000000e+00  8.5574784794229254e-06 -5.0082714591776557e-06 0.0000000000000000e+00  2.8092152541313793e-05 -2.3289985794777592e-05 0.0000000000000000e+00  2.9683814112812453e-05 2.5273661307134850e-05 0.0000000000000000e+00  9.1410351276191780e-06 5.4273474565894577e-06 0.0000000000000000e+00  7.6352375660022424e-06 9.5938611071954988e-06 0.0000000000000000e+00  3.5267849884399781e-05 3.6732245782743841e-05 0.0000000000000000e+00  1.3843891567108570e-05 -1.5351304270498150e-05 0.0000000000000000e+00  7.4163014566271354e-06 -9.6638630265989703e-06 0.0000000000000000e+00  -8.3651332334132368e-07 1.4051863706684676e-06 0.0000000000000000e+00  -9.9658444389508411e-06 1.7157820677492508e-05 0.0000000000000000e+00  -7.5916678854435225e-06 -1.3896005827060411e-05 0.0000000000000000e+00  5.7870564925588581e-07 5.6678990227254219e-07 0.0000000000000000e+00  -3.1035175471559173e-07 1.7748922676391301e-05 0.0000000000000000e+00  3.7327072762347099e-06 1.9441107976875781e-05 0.0000000000000000e+00  3.1335103297508077e-06 -1.7409767494620384e-05 0.0000000000000000e+00  -2.6319950736116779e-07 -1.9613241643871661e-05 0.0000000000000000e+00  -8.9750095023065789e-09 1.8321108214301566e-08 0.0000000000000000e+00  -6.1117823733079553e-15 -1.0621940890640887e-14 0.0000000000000000e+00  7.8990873377025109e-13 5.7107463382844602e-13 0.0000000000000000e+00  -8.6019530056683240e-12 -1.6109219304469042e-11 0.0000000000000000e+00  9.4479184305436432e-12 1.1826274394447456e-11 0.0000000000000000e+00  2.0112940167857294e-14 2.2849728383165428e-14 0.0000000000000000e+00  1.5054851763796907e-11 1.6639729976527451e-11 0.0000000000000000e+00  -9.6882343358670095e-15 -3.3812016194877743e-14 0.0000000000000000e+00  -7.9390045752210143e-18 -5.8394204646093986e-18 0.0000000000000000e+00  -2.0717357432411475e-17 -3.3122878178362201e-19 0.0000000000000000e+00  -4.1238036283572898e-06 -4.0674874709969994e-06 0.0000000000000000e+00  -6.1460934084919010e-06 6.2240638974260170e-06 0.0000000000000000e+00  -1.7351274481687651e-08 -1.7199252235072562e-08 0.0000000000000000e+00  6.1766030914904929e-12 7.5244864530856490e-12 0.0000000000000000e+00  7.4059794724139455e-09 9.3860831398606464e-09 0.0000000000000000e+00  4.2845938782288246e-12 3.9682376673625024e-12 0.0000000000000000e+00  -1.0183946968618667e-11 -2.7437612677590391e-11 0.0000000000000000e+00  -8.1841179027760481e-09 -1.7902482613744912e-08 0.0000000000000000e+00  -4.2405305178029502e-13 2.3161921523500846e-11 0.0000000000000000e+00  -2.7215775927621710e-09 2.1709415759217100e-08 0.0000000000000000e+00  1.1294181428466108e-11 -2.9737471902011073e-11 0.0000000000000000e+00  4.2118326545596754e-12 -2.3396585854877916e-11 0.0000000000000000e+00  5.7342004906297266e-09 -2.0085431496748797e-08 0.0000000000000000e+00  -3.8379401969223159e-17 3.5346915063595481e-17 0.0000000000000000e+00  2.4945674005436197e-15 2.7589896446282500e-14 0.0000000000000000e+00  -8.6606157324565055e-06 2.1758145421347494e-05 0.0000000000000000e+00  -4.7756692720033739e-06 2.1631450441898208e-05 0.0000000000000000e+00  -4.7693284866569905e-06 -2.3699439179459636e-05 0.0000000000000000e+00  -7.8528368098009997e-06 -2.0954282897182242e-05 0.0000000000000000e+00  5.9411146467150172e-18 4.6137270487114147e-19 0.0000000000000000e+00  -6.0997900370457920e-12 -3.0356564912573969e-11 0.0000000000000000e+00  -2.6390073481583468e-09 -2.4408352364425390e-08 0.0000000000000000e+00  1.2898627859297738e-05 3.1103294962664404e-05 0.0000000000000000e+00  2.4943838666024504e-05 4.1369696534936624e-05 0.0000000000000000e+00  3.9322796690864497e-09 6.0718027195712791e-09 0.0000000000000000e+00  7.7893064468661039e-06 -1.4167452887348588e-05 0.0000000000000000e+00  8.2645587672115783e-06 -2.1550233268731000e-05 0.0000000000000000e+00  3.1981358214294333e-09 -4.9984400930972845e-09 0.0000000000000000e+00  1.2186807252921269e-14 -1.4717763053902006e-14 0.0000000000000000e+00  8.1761352712064403e-12 -1.070569