<?xml version="1.0"?>
<VTKFile type="UnstructuredGrid"  version="0.1"  >
<UnstructuredGrid>
<Piece  NumberOfPoints="2549" NumberOfCells="4928">
<Points>
<DataArray  type="Float64"  NumberOfComponents="3"  format="ascii">1.618245106213434 -0.04491181847849551 0  1.608892044455734 -0.002310465862893441 0  1.605635013081149 0.03961830638997991 0  1.596635933677852 0.08315200146532155 0  1.585909541150056 0.125430241133141 0  1.575079182285975 0.1704375726535878 0  1.553886200056345 0.2138340255265793 0  1.559671755637453 0.2648596936672824 0  1.507884428980519 0.2977549107182242 0  1.48689995088419 0.3266422881971944 0  1.477020274296708 0.3961521223467545 0  1.439112867204423 0.4237149487758116 0  1.416410941941777 0.4700736777998406 0  1.382830477956676 0.5091822365707174 0  1.338570542643717 0.5453218757208119 0  1.329422241429367 0.6059271380132952 0  1.255647993201051 0.6075796608299489 0  1.230952153798003 0.6339456413112106 0  1.198865546967073 0.7125413850938298 0  1.152727414071323 0.7158689834775143 0  1.13020860606756 0.7703914061890129 0  1.082658498462436 0.7890925194711246 0  1.046969912898244 0.8328147663730557 0  1.00306520675909 0.8675833127856496 0  0.9550038117064127 0.9028954394117943 0  0.9366285660782435 0.9653713743885596 0  0.8733806908863263 0.9849949725517606 0  0.8277883521579226 1.01216135898418 0  0.782987328163724 1.05551024403409 0  0.7325132376082388 1.084370025051303 0  0.6817144038534553 1.116026516923559 0  0.6324005689417361 1.147176764000392 0  0.5779474974646216 1.174879858632108 0  0.5238272495323731 1.198576743576777 0  0.4705996034678821 1.224986554150252 0  0.4132020874886652 1.245606932492993 0  0.3571282628079813 1.265306156179432 0  0.2990519556943668 1.281147349555448 0  0.2406574461897598 1.295748545613973 0  0.1820160119685432 1.307340925307135 0  0.121717408431478 1.315320210345895 0  0.06213031074470907 1.320717106930927 0  0.001893323789046962 1.323809087731162 0  -0.05832408707763061 1.323524714003828 0  -0.1185936498139705 1.320363748803537 0  -0.1785434763322828 1.314002808711768 0  -0.2383378311591577 1.304975050346052 0  -0.2974459603739054 1.292486622343332 0  -0.3555238599326245 1.277145231556877 0  -0.4141542698653735 1.259188127334352 0  -0.4704289345748519 1.238499367989073 0  -0.5252489567537031 1.213200764243059 0  -0.5812247188750229 1.190992514268052 0  -0.6334357807366239 1.162815659392657 0  -0.686260906978617 1.129407488221161 0  -0.7340963594686047 1.094785778839283 0  -0.7845672686928233 1.068972460383484 0  -0.836008782081456 1.030808069375384 0  -0.8727254305125398 0.9872472418336545 0  -0.9236576605186269 0.9545326117756142 0  -0.9640258953346454 0.9159834672170503 0  -1.015997588561526 0.8992619273719229 0  -1.055055267227033 0.8585906086770505 0  -1.085547943764889 0.7818157988222185 0  -1.127152037370317 0.7578950066111148 0  -1.192680012801338 0.747306257703574 0  -1.203397449904966 0.6854254520800067 0  -1.242767101554732 0.6714829297087175 0  -1.280765958234903 0.6030935114513412 0  -1.31485995653259 0.5915057220781338 0  -1.366595216556124 0.5381017054347537 0  -1.370091707764892 0.4887892432458233 0  -1.454300882810854 0.5075602592856264 0  -1.469009791552258 0.4335780074846853 0  -1.493284890207258 0.3954120957371796 0  -1.518112531150276 0.348473844747601 0  -1.54330910904547 0.3062336068924691 0  -1.555518015841385 0.2547249802730292 0  -1.577105538013369 0.2182715847302053 0  -1.561038121625175 0.1418666950899697 0  -1.594941060509355 0.1384063168035865 0  -1.608533597525442 0.08735576368249227 0  -1.574456974307537 0.03580150672137712 0  -1.565623106108164 -0.0008743794095196905 0  -1.562174132613165 -0.04332345556714581 0  -1.575339087936776 -0.07427511676511497 0  -1.553171938295008 -0.1128385847069219 0  -1.570462389259013 -0.1561217658384986 0  -1.552530770696657 -0.2067386600637794 0  -1.53072142763136 -0.2156664131667378 0  -1.557485475087127 -0.2838475054973559 0  -1.53680757087495 -0.3266042074667415 0  -1.52883286717166 -0.3835211879687563 0  -1.504067337065849 -0.4295291050908092 0  -1.480080261967145 -0.4782796558101614 0  -1.444304006632882 -0.5118434430778931 0  -1.445194750188978 -0.5839505079477161 0  -1.371892107883238 -0.6031442153263026 0  -1.342198135597651 -0.6251480836800911 0  -1.306019169830058 -0.6768098441358478 0  -1.275651017204355 -0.6938000202687012 0  -1.244585689547789 -0.7492041712425082 0  -1.20706003455973 -0.7726404160892766 0  -1.190489422425625 -0.8268122896608046 0  -1.13335086187208 -0.8444780024652604 0  -1.096465594101095 -0.8745226009632941 0  -1.07138815997182 -0.9485108485773205 0  -1.028919534200406 -0.986213658786965 0  -0.9802462562455837 -1.012947927638485 0  -0.9392411159087709 -1.05464045113685 0  -0.8961148078923052 -1.095207085664714 0  -0.852735927704386 -1.137180184991065 0  -0.7994988276888263 -1.168430230744181 0  -0.749303791057677 -1.19989334141547 0  -0.7092685683842965 -1.25394427181536 0  -0.6474673004752202 -1.280171056564649 0  -0.595246608346199 -1.306307770982811 0  -0.5387361529899397 -1.334074700285732 0  -0.4819454012981085 -1.359574930426751 0  -0.4265024789648447 -1.383889929299558 0  -0.3651172387662165 -1.402433888238706 0  -0.3064877264872935 -1.418057117375936 0  -0.24663095296764 -1.431977083360391 0  -0.1855400133901827 -1.441103716678537 0  -0.1246726910555476 -1.448186923069908 0  -0.06323005437030957 -1.451438359822446 0  -0.001778099648928225 -1.451691356825254 0  0.05961565256886668 -1.448295283748038 0  0.1209125456070245 -1.441591828370718 0  0.1812786205979292 -1.431572760032216 0  0.241282258853908 -1.419145240158881 0  0.3002549141044577 -1.403441664314365 0  0.35907391609655 -1.386234608108662 0  0.4159438681810919 -1.365192689571472 0  0.4734217310623588 -1.343282732883607 0  0.5278844714978789 -1.315548008400451 0  0.581258067172601 -1.292418475269796 0  0.6373261877655459 -1.263567088002501 0  0.6856265068097693 -1.230021726607514 0  0.7379112631830431 -1.19896864094412 0  0.7874368871905859 -1.166409487744586 0  0.8334663326329306 -1.127502757703636 0  0.8793279029072822 -1.095537212180293 0  0.9337055022023817 -1.06935040063743 0  0.9652037799681324 -1.021032055634403 0  1.009546580185016 -0.9831466068900206 0  1.05567800263351 -0.9482989623629777 0  1.093548939470782 -0.9058797030148467 0  1.132904658875088 -0.8714463937131117 0  1.17149971749687 -0.8335786680366106 0  1.211674545664367 -0.8057088257277435 0  1.235275066996541 -0.7384295471507626 0  1.273828532880433 -0.7238571945901515 0  1.329688097223896 -0.6954640831126213 0  1.344488485338234 -0.6434017211176838 0  1.38612702233752 -0.6074001054226786 0  1.418624947861784 -0.5666003638351919 0  1.446289426391313 -0.5212521540161356 0  1.480578419856105 -0.4865306589287787 0  1.494383309679224 -0.4230215397408509 0  1.52038335361802 -0.3975257564378751 0  1.556585148267417 -0.3560308135203545 0  1.56218932761262 -0.307054823127122 0  1.579184582179721 -0.2621595485113883 0  1.589508867752635 -0.2165885713443515 0  1.598807133057613 -0.1729085767688668 0  1.604701807018151 -0.1293937257650312 0  1.615047409412163 -0.08980909714010508 0  -0.1012610601256708 0.7884062399834341 0  0.5968845812219078 -0.7118119292914021 0  -0.750966196503504 -0.6192895845942915 0  -0.08113598040121255 -0.8894408995525389 0  0.5941169313240279 0.6028959979639187 0  1.152828228928435 0.1890320102917159 0  -0.7665194844715937 0.513675106799082 0  -1.235729504089184 -0.03864951025168101 0  1.156175252348665 -0.2872974598379323 0  -1.041263710631691 -0.4399491815302902 0  -0.800286802296758 -0.05733066108719299 0  -0.4767038483350265 -0.2326970586056436 0  -1.062665507249143 0.3360441667006672 0  0.2762938714932766 -0.8634476654670933 0  0.1317983347726835 -0.2961034717864066 0  0.243036537610316 0.7471684858800708 0  0.3329772294628572 0.1939372938723469 0  0.6492347140597413 -0.0491323503377863 0  -0.4163687351970637 -0.7806042879650181 0  -0.4509902796563117 0.6924330680947974 0  -0.2771694449676307 0.252657940044742 0  0.9057406415719726 -0.4861407859360099 0  0.9022819615121073 0.3833256510939315 0  0.4002237388552335 -0.3255098063681968 0  0.02610224033495449 0.2470685557608742 0  -0.5414449038867266 0.1924066212718253 0  -0.175241110508153 -0.2882359369713556 0  0.9355886531229579 -0.04940222072988124 0  1.343155400501262 -0.04737349684454793 0  0.7510764248478478 -0.5953657913734095 0  0.7687235646545715 -0.2774323001499889 0  0.6134818796045116 -0.3765563126477486 0  0.5232721294726118 -0.1829194323885849 0  0.4924358857296942 -0.5241142367053681 0  0.9137772546816088 -0.2662295900830365 0  0.7916646122665838 -0.04928096918674833 0  -0.9215795553849302 0.1501560350214254 0  -1.148616527667237 0.1466515261982353 0  -1.021994808313463 -0.0470396418001949 0  -0.9110670273625121 -0.2578700527305172 0  -1.134058360530721 -0.2366558549059262 0  -1.312553813552964 -0.3300989940887496 0  -1.384026526518472 -0.1463098058456365 0  -1.402206464933703 0.07206323954622031 0  -1.326658564808154 0.2476163770752093 0  -0.1287220549473005 -0.5886162446758141 0  -0.2883285053614405 -0.5405385971731448 0  -0.2503236349016367 -0.8412272048067321 0  -0.3252629652274147 -0.2618550578016837 0  -0.4418835267525131 -0.503818408999913 0  -1.235115809738977 -0.5129884119675677 0  -1.253075365617035 0.421590476403934 0  0.3367095646831458 -0.5915241663748874 0  0.265061044196736 -0.3125475927349704 0  0.1980294893338707 -0.5830318647777613 0  -0.9130925562028329 0.4195299202292807 0  -0.7746288956485889 0.2261419098217133 0  1.343034847492074 -0.3596355970073134 0  1.213013390470554 -0.5182701857602235 0  1.209282535393977 0.4191884055230044 0  1.338526161057709 0.2631628050514443 0  -0.7625771346449731 -0.9002529260067028 0  -0.9356895267576988 -0.7588020922073911 0  -0.9412897691179536 0.6605757017490066 0  -0.7623587995064716 0.791841152687795 0  0.7704734057541052 -0.8880653316490642 0  0.5811817657737682 -1.003665127517102 0  0.5784611493537274 0.8915112085502086 0  0.7654993634242319 0.7790128888408393 0  0.00759256458031
[...]
<PointData  Vectors="f_45"> 
<DataArray  type="Float64"  Name="f_45"  NumberOfComponents="3" format="ascii">2.1391666604335904e-01 5.1737279585891721e-02 0.0000000000000000e+00  2.0960700090507670e-01 7.2362379009560440e-02 0.0000000000000000e+00  2.1866263367611102e-01 4.6555030605259992e-02 0.0000000000000000e+00  1.9350067340860644e-01 1.1432284826626542e-01 0.0000000000000000e+00  2.1305325789596682e-01 8.1750819187036416e-02 0.0000000000000000e+00  1.4308309585216752e-01 1.8122569077331824e-01 0.0000000000000000e+00  2.2039241922211308e-01 3.3317192991715129e-02 0.0000000000000000e+00  5.1808733407516974e-02 4.7602472074652576e-02 0.0000000000000000e+00  -1.1270416344030121e-01 2.7871792786000954e-01 0.0000000000000000e+00  2.4117559060310167e-01 8.4254899019332724e-02 0.0000000000000000e+00  7.9387873833487263e-02 1.1540171824082507e-01 0.0000000000000000e+00  3.6199579725813168e-04 2.1538377678356310e-01 0.0000000000000000e+00  1.5006311949460063e-01 1.8266487300647988e-01 0.0000000000000000e+00  -8.7697669045795054e-02 2.4691504049770940e-01 0.0000000000000000e+00  1.5562861387269877e-01 1.5136351726489297e-01 0.0000000000000000e+00  -3.7937464538307384e-03 -4.3790281288113662e-03 0.0000000000000000e+00  -2.5316828841012862e-01 8.4812076772114178e-02 0.0000000000000000e+00  2.2330841799148476e-01 2.2357624183542835e-01 0.0000000000000000e+00  -3.1126035469524398e-02 8.0802942836638247e-02 0.0000000000000000e+00  -1.7843825607091794e-02 8.9354435005539454e-02 0.0000000000000000e+00  4.2796337805213636e-02 1.6664863959509735e-01 0.0000000000000000e+00  -1.0616096234535059e-01 1.8223408192804152e-01 0.0000000000000000e+00  5.5548038320602802e-02 2.2563611065619718e-01 0.0000000000000000e+00  -1.3440321706346250e-01 2.2560207973119514e-01 0.0000000000000000e+00  1.2423517536378846e-01 1.6654340485051777e-01 0.0000000000000000e+00  2.7474322764029710e-02 1.0471178629987055e-01 0.0000000000000000e+00  -2.2953202692150321e-01 1.5771587474779877e-01 0.0000000000000000e+00  -1.1729371639262860e-02 2.2407936094176689e-01 0.0000000000000000e+00  -5.5079539679340157e-02 2.0874996200900078e-01 0.0000000000000000e+00  -1.2311263554717385e-01 1.9157692147453745e-01 0.0000000000000000e+00  -8.7163155310681042e-02 2.0566166656181731e-01 0.0000000000000000e+00  -1.1189573533319978e-01 1.9373798518745550e-01 0.0000000000000000e+00  -1.4942214192044440e-01 1.6680437367106568e-01 0.0000000000000000e+00  -1.3982633668673988e-01 1.7471191268511171e-01 0.0000000000000000e+00  -1.5188911189907814e-01 1.6159497405173875e-01 0.0000000000000000e+00  -1.7682747960615061e-01 1.3904366129957138e-01 0.0000000000000000e+00  -1.8199753955722756e-01 1.2834074558911307e-01 0.0000000000000000e+00  -1.9674559699199448e-01 1.0745201737857582e-01 0.0000000000000000e+00  -2.0080805471224134e-01 9.8191245483088260e-02 0.0000000000000000e+00  -2.1221433260838024e-01 7.0839238313347777e-02 0.0000000000000000e+00  -2.1851278759670362e-01 4.7914436321245667e-02 0.0000000000000000e+00  -2.2134475688035452e-01 3.2641843706656980e-02 0.0000000000000000e+00  -2.2331754394891692e-01 1.0670847687928071e-02 0.0000000000000000e+00  -2.2346915560083666e-01 -1.2951136845830566e-02 0.0000000000000000e+00  -2.2073518143186993e-01 -3.5393965844757146e-02 0.0000000000000000e+00  -2.1661675842484679e-01 -5.6399497189220243e-02 0.0000000000000000e+00  -2.0959536222390213e-01 -7.7846629093296385e-02 0.0000000000000000e+00  -1.9941529779110878e-01 -1.0159716256097244e-01 0.0000000000000000e+00  -1.8957332649829364e-01 -1.1834112967217540e-01 0.0000000000000000e+00  -1.8126716509564433e-01 -1.3213500520643542e-01 0.0000000000000000e+00  -1.5227873825535826e-01 -1.6314554634646347e-01 0.0000000000000000e+00  -1.5578015063267595e-01 -1.6039962699386623e-01 0.0000000000000000e+00  -1.4814320771661640e-01 -1.6566426001125564e-01 0.0000000000000000e+00  -1.0875585097520370e-01 -1.9710007796322188e-01 0.0000000000000000e+00  -7.2428340784199588e-02 -2.1270657033206147e-01 0.0000000000000000e+00  -1.0064500606796650e-01 -1.9442330754107720e-01 0.0000000000000000e+00  -1.2457653083770262e-01 -1.9222187700862639e-01 0.0000000000000000e+00  1.6713129595790820e-02 -2.2661198463783486e-01 0.0000000000000000e+00  -3.6091470977480181e-02 -2.0403772354205829e-01 0.0000000000000000e+00  -4.7704352457584760e-02 -2.2688285354030413e-01 0.0000000000000000e+00  -9.5425488034219838e-02 -1.6456921968662336e-01 0.0000000000000000e+00  -1.4181779870987057e-01 -1.7867292046641647e-01 0.0000000000000000e+00  1.5015032873911555e-01 -1.8633782844455798e-01 0.0000000000000000e+00  9.8066559453777291e-02 -1.6875763441882730e-01 0.0000000000000000e+00  -2.8964647893303697e-01 -1.3275506744702187e-01 0.0000000000000000e+00  4.6533076847301874e-02 -5.0946353170458869e-02 0.0000000000000000e+00  7.3523701121064225e-02 -9.9007748646848345e-02 0.0000000000000000e+00  -9.4901548592226243e-03 -1.8903747813395155e-01 0.0000000000000000e+00  6.5907442239567848e-02 -1.6222047970678372e-01 0.0000000000000000e+00  -1.5961692433342162e-01 -2.0627124218138657e-01 0.0000000000000000e+00  2.0561673347402687e-01 -1.7755191847203919e-01 0.0000000000000000e+00  -9.3546010403754515e-02 9.6349100358870121e-02 0.0000000000000000e+00  -5.0298807112171558e-02 2.9294281919116510e-02 0.0000000000000000e+00  2.4782692430424305e-01 -1.6652877902085897e-01 0.0000000000000000e+00  7.9655458259210304e-02 -1.9584147307876162e-01 0.0000000000000000e+00  1.1364687449904158e-01 -2.0485789895334308e-01 0.0000000000000000e+00  1.6761291741720916e-01 -1.2544125132501091e-01 0.0000000000000000e+00  1.4330076005441492e-01 -1.7520053926105694e-01 0.0000000000000000e+00  2.1735051066135266e-01 -1.9471499251102427e-02 0.0000000000000000e+00  4.0646249765699027e-02 1.0614639808585463e-01 0.0000000000000000e+00  -1.5785606166304950e-02 -1.7056679698654548e-01 0.0000000000000000e+00  1.8391120115553514e-01 7.1721679452960166e-02 0.0000000000000000e+00  9.1651337444667247e-02 2.1175004936001998e-01 0.0000000000000000e+00  2.4304218594440805e-01 8.1691968030328743e-02 0.0000000000000000e+00  1.9322545065607807e-01 -1.1683200161138295e-01 0.0000000000000000e+00  1.2002078392999142e-01 7.9983187586635765e-02 0.0000000000000000e+00  1.2178177864262819e-01 2.1680416341379617e-02 0.0000000000000000e+00  2.1783801414242326e-01 -7.0065160423856743e-02 0.0000000000000000e+00  2.3681675773233365e-02 2.6406783198516898e-01 0.0000000000000000e+00  5.7751491044195233e-02 -1.3927648716392163e-01 0.0000000000000000e+00  1.7752927176051139e-01 -2.1782427385793900e-02 0.0000000000000000e+00  1.8309783301095561e-01 1.4763269518810376e-01 0.0000000000000000e+00  1.7366554970581724e-01 9.7646214985339194e-02 0.0000000000000000e+00  1.4809036150817045e-01 1.9023531433483759e-01 0.0000000000000000e+00  1.6549861384610395e-02 2.2968831340325105e-01 0.0000000000000000e+00  1.7680147165031834e-01 7.9227841190872325e-02 0.0000000000000000e+00  3.6118679394349158e-02 1.6340544499855413e-02 0.0000000000000000e+00  -2.5576824419387206e-01 1.7380493977138076e-01 0.0000000000000000e+00  9.2151718030349994e-02 2.2201277446654866e-01 0.0000000000000000e+00  -2.7487545810496290e-02 2.0040139959120959e-01 0.0000000000000000e+00  5.2303554582360634e-02 1.8460726202000047e-01 0.0000000000000000e+00  1.0776347505174715e-02 2.0424164173256656e-01 0.0000000000000000e+00  8.0424932441717320e-02 1.6449970577044659e-01 0.0000000000000000e+00  3.1249180660132606e-02 1.0059715870343257e-01 0.0000000000000000e+00  -2.2496988722660044e-01 1.8649418805907150e-01 0.0000000000000000e+00  1.4442293091860761e-01 1.6456084321623407e-01 0.0000000000000000e+00  1.2219272566895027e-01 1.6482123422878095e-01 0.0000000000000000e+00  -1.2608657767496378e-01 2.1769894143008475e-01 0.0000000000000000e+00  -5.6049938100181544e-02 1.9809008543975032e-01 0.0000000000000000e+00  7.6936316642859078e-03 2.2919345559759455e-01 0.0000000000000000e+00  -5.2065013645683075e-03 2.2525484260583761e-01 0.0000000000000000e+00  -4.9222001606128253e-02 2.1000405576644143e-01 0.0000000000000000e+00  -1.4881106007388523e-01 1.9034672059824467e-01 0.0000000000000000e+00  2.5916972925157086e-02 2.1787041484417644e-01 0.0000000000000000e+00  -2.8410046565978335e-02 1.8628020315730484e-01 0.0000000000000000e+00  -1.8240145025096305e-01 1.6126746561343594e-01 0.0000000000000000e+00  -1.2102163209544754e-01 1.8415525918048747e-01 0.0000000000000000e+00  -1.4709290038810813e-01 1.6957675071299944e-01 0.0000000000000000e+00  -1.4615107006996716e-01 1.6999066958016010e-01 0.0000000000000000e+00  -1.6858974136299060e-01 1.4504848291095299e-01 0.0000000000000000e+00  -1.9413128153486950e-01 1.1282954675078032e-01 0.0000000000000000e+00  -1.9547717162375330e-01 1.0888605330831623e-01 0.0000000000000000e+00  -2.0785485368025949e-01 8.1391233804651242e-02 0.0000000000000000e+00  -2.1666584406638678e-01 5.7479345525524285e-02 0.0000000000000000e+00  -2.1990933378811003e-01 3.8789017211568549e-02 0.0000000000000000e+00  -2.2367956743359388e-01 1.2128636422160211e-02 0.0000000000000000e+00  -2.2324364153490683e-01 -1.0971512035449129e-02 0.0000000000000000e+00  -2.2087080420866062e-01 -3.6716087929172282e-02 0.0000000000000000e+00  -2.1496024467145816e-01 -6.1170225811641880e-02 0.0000000000000000e+00  -2.0913815133075972e-01 -8.0188342219497638e-02 0.0000000000000000e+00  -1.9897525976944824e-01 -1.0122996183131742e-01 0.0000000000000000e+00  -1.9261892452709403e-01 -1.1487183891912871e-01 0.0000000000000000e+00  -1.7759763013847085e-01 -1.3442164517897454e-01 0.0000000000000000e+00  -1.7149330726121090e-01 -1.4538344718609864e-01 0.0000000000000000e+00  -1.4646183683666797e-01 -1.6704997133290950e-01 0.0000000000000000e+00  -1.3804101762581700e-01 -1.7526716283221994e-01 0.0000000000000000e+00  -1.5320040019696757e-01 -1.6515408528122610e-01 0.0000000000000000e+00  -9.6696787266584511e-02 -2.0068848511931614e-01 0.0000000000000000e+00  -8.7340780313494348e-02 -2.0503067401068445e-01 0.0000000000000000e+00  -1.1039039689492612e-01 -1.9623782868144604e-01 0.0000000000000000e+00  -5.8351473475296560e-02 -2.1469606168401612e-01 0.0000000000000000e+00  -3.3230502106118755e-02 -2.2244194723765448e-01 0.0000000000000000e+00  -1.5157669153339867e-01 -1.8650384636470430e-01 0.0000000000000000e+00  -1.8551308449449140e-02 -1.8287844033093298e-01 0.0000000000000000e+00  6.7587298114545835e-02 -2.1893385718568747e-01 0.0000000000000000e+00  -8.7506508005173678e-02 -2.1783373116611587e-01 0.0000000000000000e+00  -5.6362676396809613e-03 -2.1766598623293038e-01 0.0000000000000000e+00  1.0118866117087876e-03 -2.2316625145375732e-01 0.0000000000000000e+00  -4.8160897057539214e-03 -2.2129537948406697e-01 0.0000000000000000e+00  -8.0966479069905686e-02 -2.2725656299217190e-01 0.0000000000000000e+00  9.7282343779686503e-02 -1.6817206922650091e-01 0.0000000000000000e+00  9.0237707314099122e-02 -1.2711106759225393e-01 0.0000000000000000e+00  -2.5791837135094492e-01 -1.8373001802085992e-01 0.0000000000000000e+00  6.9498466417302035e-02 -1.4102417978665852e-01 0.0000000000000000e+00  1.1146953815159708e-01 -1.5900228461585122e-01 0.0000000000000000e+00  -4.6414951386193039e-02 -2.4140987563494010e-01 0.0000000000000000e+00  1.2093801983504172e-01 -1.9418539309980473e-01 0.0000000000000000e+00  2.0456477385183299e-02 -2.3172065272332290e-01 0.0000000000000000e+00  1.2543446780313916e-01 -1.4076338474060221e-01 0.0000000000000000e+00  1.6201119038044667e-01 -1.1521881891121484e-01 0.0000000000000000e+00  -5.0109585414283973e-02 -2.7475559289107981e-01 0.0000000000000000e+00  1.4164862048268304e-01 -1.1905362976669429e-01 0.0000000000000000e+00  2.1132348909104404e-01 -8.2956638864734034e-02 0.0000000000000000e+00  1.7159469292031182e-01 -1.4129093269191734e-01 0.0000000000000000e+00  2.0885702127508005e-01 -8.7371545901941017e-02 0.0000000000000000e+00  2.1169858215702289e-01 -7.0309123905357748e-02 0.0000000000000000e+00  2.0331995302827563e-01 -8.3846659336823157e-02 0.0000000000000000e+00  2.0877804483429130e-01 -9.6633786722007259e-02 0.0000000000000000e+00  -2.1848080110010093e-01 -4.8348300170756725e-02 0.0000000000000000e+00  -2.4958906484013818e-02 -2.2243274854692605e-01 0.0000000000000000e+00  4.8914511343419141e-02 2.1837835960574872e-01 0.0000000000000000e+00  -2.2136469588120117e-01 3.2673228279143630e-02 0.0000000000000000e+00  -1.7261863751006842e-02 2.2317985988750827e-01 0.0000000000000000e+00  1.8866306665369079e-01 1.2046957642232051e-01 0.0000000000000000e+00  3.9136687474052377e-02 -2.2035833229557916e-01 0.0000000000000000e+00  2.2356810091819659e-01 -1.2663751605239073e-02 0.0000000000000000e+00  1.9167131993407371e-01 -1.1557136801383049e-01 0.0000000000000000e+00  1.4772298088947219e-01 1.6810021655065838e-01 0.0000000000000000e+00  2.2411328888239179e-01 7.8829048307311870e-04 0.0000000000000000e+00  1.5959195011034513e-01 1.5774789268813064e-01 0.0000000000000000e+00  1.1764373419810668e-01 -1.9043506080222744e-01 0.0000000000000000e+00  -1.7000568934533081e-01 -1.4549061615862544e-01 0.0000000000000000e+00  -9.2018559361817936e-02 -2.0571291066039632e-01 0.0000000000000000e+00  -1.7911401936979596e-01 1.3414539128023611e-01 0.0000000000000000e+00  1.1005967985558307e-01 1.9611502864747438e-01 0.0000000000000000e+00  2.2430534335404637e-01 -9.3251763327645218e-03 0.0000000000000000e+00  -1.1844940574611294e-01 1.8985919602595794e-01 0.0000000000000000e+00  -1.0843502360716584e-01 -1.9575726398655302e-01 0.0000000000000000e+00  5.5021523565062886e-03 -2.2489547491089862e-01 0.0000000000000000e+00  1.1991537567325782e-01 -1.8897506590239518e-01 0.0000000000000000e+00  1.1947637414925992e-01 1.8927055463587492e-01 0.0000000000000000e+00  8.4947310770678283e-02 -2.0757025300750948e-01 0.0000000000000000e+00  -2.1774501722208953e-01 5.6256880781476684e-02 0.0000000000000000e+00  1.5144157117073481e-01 -1.6521100527654642e-01 0.0000000000000000e+00  -9.1033150747819799e-02 2.0601966529903101e-01 0.0000000000000000e+00  2.2384052258434339e-01 -1.7738524847858087e-03 0.0000000000000000e+00  2.2379580563060339e-01 2.7744130470582365e-03 0.0000000000000000e+00  5.6873407970557607e-02 -2.1651815950733830e-01 0.0000000000000000e+00  1.8150282771642370e-01 -1.3134555802005421e-01 0.0000000000000000e+00  1.2170617457374411e-01 -1.8831494601713897e-01 0.0000000000000000e+00  1.9205909035911817e-01 -1.1613654380078212e-01 0.0000000000000000e+00  1.3311242622626208e-02 -2.2366517080032308e-01 0.0000000000000000e+00  1.9265362804928093e-01 -1.1397720555981319e-01 0.0000000000000000e+00  2.2395726326932913e-01 -4.9581244689195312e-03 0.0000000000000000e+00  1.9056629784351020e-01 -1.1763829820260026e-01 0.0000000000000000e+00  1.9134612787580557e-01 -1.1651389922887996e-01 0.0000000000000000e+00  2.2358351640240390e-01 -1.1492713031585262e-02 0.0000000000000000e+00  1.9753980220597150e-01 1.0544441124554146e-01 0.0000000000000000e+00  2.0745732899809191e-01 8.4236323177261888e-02 0.0000000000000000e+00  1.9030960850564610e-01 1.1822386482408737e-01 0.0000000000000000e+00  2.2103577045189746e-01 3.1573803042854308e-02 0.0000000000000000e+00  2.2179370283122485e-01 -2.9587717323754988e-02 0.0000000000000000e+00  1.5190869042528285e-01 -1.6548952135663836e-01 0.0000000000000000e+00  -2.0758363353628750e-01 8.3911643282898837e-02 0.0000000000000000e+00  -1.2085683263311535e-01 1.8858382461940679e-01 0.0000000000000000e+00  -1.8710896403413907e-01 1.2272247967194291e-01 0.0000000000000000e+00  7.9671100673203515e-02 2.1046770041354992e-01 0.0000000000000000e+00  -1.6007797259229545e-02 2.2342962324874382e-01 0.0000000000000000e+00  1.1342646058686297e-01 1.9311371362830701e-01 0.0000000000000000e+00  1.7670193407405783e-02 -2.2389801047741809e-01 0.0000000000000000e+00  -8.7188005243625202e-02 -2.0626648404688250e-01 0.0000000000000000e+00  1.9652169463188218e-02 -2.2393810503723341e-01 0.0000000000000000e+00  -1.5621792388022301e-01 -1.6051751031830330e-01 0.0000000000000000e+00  8.9349182429806356e-02 -2.0519431687323733e-01 0.0000000000000000e+00  1.6068858403180009e-01 -1.5615071891203511e-01 0.0000000000000000e+00  1.6738300852681637e-01 -1.4845303469490420e-01 0.0000000000000000e+00  1.1850953904532967e-01 -1.8965231140060868e-01 0.0000000000000000e+00  9.9798139921925641e-02 2.0021206216518950e-01 0.0000000000000000e+00  1.6239184109268598e-01 1.5381811653376734e-01 0.0000000000000000e+00  -2.5364696759505572e-02 2.2224506133881008e-01 0.0000000000000000e+00  4.5970021605565896e-02 2.1882074786184696e-01 0.0000000000000000e+00  1.8086428902704749e-02 -2.2288844173484473e-01 0.0000000000000000e+00  -4.5506946822443342e-02 -2.1898104106252539e-01 0.0000000000000000e+00  -3.0004036006283291e-02 -2.2163695835696914e-01 0.0000000000000000e+00  -9.8501324641682417e-02 -2.0084064830423931e-01 0.0000000000000000e+00  -9.5332108078094724e-02 2.0239585345599373e-01 0.0000000000000000e+00  -2.3118893896653624e-02 2.2235698205936291e-01 0.0000000000000000e+00  -2.2338732980825909e-01 -1.2535993669785937e-02 0.0000000000000000e+00  -2.0874554458122122e-01 8.0527140970699268e-02 0.0000000000000000e+00  -2.0788293044913778e-01 -8.2704093452532407e-02 0.0000000000000000e+00  -2.2363842565971201e-01 6.3426584858284132e-03 0.0000000000000000e+00  -1.0168955942609649e-01 -1.9933728822205649e-01 0.0000000000000000e+00  2.0859087835772777e-01 8.3489404772481332e-02 0.0000000000000000e+00  1.3502434517857195e-01 1.7908135089273292e-01 0.0000000000000000e+00  2.0861339956557378e-02 2.2322986190095809e-01 0.0000000000000000e+00  8.5971169586563784e-02 2.0688417729207084e-01 0.0000000000000000e+00  2.1310634181068550e-01 6.9625764521843311e-02 0.0000000000000000e+00  1.6291527566559655e-01 1.5376678270792918e-01 0.0000000000000000e+00  -3.0360799160991169e-02 2.2347827559653702e-01 0.0000000000000000e+00  2.3991745365774914e-01 -8.0812014230022933e-02 0.0000000000000000e+00  2.2253479263115394e-01 -4.5550582974287969e-02 0.0000000000000000e+00  7.9229527570569502e-02 2.0892665360314397e-01 0.0000000000000000e+00  4.0617847918033190e-02 -2.1965362759148727e-01 0.0000000000000000e+00  1.0855569886855404e-01 1.9568385707634470e-01 0.0000000000000000e+00  1.8680666111934774e-01 1.2373290962018121e-01 0.0000000000000000e+00  6.2304610400421172e-02 2.1502817091970478e-01 0.0000000000000000e+00  1.9414346216057157e-01 1.1145684056191504e-01 0.0000000000000000e+00  -9.9126103881164940e-02 2.0092309811716119e-01 0.0000000000000000e+00  -1.0274276726288184e-01 1.9883290615471977e-01 0.0000000000000000e+00  -2.1897682273052654e-01 -4.6937146569576101e-02 0.0000000000000000e+00  -2.1438381672282311e-01 -6.4139305101770697e-02 0.0000000000000000e+00  -7.9680272869573285e-02 -2.0935609447938819e-01 0.0000000000000000e+00  -1.7734396342048575e-01 -1.3682143985833251e-01 0.0000000000000000e+00  -1.7735080814030915e-01 -1.3648709227613914e-01 0.0000000000000000e+00  2.1993425846832731e-01 -4.7829173904788171e-02 0.0000000000000000e+00  -2.2445340014473647e-01 -1.6522727827259852e-02 0.0000000000000000e+00  -1.5415306991257505e-01 -1.6210904564107095e-01 0.0000000000000000e+00  -2.0360983415639475e-01 -9.2715575494605046e-02 0.0000000000000000e+00  -2.0728930142337590e-01 8.4166571185265812e-02 0.0000000000000000e+00  -1.5916056899765066e-01 1.5721876378757574e-01 0.0000000000000000e+00  9.1861760985504762e-02 -2.4358523966693402e-01 0.0000000000000000e+00  -1.9268954565934357e-01 1.1411270660979586e-01 0.0000000000000000e+00  -2.1876377340939557e-01 4.7014530173909053e-02 0.0000000000000000e+00  -1.6435366044139540e-01 1.5181104366082784e-01 0.0000000000000000e+00  -9.0914751677911756e-02 2.0430240599687532e-01 0.0000000000000000e+00  -3.1091440423612515e-02 2.2161361824514803e-01 0.0000000000000000e+00  -1.0107251562082767e-01 -1.9955347783617658e-01 0.0000000000000000e+00  -1.6542620231883023e-01 -1.5061303641640333e-01 0.0000000000000000e+00  -2.9932702187797623e-02 -2.2177871511281097e-01 0.0000000000000000e+00  2.1060602710198009e-01 -7.6671911603955867e-02 0.0000000000000000e+00  8.485362