<?xml version="1.0"?>
<VTKFile type="UnstructuredGrid"  version="0.1"  >
<UnstructuredGrid>
<Piece  NumberOfPoints="2549" NumberOfCells="4928">
<Points>
<DataArray  type="Float64"  NumberOfComponents="3"  format="ascii">1.634807050144185 -0.04085361872933608 0  1.624899449226277 0.001752710247947589 0  1.621267537726568 0.04355253388117963 0  1.612140996726748 0.08706425855795297 0  1.600972516348035 0.1289579435080404 0  1.589932494460426 0.1737451086242103 0  1.572068455009347 0.2168330712983486 0  1.574342115942475 0.2672836390307546 0  1.522517370805446 0.2991095846232924 0  1.506178349470745 0.3305728028548782 0  1.495677644189786 0.4008046372864648 0  1.454700382279053 0.4266693612058046 0  1.429617793963489 0.4731361688968986 0  1.396781403012787 0.5128467569453964 0  1.361124220986895 0.5504870781181621 0  1.348367106951623 0.6052068678249719 0  1.271962624887752 0.6101861845191514 0  1.257128398823926 0.6444031173015347 0  1.232596148501323 0.7296330462168218 0  1.176072626813687 0.7302909682147928 0  1.142148660160984 0.7756547336247764 0  1.099321085323733 0.8102078661672214 0  1.060889530092566 0.849910014985057 0  1.020152312114896 0.8935864085298123 0  0.9643948749453034 0.9129282135392914 0  0.9338409980028983 0.9640084211396409 0  0.8819358299698264 0.9943095103935415 0  0.8340758322354208 1.021756292966108 0  0.7874036774517579 1.057606983519597 0  0.7376888628622242 1.087966092220882 0  0.6872558254860509 1.118650817745603 0  0.6368812987829671 1.149361421847675 0  0.5818338352387846 1.173128473783501 0  0.528811826218304 1.198185913520202 0  0.4747769194766735 1.223759954485027 0  0.4178478457951332 1.242383186294496 0  0.3616114506203235 1.261800975666796 0  0.3039700006037187 1.277491732611166 0  0.2456502239395933 1.291456473504096 0  0.1872401481500728 1.302805049954475 0  0.1272726342355753 1.310359695289387 0  0.06802157156985367 1.315588418925795 0  0.00812920404317035 1.318669082639312 0  -0.05175557083021338 1.318459809020929 0  -0.1116932231614959 1.315537619460788 0  -0.1713697436942522 1.309474760547684 0  -0.2309012703260108 1.301057990899405 0  -0.2898512479589914 1.288981896910125 0  -0.3478150473838101 1.27419938610068 0  -0.4064755575426688 1.257883631430924 0  -0.4627488456832707 1.237187518364285 0  -0.5184390109564629 1.213406724381325 0  -0.573580964717366 1.189309220700218 0  -0.6254286866231704 1.159344914108586 0  -0.6810115880776185 1.137734731105482 0  -0.7306964077806989 1.099092125397624 0  -0.7748393137324545 1.065104880663997 0  -0.8318411747050033 1.040811208794391 0  -0.8742687188451154 0.9989869061348251 0  -0.9196914326794614 0.9626813197254415 0  -0.965293705050764 0.9269494925048802 0  -1.006578841937673 0.8889068597458323 0  -1.059589836154348 0.8681033785010647 0  -1.081285016242478 0.788939318317908 0  -1.123627757124706 0.7767075416917727 0  -1.172834254656074 0.7443605915128807 0  -1.198187875439722 0.6954908521267579 0  -1.240217566156122 0.6676267039166356 0  -1.270750757867563 0.6122367957373722 0  -1.307489362660941 0.6130753394741951 0  -1.352499371357665 0.5478894842158041 0  -1.359582668322835 0.496003664459061 0  -1.456857458662965 0.5091276862751617 0  -1.448151831596687 0.4351094537857506 0  -1.482443813859106 0.402062604306636 0  -1.507068767691595 0.3549304670056186 0  -1.534156410012937 0.3124905893243244 0  -1.547452839584976 0.2602953648877833 0  -1.570517842966891 0.2235624682537611 0  -1.554921387720839 0.1466090905326739 0  -1.587851305191389 0.1418721114060158 0  -1.603685981378502 0.09132852959705871 0  -1.569900735325853 0.03936637886803948 0  -1.560690856520689 0.003038106351259158 0  -1.557312162135249 -0.03953193101222908 0  -1.572855014001389 -0.07040605940431123 0  -1.54970846065141 -0.1095837878863162 0  -1.567482392080374 -0.1530608504308443 0  -1.549901151552143 -0.2039901486130011 0  -1.528087162143833 -0.2130594529935403 0  -1.555424475931575 -0.2815229613744543 0  -1.534089079246922 -0.3242807063350268 0  -1.526011985547733 -0.38154394052031 0  -1.501153569669004 -0.4276447450947379 0  -1.477096137099563 -0.4764222618042913 0  -1.441596062741695 -0.5100363794768852 0  -1.442120205087936 -0.5807599487483316 0  -1.366970144324254 -0.5981919435448964 0  -1.34361458173503 -0.6268228051638803 0  -1.307174926934918 -0.6840479383647535 0  -1.271529671335563 -0.6939802256884979 0  -1.241463922563598 -0.7450618619444913 0  -1.202291322719172 -0.7764714329552052 0  -1.173682643746568 -0.8220454711373898 0  -1.130940869877623 -0.8583039159793401 0  -1.087992023046625 -0.8738840722994186 0  -1.064229233794502 -0.9460743958001726 0  -1.015848126766925 -0.9752367277491935 0  -0.9737594622864653 -1.014208081183275 0  -0.9297815916648297 -1.052903830683657 0  -0.8844910463491037 -1.091797679932465 0  -0.8392005730382212 -1.129916488722002 0  -0.7914397098829429 -1.168050398841853 0  -0.7388643797350545 -1.194310348734906 0  -0.694752685647792 -1.242237467820173 0  -0.6367008424513644 -1.270241062689839 0  -0.5842984549915226 -1.30064200508604 0  -0.5278992206594461 -1.327391846563165 0  -0.4712314990281887 -1.35272409072826 0  -0.4149842985132607 -1.376788850407495 0  -0.3538311253320647 -1.39244682565312 0  -0.2954884911827346 -1.408466649729753 0  -0.2356295538798509 -1.422408199766983 0  -0.174835757812509 -1.430422234317218 0  -0.1141782473508334 -1.437401405912246 0  -0.05300211211333827 -1.440402540069563 0  0.008174988224647359 -1.440527838729077 0  0.06931699373393634 -1.437081574847356 0  0.1303293315350831 -1.430342999470335 0  0.1904949177911977 -1.420478137324596 0  0.2502231424397887 -1.408163979601727 0  0.3091964524759027 -1.392865300867496 0  0.3675997325515804 -1.375520418906224 0  0.4246089972054095 -1.354520336324552 0  0.481774263023158 -1.334736935488587 0  0.5371007680797629 -1.30744235809351 0  0.5891153935772678 -1.281697513992458 0  0.6458554409862437 -1.257487572017043 0  0.6962321402522649 -1.224662678516295 0  0.7472047200478603 -1.193056119269013 0  0.7969149344959806 -1.160818950813343 0  0.8445460224241573 -1.125454629372153 0  0.8917801451003556 -1.093507928831678 0  0.9408331077775441 -1.06065146953106 0  0.9784656044061727 -1.020086282071185 0  1.028773391991546 -0.9896287008236293 0  1.070927059837849 -0.9487617922500792 0  1.110838584243478 -0.9092177797804571 0  1.152330762270032 -0.8723362492448675 0  1.189273891449646 -0.8294581365855607 0  1.235929533107205 -0.8082359427121462 0  1.265228844513889 -0.7416307089947897 0  1.291851008683624 -0.7152433678467558 0  1.348018192095529 -0.6913524639360407 0  1.371932211123945 -0.6435371639603281 0  1.405976542680403 -0.6040419174295097 0  1.437824506973821 -0.5628808400774272 0  1.46485751029056 -0.5171904494872798 0  1.498384029282873 -0.4813560882285006 0  1.512563844974982 -0.4193026752195116 0  1.537840704755871 -0.3933014671477562 0  1.571978738258246 -0.3517525195880652 0  1.580327746177507 -0.3028706360287796 0  1.595855507405421 -0.2579534600967847 0  1.606099097274599 -0.2124515708187796 0  1.615181251623222 -0.168812053797779 0  1.621064065709479 -0.1254654430895582 0  1.63173598099755 -0.08584550695916078 0  -0.09447671730820006 0.7867395891156832 0  0.6114687813031348 -0.7066811130408857 0  -0.7452090822777149 -0.6152402372626035 0  -0.07150754167719184 -0.8813379081069823 0  0.6075512392546546 0.6059406931921818 0  1.167447728189308 0.1945508502509515 0  -0.7609817080681482 0.5173471199647254 0  -1.231045083713143 -0.03645381098042087 0  1.172004206248661 -0.2847941852034549 0  -1.037520239506703 -0.4384560477541897 0  -0.7949304577982307 -0.05486411173471538 0  -0.4700724491229798 -0.2290571036742727 0  -1.055463457948008 0.3394951018336397 0  0.2877054467813337 -0.8556114768699069 0  0.1427016137657986 -0.2914292366545141 0  0.2520437915960534 0.7460420473202148 0  0.3449618568775141 0.1967062120786186 0  0.6633052883755062 -0.04507393026196077 0  -0.4081693516813771 -0.7740097592418934 0  -0.4457696661410833 0.6933516586754729 0  -0.2698793440923061 0.2544526232084439 0  0.9226480591157181 -0.4843191247757269 0  0.9182551315881767 0.3911944223061223 0  0.4131927127013161 -0.3209861287996602 0  0.0354944136966959 0.248786669851472 0  -0.5352119470743915 0.194792948001154 0  -0.166618580630927 -0.2837776506980291 0  0.9502808374159171 -0.04524088757983978 0  1.358139129938263 -0.04364809629801757 0  0.7673247131097035 -0.5921718948971253 0  0.7837848839078904 -0.2741050182039341 0  0.6280443646221127 -0.3726416157013077 0  0.5368746028256286 -0.1789212402577205 0  0.5062879346613651 -0.5191748068390507 0  0.9292125673981834 -0.2633491751298441 0  0.8061786598725736 -0.04511354282363779 0  -0.915685433755004 0.1527187237266026 0  -1.142395420930327 0.1492041230764407 0  -1.017037466348366 -0.04492228646754082 0  -0.9065383747951989 -0.2556350267526144 0  -1.130113191048914 -0.2349379903444709 0  -1.30920346705029 -0.3283719482975259 0  -1.38049947782075 -0.1439366564561777 0  -1.39661610494545 0.0751954664845588 0  -1.318754930702878 0.2507845858115378 0  -0.1195112459224522 -0.5823508040337668 0  -0.280160904318997 -0.5348518232987722 0  -0.241355879413549 -0.8338008119466209 0  -0.3176789952115953 -0.2577638190376094 0  -0.434715631100315 -0.4987695577516338 0  -1.231947962871329 -0.5125858043034479 0  -1.243639640668946 0.4264717300122686 0  0.349236536545177 -0.5855764220142626 0  0.2769991273260619 -0.3078664144314733 0  0.2094829752504145 -0.5767978691650547 0  -0.9066515909601007 0.4232745183287581 0  -0.7686776871412143 0.2288374228746335 0  1.359688586499081 -0.3566608143775608 0  1.231388101663131 -0.5171287631363051 0  1.224079271250667 0.4254853469916929 0  1.354017115263469 0.2678186822058349 0  -0.7548185067425173 -0.8950923186407302 0  -0.9296012299620345 -0.7558564639873672 0  -0.9357238097341579 0.6662899564299536 0  -0.7591874220177613 0.7966669677938362 0  0.7854993359016371 -0.8838755448975927 0  0.5933756361442761 -0.9967251547768654 0  0.5876860461403932 0.8924392365516538 0  0.7785867330618755 0.7839829990005152 0  0.
[...]
<PointData  Vectors="f_45"> 
<DataArray  type="Float64"  Name="f_45"  NumberOfComponents="3" format="ascii">2.1290428723817120e-01 5.5474878930981159e-02 0.0000000000000000e+00  2.0756352505914022e-01 7.7771625739529768e-02 0.0000000000000000e+00  2.1849507975421817e-01 4.8732048137792014e-02 0.0000000000000000e+00  1.9259419052918181e-01 1.1589810210999661e-01 0.0000000000000000e+00  2.0747620717357673e-01 9.0881940893311003e-02 0.0000000000000000e+00  1.5481295612548196e-01 1.6410159946202837e-01 0.0000000000000000e+00  2.4042280705701702e-01 4.0320477205006131e-02 0.0000000000000000e+00  3.7975039901240085e-02 7.1364557445830659e-02 0.0000000000000000e+00  -8.7289282340069510e-02 2.5344382238887359e-01 0.0000000000000000e+00  2.7428878781649035e-01 7.6211426452466660e-02 0.0000000000000000e+00  5.5248024785477530e-02 1.1511455577410391e-01 0.0000000000000000e+00  -2.2897065241756276e-02 2.1380425028757979e-01 0.0000000000000000e+00  1.4039121037771091e-01 1.9087285167069035e-01 0.0000000000000000e+00  -4.1841988174828218e-02 2.4153048121717133e-01 0.0000000000000000e+00  1.8881823118592073e-01 1.7181869896023541e-01 0.0000000000000000e+00  -5.2368948680979105e-02 3.1154750902230102e-02 0.0000000000000000e+00  -1.8059169480661899e-01 7.0643933137433348e-02 0.0000000000000000e+00  3.0320176752835487e-01 1.7305141684862507e-01 0.0000000000000000e+00  -2.4465820853157141e-02 4.1167444657909454e-02 0.0000000000000000e+00  -1.2920348744759902e-01 9.2123084992005819e-02 0.0000000000000000e+00  6.1076706365318131e-02 2.4985256306412776e-01 0.0000000000000000e+00  -6.1538417486493996e-02 2.0909754626434165e-01 0.0000000000000000e+00  6.5375941719171993e-02 2.3992706577374959e-01 0.0000000000000000e+00  -1.2794876912011138e-01 1.7223906550815707e-01 0.0000000000000000e+00  -3.0791140962780020e-02 1.5674643227720814e-01 0.0000000000000000e+00  4.4538184398149286e-02 2.0782717472978682e-01 0.0000000000000000e+00  -1.6239083574037050e-01 1.8695086011018144e-01 0.0000000000000000e+00  -6.7996086230222685e-02 2.0771834971550410e-01 0.0000000000000000e+00  -7.4839733851805215e-02 2.1076643139091619e-01 0.0000000000000000e+00  -1.1154542559989407e-01 1.9430632433090111e-01 0.0000000000000000e+00  -9.3618553260727294e-02 2.0455082388011694e-01 0.0000000000000000e+00  -1.2962513576145077e-01 1.7953739162025978e-01 0.0000000000000000e+00  -1.5591814675426380e-01 1.6132127701843194e-01 0.0000000000000000e+00  -1.3302099121332017e-01 1.8139819049971800e-01 0.0000000000000000e+00  -1.6309900506673328e-01 1.5025961179363009e-01 0.0000000000000000e+00  -1.8106436819720056e-01 1.3273133564629960e-01 0.0000000000000000e+00  -1.8177964577043626e-01 1.2905438482021719e-01 0.0000000000000000e+00  -1.9805225592215478e-01 1.0487939397162885e-01 0.0000000000000000e+00  -2.0233959712654373e-01 9.5276837286352348e-02 0.0000000000000000e+00  -2.1263607684616787e-01 6.9102737214346760e-02 0.0000000000000000e+00  -2.1908017799189000e-01 4.5602274845863301e-02 0.0000000000000000e+00  -2.2134144274952278e-01 3.2444922578595763e-02 0.0000000000000000e+00  -2.2329797540354812e-01 1.0869118279083120e-02 0.0000000000000000e+00  -2.2354985630596835e-01 -1.1761283148362115e-02 0.0000000000000000e+00  -2.2094473295234957e-01 -3.3783859484334267e-02 0.0000000000000000e+00  -2.1742505347332655e-01 -5.3264387011389518e-02 0.0000000000000000e+00  -2.1099349500483180e-01 -7.4051519251250864e-02 0.0000000000000000e+00  -1.9991039467989921e-01 -1.0028122969123655e-01 0.0000000000000000e+00  -1.9507506441409436e-01 -1.0979320299575583e-01 0.0000000000000000e+00  -1.8318081578666989e-01 -1.2815192339491738e-01 0.0000000000000000e+00  -1.5785624975701937e-01 -1.5829756774398052e-01 0.0000000000000000e+00  -1.6015282582529150e-01 -1.5794582393359252e-01 0.0000000000000000e+00  -1.2103503485662101e-01 -1.8682751200041239e-01 0.0000000000000000e+00  -1.4655966038013504e-01 -1.6808190422174946e-01 0.0000000000000000e+00  -1.2195218607384302e-01 -1.7545017156221185e-01 0.0000000000000000e+00  -1.9950394919941748e-02 -2.3687768503495765e-01 0.0000000000000000e+00  -1.3531122617207461e-01 -1.7586887862056877e-01 0.0000000000000000e+00  -8.6899886422362946e-02 -1.8603084522604157e-01 0.0000000000000000e+00  2.4911370970785037e-03 -2.3209479584872308e-01 0.0000000000000000e+00  -7.8721087022918954e-02 -2.1117539746754085e-01 0.0000000000000000e+00  4.1396079807269363e-03 -2.2888118056258247e-01 0.0000000000000000e+00  -1.5591536736811862e-01 -1.9266863450179283e-01 0.0000000000000000e+00  6.9417193761115284e-02 -1.2450140346874124e-01 0.0000000000000000e+00  1.0893307572352767e-01 -1.0310338466340965e-01 0.0000000000000000e+00  -2.4560853144389133e-01 -1.7253079038397737e-01 0.0000000000000000e+00  8.6611799296181680e-02 -2.0307332331031849e-01 0.0000000000000000e+00  5.9927663253435490e-03 -1.8202501491202264e-01 0.0000000000000000e+00  4.0929077424569651e-02 -2.3342780218319140e-01 0.0000000000000000e+00  -1.9915303749615289e-03 -7.5643138874490715e-02 0.0000000000000000e+00  -1.1330701444936250e-01 -1.3220664461907300e-01 0.0000000000000000e+00  2.5946874389968105e-01 -1.9094011734885721e-01 0.0000000000000000e+00  -1.2672984037446131e-01 3.0810780714841154e-02 0.0000000000000000e+00  -5.1789556657783668e-02 8.9217261895183045e-02 0.0000000000000000e+00  2.0751566918583789e-01 -6.4239384417288076e-02 0.0000000000000000e+00  1.2863246656998693e-02 -2.3686879137162214e-01 0.0000000000000000e+00  1.2630406791968324e-01 -1.9547250636217020e-01 0.0000000000000000e+00  1.5412975852670407e-01 -1.3600298008329886e-01 0.0000000000000000e+00  1.3863468928045403e-01 -1.8071270545514037e-01 0.0000000000000000e+00  2.0994750697233056e-01 -2.3627383550825071e-02 0.0000000000000000e+00  5.0442065037151741e-02 1.0060326395122859e-01 0.0000000000000000e+00  -1.9828467971215281e-02 -1.9296596838177177e-01 0.0000000000000000e+00  1.7952134563388161e-01 6.3633162125291201e-02 0.0000000000000000e+00  9.4037618056852318e-02 2.1491547995893118e-01 0.0000000000000000e+00  2.4391329467331538e-01 8.7651953848480527e-02 0.0000000000000000e+00  1.8155861216246169e-01 -1.3147270966197380e-01 0.0000000000000000e+00  1.0486372724071760e-01 7.1388121189829817e-02 0.0000000000000000e+00  1.2023220104443422e-01 2.6880829264663061e-02 0.0000000000000000e+00  2.1727027287699791e-01 -7.5715006060981457e-02 0.0000000000000000e+00  2.7107149705330246e-02 2.6415872342828184e-01 0.0000000000000000e+00  5.7630697085173876e-02 -1.4115435190377712e-01 0.0000000000000000e+00  1.7383484469360305e-01 -2.1513791497713666e-02 0.0000000000000000e+00  1.8069693655922864e-01 1.5035907507485641e-01 0.0000000000000000e+00  1.7429507000817676e-01 9.7022878667238271e-02 0.0000000000000000e+00  1.4738587485647658e-01 1.9103183896894749e-01 0.0000000000000000e+00  1.6795496644729860e-02 2.2855324192075208e-01 0.0000000000000000e+00  1.8273317040240708e-01 8.3781158015192481e-02 0.0000000000000000e+00  1.5752245584950045e-02 1.1695978303292331e-02 0.0000000000000000e+00  -2.1530217636434129e-01 1.6455866141153544e-01 0.0000000000000000e+00  1.7395028863553416e-01 2.3304363656819643e-01 0.0000000000000000e+00  -6.2971644665210658e-02 1.5619693639434296e-01 0.0000000000000000e+00  -1.5991613203039885e-02 1.4894097157544614e-01 0.0000000000000000e+00  5.8447429279429815e-02 2.2169969117471347e-01 0.0000000000000000e+00  2.5892142381963540e-03 2.0447800529915749e-01 0.0000000000000000e+00  9.0985238536333266e-02 2.1769626890215513e-01 0.0000000000000000e+00  -1.8859644890165161e-01 1.9214705309034211e-01 0.0000000000000000e+00  7.9341202026973728e-02 1.1923136686789247e-01 0.0000000000000000e+00  8.9493977947802922e-02 1.5968133513540006e-01 0.0000000000000000e+00  -1.1376575300566900e-01 2.1980907631747543e-01 0.0000000000000000e+00  3.4321734935681700e-03 2.2319085931731172e-01 0.0000000000000000e+00  -3.8003989472688120e-02 2.2157751973511688e-01 0.0000000000000000e+00  -3.7905138300433641e-02 2.1900214872228371e-01 0.0000000000000000e+00  -2.6138189883797413e-02 2.2653726788437867e-01 0.0000000000000000e+00  -1.1979121680093141e-01 1.9034857204367553e-01 0.0000000000000000e+00  -4.1461256849018920e-02 2.0443720593885745e-01 0.0000000000000000e+00  -4.2210060763220009e-02 2.0288841501646435e-01 0.0000000000000000e+00  -1.4980764490055651e-01 1.7816776640519985e-01 0.0000000000000000e+00  -1.1392928345772942e-01 1.8962270535812298e-01 0.0000000000000000e+00  -1.5320398000078858e-01 1.6442754465642159e-01 0.0000000000000000e+00  -1.4508001546363083e-01 1.7201108800831216e-01 0.0000000000000000e+00  -1.7713541720980411e-01 1.3246044901964144e-01 0.0000000000000000e+00  -1.9900293158040097e-01 1.0423754961698994e-01 0.0000000000000000e+00  -1.9245658905634905e-01 1.1473276539682035e-01 0.0000000000000000e+00  -2.0982844574136414e-01 7.5654569737207925e-02 0.0000000000000000e+00  -2.1789736584560301e-01 5.2956337997292303e-02 0.0000000000000000e+00  -2.1978746299963928e-01 3.8675968611782810e-02 0.0000000000000000e+00  -2.2385637182529558e-01 1.0280399993750812e-02 0.0000000000000000e+00  -2.2320126340568416e-01 -1.1382899312206306e-02 0.0000000000000000e+00  -2.2072427359000246e-01 -3.7398316923083451e-02 0.0000000000000000e+00  -2.1512044793767085e-01 -6.0824442182945235e-02 0.0000000000000000e+00  -2.0916746818616039e-01 -7.9830141163448790e-02 0.0000000000000000e+00  -2.0002356083461853e-01 -9.9403386327240384e-02 0.0000000000000000e+00  -1.9308758251603719e-01 -1.1397012333535567e-01 0.0000000000000000e+00  -1.7592968837052003e-01 -1.3696720412818236e-01 0.0000000000000000e+00  -1.7584321267928454e-01 -1.3941494538612423e-01 0.0000000000000000e+00  -1.5846840006555543e-01 -1.5526547206647293e-01 0.0000000000000000e+00  -1.2513907050350156e-01 -1.8717929360202928e-01 0.0000000000000000e+00  -1.5596791707150592e-01 -1.6189300607523291e-01 0.0000000000000000e+00  -1.2378531894585736e-01 -1.8159007372661851e-01 0.0000000000000000e+00  -8.5618121454125951e-02 -2.0863142657793141e-01 0.0000000000000000e+00  -1.0288169828290793e-01 -1.9846033386390469e-01 0.0000000000000000e+00  -7.4799954539920721e-02 -2.1082694964573770e-01 0.0000000000000000e+00  -6.5575582147759492e-02 -2.1285710992249796e-01 0.0000000000000000e+00  -1.0619548553718323e-01 -2.0271596961255614e-01 0.0000000000000000e+00  -1.5638155886607080e-02 -2.1907459882211408e-01 0.0000000000000000e+00  -4.4210232489575174e-02 -2.0888266063498498e-01 0.0000000000000000e+00  -7.7356138273258018e-02 -2.0682743077087939e-01 0.0000000000000000e+00  2.1698967005771456e-02 -2.2865280614417166e-01 0.0000000000000000e+00  -3.5842304881551483e-02 -2.2013752400767067e-01 0.0000000000000000e+00  3.7337794533523955e-02 -2.2780446238366953e-01 0.0000000000000000e+00  -9.0707639956428721e-02 -1.9846470758664275e-01 0.0000000000000000e+00  9.2411422902889326e-03 -1.5146441533840421e-01 0.0000000000000000e+00  1.7517720662158159e-01 -1.9456164929375286e-01 0.0000000000000000e+00  -1.7440420800664072e-01 -1.9219003893567932e-01 0.0000000000000000e+00  -1.3484170681280074e-02 -1.5526863483746997e-01 0.0000000000000000e+00  1.2805411070338404e-01 -2.0395737012878778e-01 0.0000000000000000e+00  6.5886487877166236e-03 -2.2846467371334736e-01 0.0000000000000000e+00  1.1281334387575029e-01 -1.9501745118065955e-01 0.0000000000000000e+00  3.4760715428248691e-02 -2.2816524379201630e-01 0.0000000000000000e+00  1.2718728771742069e-01 -1.4443938559789593e-01 0.0000000000000000e+00  1.6133686730054836e-01 -1.1989409813128937e-01 0.0000000000000000e+00  -3.2738402285672208e-02 -2.6775858411749409e-01 0.0000000000000000e+00  1.4373130478628374e-01 -1.3277307464866553e-01 0.0000000000000000e+00  2.1020806309849840e-01 -9.2415084749329121e-02 0.0000000000000000e+00  1.7880971850895208e-01 -1.3039008008390418e-01 0.0000000000000000e+00  2.0749536645267713e-01 -8.8941979653555867e-02 0.0000000000000000e+00  2.1300604192899078e-01 -6.7972051245199686e-02 0.0000000000000000e+00  2.0180975786098679e-01 -8.6397392007158388e-02 0.0000000000000000e+00  2.0835365919394033e-01 -9.8065534209268071e-02 0.0000000000000000e+00  -2.1492351572978263e-01 -6.2294046885509963e-02 0.0000000000000000e+00  -4.0505096846955579e-02 -2.2013107183443659e-01 0.0000000000000000e+00  4.8016011357626114e-02 2.1858452580698884e-01 0.0000000000000000e+00  -2.1844575199658745e-01 4.8467129102583204e-02 0.0000000000000000e+00  -3.8384753398206323e-02 2.2053006162062802e-01 0.0000000000000000e+00  1.8111811139352563e-01 1.3160884502319961e-01 0.0000000000000000e+00  4.0527591183297206e-02 -2.2010764464093904e-01 0.0000000000000000e+00  2.2364188131963406e-01 -1.1650263218244172e-02 0.0000000000000000e+00  1.8858744081935977e-01 -1.2060581905703525e-01 0.0000000000000000e+00  1.3891834453316695e-01 1.7549071015062545e-01 0.0000000000000000e+00  2.2410353354610607e-01 4.9418061698862934e-04 0.0000000000000000e+00  1.6946217775721223e-01 1.4699092652420578e-01 0.0000000000000000e+00  1.1583486244170473e-01 -1.9156392582159848e-01 0.0000000000000000e+00  -1.8023822342797396e-01 -1.3258579846703769e-01 0.0000000000000000e+00  -1.3720136491235133e-01 -1.7873894704581836e-01 0.0000000000000000e+00  -1.8934755121278130e-01 1.1924593814609658e-01 0.0000000000000000e+00  9.1289504337607408e-02 2.0571251308887056e-01 0.0000000000000000e+00  2.2448403507506462e-01 -8.2987958208007619e-03 0.0000000000000000e+00  -1.0867706087559342e-01 1.9562465666020221e-01 0.0000000000000000e+00  -1.0156951956359843e-01 -1.9941370646952353e-01 0.0000000000000000e+00  2.8064636844120749e-02 -2.2308490460782635e-01 0.0000000000000000e+00  1.0764942050823335e-01 -1.9625678018817896e-01 0.0000000000000000e+00  9.9023732612232504e-02 2.0079463529849650e-01 0.0000000000000000e+00  6.7028058698251833e-02 -2.1409137481623827e-01 0.0000000000000000e+00  -2.2464154599673958e-01 -1.3565521436702229e-02 0.0000000000000000e+00  1.5509883297408231e-01 -1.6173052610122549e-01 0.0000000000000000e+00  -3.6753557473859472e-02 2.2236896979276474e-01 0.0000000000000000e+00  2.2388402720565290e-01 1.1263435617882866e-03 0.0000000000000000e+00  2.2374652483512159e-01 6.3522524896592924e-03 0.0000000000000000e+00  4.2092234044748475e-02 -2.1988562497761366e-01 0.0000000000000000e+00  1.7704150661613435e-01 -1.3739172004099900e-01 0.0000000000000000e+00  1.1121704438703853e-01 -1.9475850997975774e-01 0.0000000000000000e+00  1.8776529171210710e-01 -1.2315796107204821e-01 0.0000000000000000e+00  -4.0522465191070818e-03 -2.2404102044791765e-01 0.0000000000000000e+00  1.8941138150604456e-01 -1.1935932324161824e-01 0.0000000000000000e+00  2.2405808650904471e-01 -2.8064162385585388e-03 0.0000000000000000e+00  1.9080791883506526e-01 -1.1725555349569990e-01 0.0000000000000000e+00  1.9155068066008732e-01 -1.1618766118543673e-01 0.0000000000000000e+00  2.2367696131391027e-01 -9.7169186334403433e-03 0.0000000000000000e+00  1.9628901273836474e-01 1.0778338550690711e-01 0.0000000000000000e+00  2.0520013746502760e-01 8.9689345496797065e-02 0.0000000000000000e+00  1.8626051925636677e-01 1.2459643640734992e-01 0.0000000000000000e+00  2.2098348988507871e-01 3.1910224103362916e-02 0.0000000000000000e+00  2.2116028735946106e-01 -3.3803608646766514e-02 0.0000000000000000e+00  1.5336970190253199e-01 -1.6400163869400081e-01 0.0000000000000000e+00  -1.9299434944038979e-01 1.1354334749742176e-01 0.0000000000000000e+00  -9.6435482158758537e-02 2.0219326206042207e-01 0.0000000000000000e+00  -1.7858312292571585e-01 1.3483631901365925e-01 0.0000000000000000e+00  1.0594042834040958e-01 1.9838270343672509e-01 0.0000000000000000e+00  2.5697094233639380e-03 2.2399285918749917e-01 0.0000000000000000e+00  9.2237041520211130e-02 2.0423229249511440e-01 0.0000000000000000e+00  1.6530662330254523e-02 -2.2394836965273598e-01 0.0000000000000000e+00  -1.0720975112698974e-01 -1.9659596833269366e-01 0.0000000000000000e+00  -1.0713603499787640e-02 -2.2463214694414105e-01 0.0000000000000000e+00  -1.7527695916381575e-01 -1.3941166992715592e-01 0.0000000000000000e+00  8.8136513652703224e-02 -2.0573045188328309e-01 0.0000000000000000e+00  1.6166324681655084e-01 -1.5513339446581317e-01 0.0000000000000000e+00  1.6419980871228071e-01 -1.5199130395207383e-01 0.0000000000000000e+00  1.0245300580405937e-01 -1.9895690820414341e-01 0.0000000000000000e+00  7.9759541698759914e-02 2.0909914192341295e-01 0.0000000000000000e+00  1.5152129355352431e-01 1.6457180198162291e-01 0.0000000000000000e+00  -2.9805515869501493e-02 2.2169496897071586e-01 0.0000000000000000e+00  3.1772124003739466e-02 2.2124853824546711e-01 0.0000000000000000e+00  1.5273572241802241e-02 -2.2295559468756304e-01 0.0000000000000000e+00  -4.5048346898656465e-02 -2.1909664141114604e-01 0.0000000000000000e+00  -4.6126331414270617e-02 -2.1888298294587866e-01 0.0000000000000000e+00  -1.0963817170342892e-01 -1.9497352251820535e-01 0.0000000000000000e+00  -1.1115165051240460e-01 1.9412814748501311e-01 0.0000000000000000e+00  -4.9763014853448063e-02 2.1805800243548518e-01 0.0000000000000000e+00  -2.2365478975913353e-01 -5.9602671432221945e-03 0.0000000000000000e+00  -2.0718237201470760e-01 8.4449992452635611e-02 0.0000000000000000e+00  -2.0635846642774253e-01 -8.6429443398318595e-02 0.0000000000000000e+00  -2.2372333625240920e-01 -4.7338372363745526e-04 0.0000000000000000e+00  -1.1594266582820979e-01 -1.9138907162757823e-01 0.0000000000000000e+00  2.0586892332279971e-01 9.0390079089514477e-02 0.0000000000000000e+00  1.2245645187442494e-01 1.8799091742393648e-01 0.0000000000000000e+00  7.8619851418096137e-04 2.2423173538802779e-01 0.0000000000000000e+00  9.4288692801282686e-02 2.0322177175180411e-01 0.0000000000000000e+00  2.1455542468027697e-01 6.4892600593894123e-02 0.0000000000000000e+00  1.6404141435541578e-01 1.5257034133267092e-01 0.0000000000000000e+00  -7.6248293164581954e-02 2.1218088807124183e-01 0.0000000000000000e+00  8.4399571415597494e-02 -2.4576697473250253e-01 0.0000000000000000e+00  2.2174348516192458e-01 -5.4237990669430219e-02 0.0000000000000000e+00  5.7183475917001916e-02 2.1624888377034904e-01 0.0000000000000000e+00  3.3029156875952537e-02 -2.2114690154817410e-01 0.0000000000000000e+00  1.0235156958894143e-01 1.9902326304054607e-01 0.0000000000000000e+00  1.7973147038384019e-01 1.3392583150309906e-01 0.0000000000000000e+00  3.9529192634910414e-02 2.2038905014482912e-01 0.0000000000000000e+00  1.8758840785568487e-01 1.2225623251809455e-01 0.0000000000000000e+00  -1.2125772676627129e-01 1.8838596579134770e-01 0.0000000000000000e+00  -1.1955368692620112e-01 1.8918884279546100e-01 0.0000000000000000e+00  -2.2350864564319289e-01 -1.3607078610300909e-02 0.0000000000000000e+00  -2.1864548266241726e-01 -4.7575780490618086e-02 0.0000000000000000e+00  -6.4706096154608053e-02 -2.1445637029381190e-01 0.0000000000000000e+00  -1.6221706939793876e-01 -1.5448148038442333e-01 0.0000000000000000e+00  -1.6994557982885197e-01 -1.4561466426622433e-01 0.0000000000000000e+00  2.1898452582906588e-01 -5.3240712341469869e-02 0.0000000000000000e+00  -2.1592713540327813e-01 6.2979429367256853e-02 0.0000000000000000e+00  -1.6146739791102241e-01 -1.5481377956716613e-01 0.0000000000000000e+00  -2.0685047991000505e-01 -8.5228274151246425e-02 0.0000000000000000e+00  -2.1062610363944331e-01 7.5411050482586117e-02 0.0000000000000000e+00  -1.6781776981273600e-01 1.4792404067175230e-01 0.0000000000000000e+00  2.3777009557807302e-01 -8.6964871281524012e-02 0.0000000000000000e+00  -2.0614177311607806e-01 8.7469180762115448e-02 0.0000000000000000e+00  -2.2169429814864311e-01 3.0297045443371338e-02 0.0000000000000000e+00  -1.6313953877276374e-01 1.5310290147945804e-01 0.0000000000000000e+00  -9.2993471098358996e-02 2.0339325022313892e-01 0.0000000000000000e+00  -2.5031182697324593e-02 2.2238399552412658e-01 0.0000000000000000e+00  -1.0357607407301073e-01 -1.9825235617935610e-01 0.0000000000000000e+00  -1.6453589060859225e-01 -1.5158074900101812e-01 0.0000000000000000e+00  -2.5277125681007560e-02 -2.2236132953449708e-01 0.0000000000000000e+00  2.1070383924912237e-01 -7.6316682002248851e-02 0.0000000000000000e+00  8.890