<?xml version="1.0"?>
<VTKFile type="UnstructuredGrid"  version="0.1"  >
<UnstructuredGrid>
<Piece  NumberOfPoints="2549" NumberOfCells="4928">
<Points>
<DataArray  type="Float64"  NumberOfComponents="3"  format="ascii">1.618245106213434 -0.04491181847849551 0  1.608892044455734 -0.002310465862893441 0  1.605635013081149 0.03961830638997991 0  1.596635933677852 0.08315200146532155 0  1.585909541150056 0.125430241133141 0  1.575079182285975 0.1704375726535878 0  1.553886200056345 0.2138340255265793 0  1.559671755637453 0.2648596936672824 0  1.507884428980519 0.2977549107182242 0  1.48689995088419 0.3266422881971944 0  1.477020274296708 0.3961521223467545 0  1.439112867204423 0.4237149487758116 0  1.416410941941777 0.4700736777998406 0  1.382830477956676 0.5091822365707174 0  1.338570542643717 0.5453218757208119 0  1.329422241429367 0.6059271380132952 0  1.255647993201051 0.6075796608299489 0  1.230952153798003 0.6339456413112106 0  1.198865546967073 0.7125413850938298 0  1.152727414071323 0.7158689834775143 0  1.13020860606756 0.7703914061890129 0  1.082658498462436 0.7890925194711246 0  1.046969912898244 0.8328147663730557 0  1.00306520675909 0.8675833127856496 0  0.9550038117064127 0.9028954394117943 0  0.9366285660782435 0.9653713743885596 0  0.8733806908863263 0.9849949725517606 0  0.8277883521579226 1.01216135898418 0  0.782987328163724 1.05551024403409 0  0.7325132376082388 1.084370025051303 0  0.6817144038534553 1.116026516923559 0  0.6324005689417361 1.147176764000392 0  0.5779474974646216 1.174879858632108 0  0.5238272495323731 1.198576743576777 0  0.4705996034678821 1.224986554150252 0  0.4132020874886652 1.245606932492993 0  0.3571282628079813 1.265306156179432 0  0.2990519556943668 1.281147349555448 0  0.2406574461897598 1.295748545613973 0  0.1820160119685432 1.307340925307135 0  0.121717408431478 1.315320210345895 0  0.06213031074470907 1.320717106930927 0  0.001893323789046962 1.323809087731162 0  -0.05832408707763061 1.323524714003828 0  -0.1185936498139705 1.320363748803537 0  -0.1785434763322828 1.314002808711768 0  -0.2383378311591577 1.304975050346052 0  -0.2974459603739054 1.292486622343332 0  -0.3555238599326245 1.277145231556877 0  -0.4141542698653735 1.259188127334352 0  -0.4704289345748519 1.238499367989073 0  -0.5252489567537031 1.213200764243059 0  -0.5812247188750229 1.190992514268052 0  -0.6334357807366239 1.162815659392657 0  -0.686260906978617 1.129407488221161 0  -0.7340963594686047 1.094785778839283 0  -0.7845672686928233 1.068972460383484 0  -0.836008782081456 1.030808069375384 0  -0.8727254305125398 0.9872472418336545 0  -0.9236576605186269 0.9545326117756142 0  -0.9640258953346454 0.9159834672170503 0  -1.015997588561526 0.8992619273719229 0  -1.055055267227033 0.8585906086770505 0  -1.085547943764889 0.7818157988222185 0  -1.127152037370317 0.7578950066111148 0  -1.192680012801338 0.747306257703574 0  -1.203397449904966 0.6854254520800067 0  -1.242767101554732 0.6714829297087175 0  -1.280765958234903 0.6030935114513412 0  -1.31485995653259 0.5915057220781338 0  -1.366595216556124 0.5381017054347537 0  -1.370091707764892 0.4887892432458233 0  -1.454300882810854 0.5075602592856264 0  -1.469009791552258 0.4335780074846853 0  -1.493284890207258 0.3954120957371796 0  -1.518112531150276 0.348473844747601 0  -1.54330910904547 0.3062336068924691 0  -1.555518015841385 0.2547249802730292 0  -1.577105538013369 0.2182715847302053 0  -1.561038121625175 0.1418666950899697 0  -1.594941060509355 0.1384063168035865 0  -1.608533597525442 0.08735576368249227 0  -1.574456974307537 0.03580150672137712 0  -1.565623106108164 -0.0008743794095196905 0  -1.562174132613165 -0.04332345556714581 0  -1.575339087936776 -0.07427511676511497 0  -1.553171938295008 -0.1128385847069219 0  -1.570462389259013 -0.1561217658384986 0  -1.552530770696657 -0.2067386600637794 0  -1.53072142763136 -0.2156664131667378 0  -1.557485475087127 -0.2838475054973559 0  -1.53680757087495 -0.3266042074667415 0  -1.52883286717166 -0.3835211879687563 0  -1.504067337065849 -0.4295291050908092 0  -1.480080261967145 -0.4782796558101614 0  -1.444304006632882 -0.5118434430778931 0  -1.445194750188978 -0.5839505079477161 0  -1.371892107883238 -0.6031442153263026 0  -1.342198135597651 -0.6251480836800911 0  -1.306019169830058 -0.6768098441358478 0  -1.275651017204355 -0.6938000202687012 0  -1.244585689547789 -0.7492041712425082 0  -1.20706003455973 -0.7726404160892766 0  -1.190489422425625 -0.8268122896608046 0  -1.13335086187208 -0.8444780024652604 0  -1.096465594101095 -0.8745226009632941 0  -1.07138815997182 -0.9485108485773205 0  -1.028919534200406 -0.986213658786965 0  -0.9802462562455837 -1.012947927638485 0  -0.9392411159087709 -1.05464045113685 0  -0.8961148078923052 -1.095207085664714 0  -0.852735927704386 -1.137180184991065 0  -0.7994988276888263 -1.168430230744181 0  -0.749303791057677 -1.19989334141547 0  -0.7092685683842965 -1.25394427181536 0  -0.6474673004752202 -1.280171056564649 0  -0.595246608346199 -1.306307770982811 0  -0.5387361529899397 -1.334074700285732 0  -0.4819454012981085 -1.359574930426751 0  -0.4265024789648447 -1.383889929299558 0  -0.3651172387662165 -1.402433888238706 0  -0.3064877264872935 -1.418057117375936 0  -0.24663095296764 -1.431977083360391 0  -0.1855400133901827 -1.441103716678537 0  -0.1246726910555476 -1.448186923069908 0  -0.06323005437030957 -1.451438359822446 0  -0.001778099648928225 -1.451691356825254 0  0.05961565256886668 -1.448295283748038 0  0.1209125456070245 -1.441591828370718 0  0.1812786205979292 -1.431572760032216 0  0.241282258853908 -1.419145240158881 0  0.3002549141044577 -1.403441664314365 0  0.35907391609655 -1.386234608108662 0  0.4159438681810919 -1.365192689571472 0  0.4734217310623588 -1.343282732883607 0  0.5278844714978789 -1.315548008400451 0  0.581258067172601 -1.292418475269796 0  0.6373261877655459 -1.263567088002501 0  0.6856265068097693 -1.230021726607514 0  0.7379112631830431 -1.19896864094412 0  0.7874368871905859 -1.166409487744586 0  0.8334663326329306 -1.127502757703636 0  0.8793279029072822 -1.095537212180293 0  0.9337055022023817 -1.06935040063743 0  0.9652037799681324 -1.021032055634403 0  1.009546580185016 -0.9831466068900206 0  1.05567800263351 -0.9482989623629777 0  1.093548939470782 -0.9058797030148467 0  1.132904658875088 -0.8714463937131117 0  1.17149971749687 -0.8335786680366106 0  1.211674545664367 -0.8057088257277435 0  1.235275066996541 -0.7384295471507626 0  1.273828532880433 -0.7238571945901515 0  1.329688097223896 -0.6954640831126213 0  1.344488485338234 -0.6434017211176838 0  1.38612702233752 -0.6074001054226786 0  1.418624947861784 -0.5666003638351919 0  1.446289426391313 -0.5212521540161356 0  1.480578419856105 -0.4865306589287787 0  1.494383309679224 -0.4230215397408509 0  1.52038335361802 -0.3975257564378751 0  1.556585148267417 -0.3560308135203545 0  1.56218932761262 -0.307054823127122 0  1.579184582179721 -0.2621595485113883 0  1.589508867752635 -0.2165885713443515 0  1.598807133057613 -0.1729085767688668 0  1.604701807018151 -0.1293937257650312 0  1.615047409412163 -0.08980909714010508 0  -0.1012610601256708 0.7884062399834341 0  0.5968845812219078 -0.7118119292914021 0  -0.750966196503504 -0.6192895845942915 0  -0.08113598040121255 -0.8894408995525389 0  0.5941169313240279 0.6028959979639187 0  1.152828228928435 0.1890320102917159 0  -0.7665194844715937 0.513675106799082 0  -1.235729504089184 -0.03864951025168101 0  1.156175252348665 -0.2872974598379323 0  -1.041263710631691 -0.4399491815302902 0  -0.800286802296758 -0.05733066108719299 0  -0.4767038483350265 -0.2326970586056436 0  -1.062665507249143 0.3360441667006672 0  0.2762938714932766 -0.8634476654670933 0  0.1317983347726835 -0.2961034717864066 0  0.243036537610316 0.7471684858800708 0  0.3329772294628572 0.1939372938723469 0  0.6492347140597413 -0.0491323503377863 0  -0.4163687351970637 -0.7806042879650181 0  -0.4509902796563117 0.6924330680947974 0  -0.2771694449676307 0.252657940044742 0  0.9057406415719726 -0.4861407859360099 0  0.9022819615121073 0.3833256510939315 0  0.4002237388552335 -0.3255098063681968 0  0.02610224033495449 0.2470685557608742 0  -0.5414449038867266 0.1924066212718253 0  -0.175241110508153 -0.2882359369713556 0  0.9355886531229579 -0.04940222072988124 0  1.343155400501262 -0.04737349684454793 0  0.7510764248478478 -0.5953657913734095 0  0.7687235646545715 -0.2774323001499889 0  0.6134818796045116 -0.3765563126477486 0  0.5232721294726118 -0.1829194323885849 0  0.4924358857296942 -0.5241142367053681 0  0.9137772546816088 -0.2662295900830365 0  0.7916646122665838 -0.04928096918674833 0  -0.9215795553849302 0.1501560350214254 0  -1.148616527667237 0.1466515261982353 0  -1.021994808313463 -0.0470396418001949 0  -0.9110670273625121 -0.2578700527305172 0  -1.134058360530721 -0.2366558549059262 0  -1.312553813552964 -0.3300989940887496 0  -1.384026526518472 -0.1463098058456365 0  -1.402206464933703 0.07206323954622031 0  -1.326658564808154 0.2476163770752093 0  -0.1287220549473005 -0.5886162446758141 0  -0.2883285053614405 -0.5405385971731448 0  -0.2503236349016367 -0.8412272048067321 0  -0.3252629652274147 -0.2618550578016837 0  -0.4418835267525131 -0.503818408999913 0  -1.235115809738977 -0.5129884119675677 0  -1.253075365617035 0.421590476403934 0  0.3367095646831458 -0.5915241663748874 0  0.265061044196736 -0.3125475927349704 0  0.1980294893338707 -0.5830318647777613 0  -0.9130925562028329 0.4195299202292807 0  -0.7746288956485889 0.2261419098217133 0  1.343034847492074 -0.3596355970073134 0  1.213013390470554 -0.5182701857602235 0  1.209282535393977 0.4191884055230044 0  1.338526161057709 0.2631628050514443 0  -0.7625771346449731 -0.9002529260067028 0  -0.9356895267576988 -0.7588020922073911 0  -0.9412897691179536 0.6605757017490066 0  -0.7623587995064716 0.791841152687795 0  0.7704734057541052 -0.8880653316490642 0  0.5811817657737682 -1.003665127517102 0  0.5784611493537274 0.8915112085502086 0  0.7654993634242319 0.7790128888408393 0  0.00759256458031
[...]
<PointData  Vectors="f_8142"> 
<DataArray  type="Float64"  Name="f_8142"  NumberOfComponents="3" format="ascii">-4.2103710594802051e-04 1.4840038472580216e-04 0.0000000000000000e+00  -4.2483804011687366e-04 1.4477023965350623e-04 0.0000000000000000e+00  -4.2871435170733498e-04 1.4591471267172773e-04 0.0000000000000000e+00  -4.3765949607533415e-04 1.4380464058357575e-04 0.0000000000000000e+00  -4.3864431750252381e-04 1.4918221171304749e-04 0.0000000000000000e+00  -4.6160441132078690e-04 1.4709179022850711e-04 0.0000000000000000e+00  -5.1590347874201615e-04 1.5371935970241786e-04 0.0000000000000000e+00  -4.6147371788738073e-04 1.7018134690225607e-04 0.0000000000000000e+00  -4.8495996264461997e-04 1.7791847111375394e-04 0.0000000000000000e+00  -5.7885334461759796e-04 1.0910511366319090e-04 0.0000000000000000e+00  -6.0824547806419293e-04 9.9919216637477586e-05 0.0000000000000000e+00  -5.4156213823870747e-04 1.1047214361764016e-04 0.0000000000000000e+00  -4.5126648680495651e-04 1.2393775285760307e-04 0.0000000000000000e+00  -5.6958244916214217e-04 2.7935190757297263e-05 0.0000000000000000e+00  -5.9635771156781362e-04 1.1782983670157245e-04 0.0000000000000000e+00  -6.1927233220668125e-04 1.9696071184740184e-04 0.0000000000000000e+00  -5.4650156139131713e-04 2.6746655658235264e-04 0.0000000000000000e+00  -8.1011281958310341e-04 1.4048009541778476e-05 0.0000000000000000e+00  -7.0197241967554717e-04 7.7809998937327008e-05 0.0000000000000000e+00  -7.7899224042883325e-04 -9.7243797523751389e-05 0.0000000000000000e+00  -5.6956010587765591e-04 2.1950619618271936e-04 0.0000000000000000e+00  -7.3526127825199389e-04 -2.2901843541848964e-04 0.0000000000000000e+00  -5.1322731172173154e-04 -1.2100027618413260e-04 0.0000000000000000e+00  -6.5074555809669331e-04 -2.4736486058679781e-04 0.0000000000000000e+00  -6.3319681823328520e-04 -1.4682442611970125e-04 0.0000000000000000e+00  -6.9808438986456020e-04 -1.8107910427586396e-04 0.0000000000000000e+00  -4.9837664161257234e-04 2.2647917328750289e-04 0.0000000000000000e+00  -6.9222633525036642e-04 -2.1615273387910579e-04 0.0000000000000000e+00  -4.9834282856877851e-04 -3.4732562305291019e-05 0.0000000000000000e+00  -5.1594312395207142e-04 -2.3271103586678069e-06 0.0000000000000000e+00  -5.2493544091724892e-04 -5.2146997869018127e-05 0.0000000000000000e+00  -4.9446117163654381e-04 2.0332284422267918e-08 0.0000000000000000e+00  -5.0666149501709973e-04 -8.7776264021276600e-06 0.0000000000000000e+00  -5.1028185956424055e-04 9.8860219896247939e-07 0.0000000000000000e+00  -4.9540873224006266e-04 3.2715080527435198e-05 0.0000000000000000e+00  -5.1590644489931628e-04 2.2804241868322165e-05 0.0000000000000000e+00  -5.1395049171792928e-04 2.2474090501996761e-05 0.0000000000000000e+00  -5.2482942988697095e-04 2.1325910353497924e-05 0.0000000000000000e+00  -5.3194685319656976e-04 1.9488708155135369e-05 0.0000000000000000e+00  -5.4164113781381455e-04 9.8325681170469197e-06 0.0000000000000000e+00  -5.5163162278077326e-04 4.1688247392128414e-06 0.0000000000000000e+00  -5.6252961855316147e-04 -8.1932565014635469e-06 0.0000000000000000e+00  -5.7358339004658380e-04 -2.4881979522272325e-05 0.0000000000000000e+00  -5.8299243041100572e-04 -4.3355953449917150e-05 0.0000000000000000e+00  -5.9274793185817767e-04 -6.5826797017960137e-05 0.0000000000000000e+00  -5.9982472713018386e-04 -9.0926096788977959e-05 0.0000000000000000e+00  -6.0718132965227741e-04 -1.2021429102885622e-04 0.0000000000000000e+00  -6.1068449401327019e-04 -1.5025869022060412e-04 0.0000000000000000e+00  -6.1435827378859343e-04 -1.8004622732012077e-04 0.0000000000000000e+00  -6.0841200796783962e-04 -2.3020468830422088e-04 0.0000000000000000e+00  -6.2498225479370225e-04 -2.1918974537047425e-04 0.0000000000000000e+00  -6.1153168580875984e-04 -2.7332060208059146e-04 0.0000000000000000e+00  -5.9675399233371270e-04 -3.6740994564401662e-04 0.0000000000000000e+00  -5.9231679596530914e-04 -3.7376661599978562e-04 0.0000000000000000e+00  -6.1013422876636926e-04 -3.4763665613836176e-04 0.0000000000000000e+00  -6.2852483455881668e-04 -4.2710994919844061e-04 0.0000000000000000e+00  -4.5512951106230454e-04 -7.3026131779762942e-04 0.0000000000000000e+00  -7.6217234418338067e-04 -3.1619419921284924e-04 0.0000000000000000e+00  -5.1101785342485162e-04 -6.3475165484562675e-04 0.0000000000000000e+00  -4.7868826885120948e-04 -3.7080245424762226e-04 0.0000000000000000e+00  -6.4730909498665395e-04 -5.8585346667869103e-04 0.0000000000000000e+00  -1.3717622247449792e-04 -1.3589449901872826e-03 0.0000000000000000e+00  -7.4938059308071367e-04 -5.4320588989652534e-04 0.0000000000000000e+00  -3.7060206741292755e-04 -7.7533952711896078e-04 0.0000000000000000e+00  -3.8335405280009777e-04 -5.4099066979822197e-04 0.0000000000000000e+00  -3.9739598904343530e-04 -4.9501809073491823e-04 0.0000000000000000e+00  -4.4773104529300024e-04 -5.4027971377746244e-04 0.0000000000000000e+00  -2.3876838584777296e-04 -6.6836131711242846e-04 0.0000000000000000e+00  -6.3481412551131752e-04 -5.4607584436190139e-04 0.0000000000000000e+00  -5.7163856825173003e-04 -9.5949135003426853e-04 0.0000000000000000e+00  -6.9117493827036290e-04 -9.7208504222772753e-04 0.0000000000000000e+00  -1.4514902840510600e-04 -9.0351985251309243e-04 0.0000000000000000e+00  5.2620705596405910e-05 -7.1044723928392775e-04 0.0000000000000000e+00  -2.1768725138622411e-04 -7.1853932271614203e-04 0.0000000000000000e+00  -2.1374689250390505e-04 -7.0447947325632013e-04 0.0000000000000000e+00  -2.0953041461337495e-04 -7.0573955478463234e-04 0.0000000000000000e+00  -2.1405565458100081e-04 -6.9356682766896500e-04 0.0000000000000000e+00  -1.9149779304182703e-04 -6.7940322131380092e-04 0.0000000000000000e+00  -1.5906015646865982e-04 -6.7127716806069694e-04 0.0000000000000000e+00  -1.6473225000418766e-04 -6.6533165990861941e-04 0.0000000000000000e+00  -1.8770176034241156e-04 -6.3632589234958515e-04 0.0000000000000000e+00  -1.3292598724731858e-04 -6.4407711560760027e-04 0.0000000000000000e+00  -1.2786658873683597e-04 -6.4175342852015589e-04 0.0000000000000000e+00  -1.3212085259625635e-04 -6.4930069033559414e-04 0.0000000000000000e+00  -1.2596929082139125e-04 -6.4655810113467007e-04 0.0000000000000000e+00  -6.7781278802680277e-05 -6.4816622697681933e-04 0.0000000000000000e+00  -8.2263238083371521e-05 -6.3187870393285352e-04 0.0000000000000000e+00  -5.3540721347953516e-05 -6.3126793617940670e-04 0.0000000000000000e+00  -4.7250315855517397e-05 -6.2016942437690466e-04 0.0000000000000000e+00  -4.8734205492069051e-05 -6.1445891999018366e-04 0.0000000000000000e+00  -2.7073619529877330e-05 -6.0402940151821013e-04 0.0000000000000000e+00  -3.6507973639837910e-05 -6.0288309370770937e-04 0.0000000000000000e+00  -3.7748928072975260e-05 -5.9478067037591585e-04 0.0000000000000000e+00  -3.7564256119601406e-05 -5.9144736748065500e-04 0.0000000000000000e+00  -3.9999149836192181e-05 -5.9074299800959511e-04 0.0000000000000000e+00  -3.2086338676785432e-05 -5.8627236542037548e-04 0.0000000000000000e+00  -6.3518665684113651e-05 -6.0643166965030455e-04 0.0000000000000000e+00  -1.1483679741358647e-04 -7.1135175836228501e-04 0.0000000000000000e+00  -1.8672688756405337e-05 -5.6365840343706552e-04 0.0000000000000000e+00  -5.3924315653553833e-05 -5.6397459308706206e-04 0.0000000000000000e+00  -7.2820966010442317e-05 -5.9471811536513633e-04 0.0000000000000000e+00  -1.4578340468869503e-05 -6.3288722097521225e-04 0.0000000000000000e+00  1.1910263755320364e-06 -5.6843744651185123e-04 0.0000000000000000e+00  -1.6171315362354820e-04 -6.9072800302904071e-04 0.0000000000000000e+00  -7.7047404108196866e-05 -6.1359273449168160e-04 0.0000000000000000e+00  2.2378131009008233e-05 -4.1891579360416671e-04 0.0000000000000000e+00  -3.2456219449815822e-04 -5.9621896751732746e-04 0.0000000000000000e+00  7.5599130140424335e-05 -2.4442977554929281e-04 0.0000000000000000e+00  -2.3140264715824311e-04 -5.6579603895418951e-04 0.0000000000000000e+00  -1.2647308276587211e-04 -6.4683134026044748e-04 0.0000000000000000e+00  -1.0546505111421306e-05 -4.7616863556605206e-04 0.0000000000000000e+00  -1.4799410350324618e-04 -5.6552608798461526e-04 0.0000000000000000e+00  -1.3409401204401834e-04 -6.7170871700423661e-04 0.0000000000000000e+00  6.3004847285339757e-05 -4.2709245933786127e-04 0.0000000000000000e+00  -1.2263978249453563e-04 -5.5815939792459358e-04 0.0000000000000000e+00  -7.5456605796514912e-05 -7.6175580824775521e-04 0.0000000000000000e+00  -1.3846454442269945e-05 -4.5779621332466837e-04 0.0000000000000000e+00  -2.0202676240283752e-05 -5.3236656474270913e-04 0.0000000000000000e+00  -1.6698477236810389e-06 -4.6523122145740610e-04 0.0000000000000000e+00  -2.4053786633507002e-05 -4.8597636984294820e-04 0.0000000000000000e+00  -4.2561608664071020e-06 -4.6826265313143272e-04 0.0000000000000000e+00  -3.2643453280794990e-06 -4.5584451800477976e-04 0.0000000000000000e+00  -2.5758132240701310e-06 -4.4577932810817484e-04 0.0000000000000000e+00  4.8512801510875368e-06 -4.4155766314163197e-04 0.0000000000000000e+00  6.6066047395739333e-06 -4.3116054775195332e-04 0.0000000000000000e+00  1.1983750075309013e-05 -4.2032303917130748e-04 0.0000000000000000e+00  1.5236699041330358e-05 -4.0918188445069736e-04 0.0000000000000000e+00  1.8883752968694735e-05 -3.9658547201163054e-04 0.0000000000000000e+00  2.1992351228750113e-05 -3.8368751985524226e-04 0.0000000000000000e+00  2.3604676270641086e-05 -3.6834980740547654e-04 0.0000000000000000e+00  2.5941863982178940e-05 -3.5314191036083745e-04 0.0000000000000000e+00  2.3129993649709424e-05 -3.3403011166791778e-04 0.0000000000000000e+00  2.6185431342197458e-05 -3.1755477322191911e-04 0.0000000000000000e+00  1.4261388325785906e-05 -2.9617672869269103e-04 0.0000000000000000e+00  2.7350394444911010e-05 -2.9901695620509610e-04 0.0000000000000000e+00  6.7137425632672034e-06 -2.4343176141063865e-04 0.0000000000000000e+00  -9.7692066041452410e-06 -2.0533115394613815e-04 0.0000000000000000e+00  3.6167135765018857e-05 -2.6386694157026969e-04 0.0000000000000000e+00  -4.0237838836149299e-05 -1.4480465640163322e-04 0.0000000000000000e+00  -5.6331901260943954e-05 -1.3736588080177586e-04 0.0000000000000000e+00  -2.4412757839170954e-05 -1.5765874386044996e-04 0.0000000000000000e+00  -1.7919929954020737e-04 3.2535975956750141e-05 0.0000000000000000e+00  -1.3498207176348951e-05 -3.3429109483929279e-04 0.0000000000000000e+00  -3.7054216631097482e-05 -7.5869669593936072e-05 0.0000000000000000e+00  -3.5994548261048843e-04 1.1016191455777144e-04 0.0000000000000000e+00  -8.3480576738695911e-05 -1.1469597996237553e-04 0.0000000000000000e+00  -1.2835152874718971e-04 -4.1286824325566461e-06 0.0000000000000000e+00  -2.2828957338428827e-04 7.0377300969963558e-05 0.0000000000000000e+00  -2.7736833481073394e-04 1.3304201929729682e-04 0.0000000000000000e+00  -1.8770697910848515e-04 -3.5916807472446017e-05 0.0000000000000000e+00  -2.2883270303337996e-04 1.2008729853211539e-05 0.0000000000000000e+00  -2.7368717343101054e-04 8.5280232319880588e-05 0.0000000000000000e+00  -2.4833725222777806e-04 8.9478800852202343e-05 0.0000000000000000e+00  -5.4883764858426360e-05 -4.5446133217156664e-05 0.0000000000000000e+00  -3.0190206226231114e-04 9.5037779821297073e-05 0.0000000000000000e+00  -2.8524508065986279e-04 1.1304685205470404e-04 0.0000000000000000e+00  -2.3315381508464414e-04 8.6296902285973681e-05 0.0000000000000000e+00  -2.7037618507463413e-04 9.4886832407598863e-05 0.0000000000000000e+00  -2.7699061490349104e-04 8.4761397912024847e-05 0.0000000000000000e+00  -3.2426230088489379e-04 1.2230803190675505e-04 0.0000000000000000e+00  -3.1535055857242447e-04 1.1601119183070629e-04 0.0000000000000000e+00  -2.7356541559654023e-04 1.2620184593713978e-04 0.0000000000000000e+00  -3.7518549230348822e-04 1.3163064048696841e-04 0.0000000000000000e+00  -3.5229470343488463e-04 1.3466720119928425e-04 0.0000000000000000e+00  -3.6371553090477313e-04 1.3873663017183654e-04 0.0000000000000000e+00  -3.7489227182976984e-04 1.4229889180859007e-04 0.0000000000000000e+00  -3.8916568118156636e-04 1.4773999628792805e-04 0.0000000000000000e+00  -4.1320341762545229e-04 1.5085060267370400e-04 0.0000000000000000e+00  -4.3194711438887290e-04 -1.2855908309703480e-04 0.0000000000000000e+00  -2.0243489192941141e-04 -1.5696012022065837e-04 0.0000000000000000e+00  -9.1397394536480084e-05 -4.8124066045388090e-04 0.0000000000000000e+00  -1.0594859566673513e-04 -3.6223271764436948e-04 0.0000000000000000e+00  -5.2192730732465882e-04 -8.2775781494882566e-05 0.0000000000000000e+00  -4.3744051781490975e-04 7.4983781035278073e-06 0.0000000000000000e+00  -3.1199627543724689e-04 -4.3509401419549918e-04 0.0000000000000000e+00  -1.1761753227496180e-04 -5.6704639398159396e-04 0.0000000000000000e+00  -3.1746592885098968e-04 2.0674682493842625e-05 0.0000000000000000e+00  -8.5381801660636556e-05 -5.2551879479724841e-04 0.0000000000000000e+00  -1.5432262742607640e-04 -4.4199701624667731e-04 0.0000000000000000e+00  -1.6309809267228817e-04 -3.7303249078349092e-04 0.0000000000000000e+00  -2.5431262588409008e-04 -5.1834359633959846e-04 0.0000000000000000e+00  -1.3273844128064316e-04 -2.7272387985187050e-04 0.0000000000000000e+00  -2.3117451148265954e-04 -2.3809687380127957e-04 0.0000000000000000e+00  -4.6922909618895994e-04 -6.5962604231103224e-05 0.0000000000000000e+00  -3.6457631585251111e-04 -1.4470187444976705e-04 0.0000000000000000e+00  -3.4180057912101206e-04 -1.1069421316456476e-04 0.0000000000000000e+00  -1.1009281821198135e-04 -4.3204685921342638e-04 0.0000000000000000e+00  -3.7495190797248436e-04 -2.7553391449233663e-04 0.0000000000000000e+00  -2.7973652489899563e-04 -2.6028680988478601e-04 0.0000000000000000e+00  -2.7168250706077486e-04 -4.1715529145189765e-05 0.0000000000000000e+00  -4.9556267735230745e-04 -9.0823011503264115e-05 0.0000000000000000e+00  -2.5759729615583443e-04 -1.7942768025125719e-04 0.0000000000000000e+00  -3.2558021497957734e-04 -1.8748474556108045e-04 0.0000000000000000e+00  -2.3443987003977259e-04 -3.4733585476794137e-04 0.0000000000000000e+00  -1.9315330037627127e-04 -3.0747626646147343e-04 0.0000000000000000e+00  -3.5969926164034464e-04 -4.6545878699749839e-05 0.0000000000000000e+00  -3.8449697362240461e-04 7.1153431679213359e-05 0.0000000000000000e+00  -2.4262507798383638e-04 -9.5591316246430017e-05 0.0000000000000000e+00  -3.0031830102827543e-04 -8.4361767699701431e-05 0.0000000000000000e+00  -2.6918253553897105e-04 -1.2844677403865988e-04 0.0000000000000000e+00  -2.9975316519622816e-04 -1.4132271771132365e-04 0.0000000000000000e+00  -2.2900307638696831e-04 -1.7220214492262014e-04 0.0000000000000000e+00  -3.1064078136410346e-04 -4.5498265294461912e-05 0.0000000000000000e+00  -3.5198622170071306e-04 -8.0926203159938299e-05 0.0000000000000000e+00  -1.9169335902476906e-04 -4.7147742137291962e-04 0.0000000000000000e+00  -1.6930977749742281e-04 -5.5190253644286642e-04 0.0000000000000000e+00  -1.3367794435486824e-04 -5.0605554759441279e-04 0.0000000000000000e+00  -1.1138285937000357e-04 -4.8399765173530229e-04 0.0000000000000000e+00  -9.1449087735405731e-05 -5.4013188319348884e-04 0.0000000000000000e+00  -6.0092361531483488e-05 -5.8046534477165812e-04 0.0000000000000000e+00  -7.8399728529381156e-05 -5.9251473933403446e-04 0.0000000000000000e+00  -1.4708822751122110e-04 -6.2376380899593377e-04 0.0000000000000000e+00  -1.8769534804893728e-04 -6.4409844663468373e-04 0.0000000000000000e+00  -1.5266767016288530e-04 -3.3677274042897052e-04 0.0000000000000000e+00  -1.4434217409627030e-04 -3.6870554097797725e-04 0.0000000000000000e+00  -1.0896699234542208e-04 -3.9707112323926128e-04 0.0000000000000000e+00  -1.7795259458443786e-04 -3.3969547074468455e-04 0.0000000000000000e+00  -1.3298677287092536e-04 -4.0028319447539697e-04 0.0000000000000000e+00  -6.9873435439232604e-05 -5.8520099907029255e-04 0.0000000000000000e+00  -2.5618103699309611e-04 -6.1438007306633953e-04 0.0000000000000000e+00  -1.9869665057203323e-04 -2.2215020023537936e-04 0.0000000000000000e+00  -2.4449858405676785e-04 -2.0975368836394399e-04 0.0000000000000000e+00  -1.8555472738855783e-04 -2.5701745133278826e-04 0.0000000000000000e+00  -2.9256340033688926e-04 -4.8256490588456446e-04 0.0000000000000000e+00  -2.2440033947101134e-04 -4.2303347723441135e-04 0.0000000000000000e+00  -3.1423991947437388e-04 7.2440769135191278e-05 0.0000000000000000e+00  -2.7151923510116988e-04 4.1326739048610088e-05 0.0000000000000000e+00  -5.0744070590917883e-04 4.8695733291967560e-05 0.0000000000000000e+00  -4.9169168377779702e-04 6.4629734668503639e-05 0.0000000000000000e+00  -9.5878352205302499e-05 -5.2754335118788140e-04 0.0000000000000000e+00  -6.3393305557571318e-05 -5.1597231070242425e-04 0.0000000000000000e+00  -3.6803647869275804e-04 -5.6879526968063273e-04 0.0000000000000000e+00  -4.1111024385035968e-04 -4.6164443844470978e-04 0.0000000000000000e+00  -1.7966116965057274e-04 -1.1000262711084957e-04 0.0000000000000000e+00  -1.2193192829797444e-04 -1.9703528560146603e-04 0.0000000000000000e+00  -5.4541739971720354e-04 -3.5551157252980086e-05 0.0000000000000000e+00  -5.9331981140358411e-04 -7.1893911150771908e-05 0.0000000000000000e+00  -4.6014576557063475e-05 -3.7499446857042619e-04 0.0000000000000000e+00  -5.2493323195644787e-05 -4.1623025092519492e-04 0.0000000000000000e+00  -5.0238023257219194e-04 -1.3268292839530309e-04 0.0000000000000000e+00  -5.0425596888451711e-04 -5.7624259188156468e-05 0.0000000000000000e+00  -1.6656946187317351e-04 -2.1694021524817580e-04 0.0000000000000000e+00  -3.5486464031168387e-04 -1.3403172138741042e-04 0.0000000000000000e+00  -4.2832930421264615e-04 -1.1010730227734761e-04 0.0000000000000000e+00  -4.4131226294040455e-04 -1.0850598826899824e-04 0.0000000000000000e+00  -1.2212529474158026e-04 -4.2871416144936122e-04 0.0000000000000000e+00  -1.5789488825342923e-04 -4.0365285268505413e-04 0.0000000000000000e+00  -1.1645742275993081e-04 -4.5381381419097767e-04 0.0000000000000000e+00  -3.4568011168387261e-04 -1.6363092325498825e-04 0.0000000000000000e+00  -2.7617918189029860e-04 -2.1554264503979650e-04 0.0000000000000000e+00  -2.9365425875885480e-04 -1.8841352542043696e-04 0.0000000000000000e+00  -7.3856238768677240e-05 -5.2653162484793653e-04 0.0000000000000000e+00  -4.1353108922048589e-04 -5.5954962954069118e-04 0.0000000000000000e+00  -8.6473292026766684e-05 -4.9501187140662238e-04 0.0000000000000000e+00  -4.1338884211981149e-04 -9.2249965072568779e-05 0.0000000000000000e+00  -5.2525493767462551e-04 -1.0343502661083634e-04 0.0000000000000000e+00  -4.1740489864536864e-04 -6.3667522132339344e-05 0.0000000000000000e+00  -4.2283773366351293e-04 -1.1204317005562378e-04 0.0000000000000000e+00  -4.9321816826670387e-04 -6.7458110135421443e-05 0.0000000000000000e+00  -1.6668053654361208e-04 -2.9949710952469467e-04 0.0000000000000000e+00  -1.1543140659731402e-04 -3.2006276250064463e-04 0.0000000000000000e+00  -3.2201576498720920e-04 -2.5876658141597673e-04 0.0000000000000000e+00  -3.5351384477880948e-04 -1.9786279569872071e-04 0.0000000000000000e+00  -4.0452146466707475e-04 -1.9486184305724601e-04 0.0000000000000000e+00  -3.0702613313344672e-04 -1.6548575702090724e-04 0.0000000000000000e+00  -2.1184558213457820e-04 -2.7276497629632812e-04 0.0000000000000000e+00  -7.6102170796041343e-05 -2.6679377822064090e-04 0.0000000000000000e+00  -5.0840416692676323e-05 -3.2979629026589957e-04 0.0000000000000000e+00  -5.0311794890714240e-04 -2.2295860534686365e-05 0.0000000000000000e+00  -5.1355362035195734e-04 -1.2655388030197532e-05 0.0000000000000000e+00  -2.5426294580971570e-04 -2.4756272512894024e-04 0.0000000000000000e+00  -4.0020285205677003e-04 -1.2719949547376812e-04 0.0000000000000000e+00  -4.4807480796569957e-04 -8.8088773676006142e-05 0.0000000000000000e+00  -7.4635710350613203e-05 -4.5414241319712689e-04 0.0000000000000000e+00  -9.4909321987932541e-05 -5.1003018009435183e-04 0.0000000000000000e+00  -1.0414295912185698e-04 -4.6144044981661297e-04 0.0000000000000000e+00  -4.4964599667963784e-04 -3.4900191028495217e-04 0.0000000000000000e+00  -4.8714219469333359e-