<?xml version="1.0"?>
<VTKFile type="UnstructuredGrid"  version="0.1"  >
<UnstructuredGrid>
<Piece  NumberOfPoints="2549" NumberOfCells="4928">
<Points>
<DataArray  type="Float64"  NumberOfComponents="3"  format="ascii">1.654968721301295 -0.0414305026356734 0  1.649881996161928 0.004441165887254635 0  1.637510216677464 0.04486869557789747 0  1.629145009036753 0.08869703654181618 0  1.617609735008415 0.1320319912993031 0  1.605356132066668 0.1773520907764659 0  1.588833669700942 0.2221750184757429 0  1.574678119369718 0.2701454835916547 0  1.545708328502425 0.3141095528690343 0  1.515375722039668 0.337875235695295 0  1.496732066850011 0.3948027669871815 0  1.46580600442086 0.4344290585709065 0  1.435991593983637 0.4782884536727182 0  1.403034609741061 0.5188761693167746 0  1.368879204892598 0.5581403136599157 0  1.334947275655398 0.5998509779172927 0  1.291591501398051 0.6347098089569359 0  1.254989708250082 0.6542173320090857 0  1.219553304804916 0.7028436481938516 0  1.17919794216902 0.7373218456431533 0  1.138697313792127 0.7753871262296759 0  1.096540704059597 0.811053022907836 0  1.053649833721384 0.8465077148862732 0  1.010202397777145 0.8827606603612527 0  0.9626124316196549 0.9180387073002779 0  0.9160871631457553 0.9437624509646797 0  0.8695965282894607 0.9755428932134856 0  0.8215887270553762 1.006142496095015 0  0.7724952150730255 1.035901254921929 0  0.7222935372335589 1.064534459267102 0  0.6710557691421623 1.091733748991892 0  0.6189511410990317 1.11800168185022 0  0.564910066812916 1.141565794011128 0  0.5114416157695341 1.161902283506422 0  0.4566305400013499 1.182918609515399 0  0.401091109257407 1.200885119152173 0  0.3448784154221791 1.216953722085721 0  0.2881376216129668 1.230736019578831 0  0.2309168574751261 1.242191582969275 0  0.1734171383693104 1.251773474044997 0  0.1150901473698032 1.25801378231793 0  0.05746246549014003 1.262006611417128 0  -0.0007563610025277604 1.264790549067546 0  -0.05898774184910028 1.264734099984353 0  -0.1172803153600678 1.262452362416507 0  -0.1755199355822942 1.257562624209756 0  -0.2335619181249877 1.250325736776114 0  -0.2913906734666981 1.239841903720291 0  -0.3483087148622907 1.228525836498457 0  -0.4059947858480411 1.213975607961907 0  -0.4622703570100836 1.195641461518549 0  -0.517825960264503 1.17519699051717 0  -0.5724253633887376 1.152342072403805 0  -0.6259708418230671 1.127089595132003 0  -0.6783494423074354 1.100538265444928 0  -0.7293707694709261 1.069886357821093 0  -0.7783044782144363 1.044974291838955 0  -0.8296346995152193 1.01413051640859 0  -0.8769921480698312 0.9799535364173415 0  -0.9235203955706398 0.9461467372151893 0  -0.9689634121526622 0.9118125743313398 0  -1.013005709707776 0.8754344777808036 0  -1.056249133456664 0.8418169537686129 0  -1.096834176169735 0.7967448047715572 0  -1.134207552073474 0.7710439347285259 0  -1.178541840245821 0.7411668587976394 0  -1.216881525192669 0.7047063099114059 0  -1.255318169163725 0.6712042387707572 0  -1.292677645214955 0.6365155178782776 0  -1.330566259026944 0.606389961263082 0  -1.36547945812689 0.5685310060705314 0  -1.40937998056103 0.5610194032753927 0  -1.458365254008974 0.5186753261886601 0  -1.471629487657176 0.4477402283918387 0  -1.506217436694652 0.4081770677042547 0  -1.53017470314853 0.3592497613626812 0  -1.557182141456172 0.3134238455039881 0  -1.57051844682945 0.2573422072622031 0  -1.593614005020362 0.2165791881077571 0  -1.577981844160112 0.1422442719237222 0  -1.603726173678386 0.1307898662179017 0  -1.625746938239356 0.080918406629998 0  -1.59357644920735 0.03334134746259249 0  -1.602163837273943 -0.006576213450548728 0  -1.59293485984525 -0.04451441688164095 0  -1.604656859145513 -0.08245468085520084 0  -1.597079834231911 -0.1229010253609168 0  -1.633627287087065 -0.1712671920178331 0  -1.611509382351591 -0.2221482082064088 0  -1.585979484475455 -0.2318978021018017 0  -1.605639555119003 -0.3108832964543383 0  -1.582306332122401 -0.3521668328531842 0  -1.56993781449516 -0.4103587581013717 0  -1.542632567781647 -0.4571632897475153 0  -1.518305843525312 -0.5069484782133079 0  -1.481910110572376 -0.5456681645538815 0  -1.469257719027018 -0.615665335867704 0  -1.422410891357435 -0.6641390000478766 0  -1.377161808611563 -0.6691885622860356 0  -1.34268441452715 -0.7084012448496353 0  -1.304736256715811 -0.7385290319129352 0  -1.267744034634373 -0.7739694292234405 0  -1.229580207610538 -0.8081269550952671 0  -1.191655085343041 -0.8455409730454215 0  -1.147705285325042 -0.8755658232520229 0  -1.111479748999527 -0.9022578728693594 0  -1.071517015220202 -0.9519171012034923 0  -1.028533440222872 -0.9872457314771366 0  -0.984849655068697 -1.02634264595909 0  -0.9397675297762736 -1.063228316165402 0  -0.8935167918020746 -1.099768912527173 0  -0.8460948140770397 -1.136316449397145 0  -0.7959925475963481 -1.168547444195192 0  -0.7481134356092414 -1.200037837821456 0  -0.69585333785 -1.238300775035997 0  -0.6422891237090527 -1.268027226475882 0  -0.5874113623630943 -1.297175899430788 0  -0.5313703102838775 -1.322962047072604 0  -0.4742262072114949 -1.346020328404425 0  -0.4163469238023846 -1.366993070125025 0  -0.3561983785938408 -1.382704842880673 0  -0.2979983082859942 -1.394061106428458 0  -0.2384878138845726 -1.406061793958866 0  -0.1786239722077701 -1.414143511775849 0  -0.1184285896392466 -1.419616596555985 0  -0.05807061771354357 -1.421994343469281 0  0.002311240670603197 -1.42146877384787 0  0.06266338886773566 -1.417803226793961 0  0.1228136367650088 -1.410823279606315 0  0.1821847764318726 -1.401170436707957 0  0.2411614852333623 -1.389347237210253 0  0.2996209344846276 -1.375013261640925 0  0.3574587718399833 -1.358351340887714 0  0.4145818985644499 -1.339218512487642 0  0.4708143138441115 -1.318434153543262 0  0.5261532992860742 -1.293854144439352 0  0.5794922833930982 -1.272897409817299 0  0.6349859447724491 -1.246968224082663 0  0.6873054722117777 -1.217353576936681 0  0.7387818052342565 -1.187479462437087 0  0.7891380347044715 -1.156251765725005 0  0.8382970822952371 -1.124060442172692 0  0.8863017698962741 -1.091121297048951 0  0.932731950470744 -1.05735671637437 0  0.979289719247322 -1.029672295304463 0  1.02670619896313 -0.9922123852493083 0  1.070062213995105 -0.9541530997923691 0  1.112775913868949 -0.9168796963078999 0  1.154763689518013 -0.8795322090306825 0  1.195015563880605 -0.8396944932367948 0  1.235182360064408 -0.8038568089578416 0  1.270162612227472 -0.7528748224111588 0  1.306257220890899 -0.732626983962373 0  1.349485569457414 -0.6968764915743333 0  1.383058793782296 -0.6539185488243218 0  1.416894679475788 -0.6135630978124452 0  1.449485239390975 -0.571836219258944 0  1.478853781989861 -0.5267805263173649 0  1.509446125609567 -0.4862244186514148 0  1.527224860674571 -0.4275763617603835 0  1.55728514249567 -0.4035914790352085 0  1.585576873929421 -0.3584106350083923 0  1.598623770345739 -0.3092358629903213 0  1.614090610662321 -0.2633436488151327 0  1.625119658388044 -0.2169984805494989 0  1.634783451128176 -0.1724891070898303 0  1.642083645790792 -0.1282510378768627 0  1.650740919859949 -0.08643013050957954 0  -0.103557375867331 0.7488004072853137 0  0.6127144780407794 -0.704271836628876 0  -0.7703940855752542 -0.6224191653314184 0  -0.08108096355649318 -0.8736370970987706 0  0.6073855242727035 0.584399721786595 0  1.179000902546041 0.1907883717487655 0  -0.7813367675665008 0.4967387532460963 0  -1.268788461660155 -0.05305153555430438 0  1.185471755708007 -0.2895405036343351 0  -1.07506146969551 -0.4562648110168055 0  -0.8261094241889394 -0.06994729031487464 0  -0.4929870995173276 -0.2397579727951144 0  -1.083400644179429 0.3306348607673376 0  0.2829667524363039 -0.8477326134537044 0  0.1362964903097733 -0.2974769383571637 0  0.2463645851142552 0.7121411717392439 0  0.3435206949632667 0.1791738317015433 0  0.6689854842191136 -0.0539300869226628 0  -0.4236577696836326 -0.7725174717810011 0  -0.4588767805450898 0.6619556841785754 0  -0.2856979399326212 0.2321191402641349 0  0.9308271251642787 -0.4875757816790594 0  0.924498323469342 0.3816245910601741 0  0.4131710064684349 -0.3254927488329425 0  0.02691702639887533 0.2270851980583044 0  -0.5577836367098115 0.1751953291647659 0  -0.1810656410305722 -0.2914221039083025 0  0.9610180912308822 -0.05153116518292861 0  1.374671775591139 -0.04640841495251858 0  0.7721585379640795 -0.5930770704488416 0  0.7913926619922289 -0.2789556070880061 0  0.6323006054426265 -0.376000474100711 0  0.5398844051906744 -0.1861099049276552 0  0.507371241292761 -0.5194873123958839 0  0.9393147304299605 -0.2681604304269964 0  0.8145169727230387 -0.05270133115133116 0  -0.9461094960883927 0.13795246007402 0  -1.17376765664757 0.1384833875600847 0  -1.052538957356107 -0.06059900274824595 0  -0.9416897492400548 -0.2704869991135176 0  -1.17126141355093 -0.2538321908492915 0  -1.354488279644373 -0.3520455126476842 0  -1.42897172407683 -0.1637702330497586 0  -1.42467214088724 0.06401101506605358 0  -1.345477677919145 0.2494051162744781 0  -0.1316526287441283 -0.5820244324096168 0  -0.2962234989266712 -0.5369224665690278 0  -0.2536213764242202 -0.8288646874092408 0  -0.3362873882659962 -0.2668914674183946 0  -0.4547967204470845 -0.5031669307060711 0  -1.27240407101605 -0.5411426354665106 0  -1.269760610865991 0.4306571772988085 0  0.346917725230015 -0.5840063028641274 0  0.2738597708173829 -0.3130251203046701 0  0.2043658037052952 -0.5753603349225762 0  -0.9313998441360125 0.4085309660779993 0  -0.7955472039518586 0.2114562843420779 0  1.374395886240288 -0.3623925297350268 0  1.242603743074287 -0.5232408757221221 0  1.231626866771749 0.4247527253835759 0  1.365011749923794 0.2682594353878069 0  -0.770784997951048 -0.8993090876376371 0  -0.9528758434549401 -0.7666292045667318 0  -0.9518846157890626 0.6508027457249671 0  -0.7702565939936221 0.7727858322788562 0  0.7858131890081712 -0.8817774966284549 0  0.589985601930349 -0.9893926323550437 0  0.5810300453178624 0.864655529296418 0  0.7754514429977515 0.7658968743000253 0  0.009903551034100341 
[...]
<PointData  Vectors="f_2234"> 
<DataArray  type="Float64"  Name="f_2234"  NumberOfComponents="3" format="ascii">-1.2903469540550538e-04 3.6920570005588461e-06 0.0000000000000000e+00  -1.5988830038816666e-04 -1.7206116091565090e-05 0.0000000000000000e+00  -1.0395314528574075e-04 -8.4234348589941411e-06 0.0000000000000000e+00  -1.0882567878402895e-04 -1.0449779096724588e-05 0.0000000000000000e+00  -1.0647819942643116e-04 -1.9673905864081442e-05 0.0000000000000000e+00  -9.8711280679949766e-05 -2.3084685774435795e-05 0.0000000000000000e+00  -1.0729737402621038e-04 -3.4188461935323941e-05 0.0000000000000000e+00  -2.1504219343527659e-06 -1.8315805189760444e-05 0.0000000000000000e+00  -1.4842212926066196e-04 -9.5999796772748244e-05 0.0000000000000000e+00  -5.8863184441109970e-05 -4.6735570178667558e-05 0.0000000000000000e+00  -6.7483050254400007e-06 3.8411969915413063e-05 0.0000000000000000e+00  -7.1075981707565195e-05 -4.9662063136652678e-05 0.0000000000000000e+00  -4.0792320128943772e-05 -3.2974622565245572e-05 0.0000000000000000e+00  -4.0020523060952847e-05 -3.8588239176820443e-05 0.0000000000000000e+00  -4.9631896996502838e-05 -4.8980707467222868e-05 0.0000000000000000e+00  8.5886920295837960e-05 3.4277695409147236e-05 0.0000000000000000e+00  -1.2562480966591292e-04 -1.5695119640182076e-04 0.0000000000000000e+00  1.3687619672603335e-05 -6.2810974128326956e-05 0.0000000000000000e+00  8.3474199657004533e-05 1.7145214734700927e-04 0.0000000000000000e+00  -2.0002018274129378e-05 -4.4997615541507342e-05 0.0000000000000000e+00  2.2088616760687233e-05 1.7126873286433100e-06 0.0000000000000000e+00  1.7794440090471860e-05 -5.4090031399330753e-06 0.0000000000000000e+00  4.6334056775566264e-05 2.1774720632216405e-05 0.0000000000000000e+00  6.3679451761605444e-05 6.9284788278781533e-05 0.0000000000000000e+00  1.1407637284150145e-05 -3.2707160070313657e-05 0.0000000000000000e+00  1.1362454308571507e-04 1.2957420911975201e-04 0.0000000000000000e+00  7.8971530754341098e-05 1.2010634995235768e-04 0.0000000000000000e+00  7.9917473152285636e-05 9.9928299974997136e-05 0.0000000000000000e+00  9.5414159223887200e-05 1.3891666302507464e-04 0.0000000000000000e+00  9.8530084023457876e-05 1.4996245090419282e-04 0.0000000000000000e+00  1.0368036060088742e-04 1.7226924002374886e-04 0.0000000000000000e+00  1.1475300917718648e-04 2.0070233598370996e-04 0.0000000000000000e+00  1.0831211792555908e-04 2.0200115054318761e-04 0.0000000000000000e+00  1.1116934687212756e-04 2.3221523208819363e-04 0.0000000000000000e+00  1.1613682864207057e-04 2.6138460780561896e-04 0.0000000000000000e+00  1.0724311384144769e-04 2.6558762971086658e-04 0.0000000000000000e+00  1.0709142526812407e-04 2.8702242291887896e-04 0.0000000000000000e+00  1.0132722554081228e-04 2.9923656340694640e-04 0.0000000000000000e+00  9.4293545372589957e-05 3.1529529942285126e-04 0.0000000000000000e+00  8.8467262596879874e-05 3.2660208582066346e-04 0.0000000000000000e+00  7.7967915940941549e-05 3.3501384301732251e-04 0.0000000000000000e+00  6.7578278910167323e-05 3.4292356805547432e-04 0.0000000000000000e+00  5.6867616292467901e-05 3.4482261485930285e-04 0.0000000000000000e+00  4.6285894520876128e-05 3.4384453783408797e-04 0.0000000000000000e+00  3.5757390070860340e-05 3.3974564508340111e-04 0.0000000000000000e+00  2.6561228083469048e-05 3.3223767256273883e-04 0.0000000000000000e+00  1.7028145913452318e-05 3.2468642638906287e-04 0.0000000000000000e+00  9.8523232493227505e-06 3.1449595641493675e-04 0.0000000000000000e+00  3.1594718622754621e-06 2.9231071745422249e-04 0.0000000000000000e+00  -3.0769388456178440e-06 2.8101135020170608e-04 0.0000000000000000e+00  -3.0623275083980472e-06 2.6589476381270777e-04 0.0000000000000000e+00  -3.9235244285439500e-06 2.4454229673058920e-04 0.0000000000000000e+00  -7.3958485032213440e-06 2.3658974909704323e-04 0.0000000000000000e+00  3.4697932793383982e-06 2.0643404145013003e-04 0.0000000000000000e+00  -1.7037732929171462e-05 2.3805738022754185e-04 0.0000000000000000e+00  -8.4840851825463469e-06 1.8691691248979455e-04 0.0000000000000000e+00  2.2177052684683071e-05 1.2883576848026694e-04 0.0000000000000000e+00  -1.4121441214617333e-05 1.7075643126912939e-04 0.0000000000000000e+00  1.7429947038181439e-05 1.2181356619189527e-04 0.0000000000000000e+00  2.4505362503542005e-05 1.0582132806561431e-04 0.0000000000000000e+00  2.3486125452149295e-05 9.6876276310659112e-05 0.0000000000000000e+00  4.1131953728659310e-05 8.6223244576183569e-05 0.0000000000000000e+00  -2.1380497265179204e-05 1.6823311828769136e-04 0.0000000000000000e+00  9.9514623534444112e-05 -4.9955113303354992e-05 0.0000000000000000e+00  6.7710687672119986e-05 3.6247084564779021e-05 0.0000000000000000e+00  3.6528547774381078e-05 2.0439889377543791e-05 0.0000000000000000e+00  1.1963935841885830e-04 -5.8978929821747392e-05 0.0000000000000000e+00  9.6643859248659193e-05 -2.2896223066377912e-05 0.0000000000000000e+00  1.4033207902330730e-04 -1.5538382170179448e-04 0.0000000000000000e+00  1.4769213674242020e-04 4.2786420551124490e-05 0.0000000000000000e+00  8.3072555323038673e-05 -1.3210573987025530e-04 0.0000000000000000e+00  3.1870279832444667e-04 -4.1610072842452288e-04 0.0000000000000000e+00  9.6498902144567227e-06 -6.1104895446389756e-05 0.0000000000000000e+00  1.5025699878712658e-04 -8.0836957478964112e-05 0.0000000000000000e+00  1.5215118614749182e-04 -3.9132565744759529e-05 0.0000000000000000e+00  1.4787798692438391e-04 -2.7643483885200378e-05 0.0000000000000000e+00  1.4736468123670022e-04 -5.9728395498475014e-06 0.0000000000000000e+00  1.4761988636463665e-04 1.8900208803713230e-05 0.0000000000000000e+00  1.4781543714221498e-04 4.4692992934425624e-05 0.0000000000000000e+00  1.4758692121134850e-04 2.7934839097290786e-05 0.0000000000000000e+00  1.0159915831678056e-04 7.0926369203930183e-05 0.0000000000000000e+00  1.4119012390946610e-04 6.6624786989188584e-05 0.0000000000000000e+00  1.5152456884157868e-04 3.8560200994860794e-05 0.0000000000000000e+00  2.6542707682082557e-04 6.1531646731570469e-05 0.0000000000000000e+00  2.2798526534400685e-04 3.1887909564235990e-05 0.0000000000000000e+00  2.0353180892239160e-04 7.7111177285693546e-05 0.0000000000000000e+00  3.0317679091520946e-04 8.5230319837443635e-05 0.0000000000000000e+00  4.2332732804282222e-04 1.1652058615672798e-04 0.0000000000000000e+00  3.9429267711646763e-04 1.1621158139780894e-04 0.0000000000000000e+00  3.7051086292237814e-04 1.2056543429287255e-04 0.0000000000000000e+00  3.2137650679953870e-04 1.8790614451125759e-04 0.0000000000000000e+00  3.0859041840306510e-04 1.7847120971620773e-04 0.0000000000000000e+00  2.8112530526353853e-04 1.8441483251879475e-04 0.0000000000000000e+00  2.6546558792091458e-04 1.8891868577777498e-04 0.0000000000000000e+00  2.6374212112478920e-04 1.9536778501770641e-04 0.0000000000000000e+00  2.5800990611635601e-04 2.2804342449277617e-04 0.0000000000000000e+00  1.7368008921012494e-04 2.2339447756398342e-04 0.0000000000000000e+00  3.5482078101236025e-04 4.2206116161907413e-04 0.0000000000000000e+00  2.1470225200980979e-04 2.7114084558179405e-04 0.0000000000000000e+00  2.2726072059028337e-04 1.5586116150324318e-04 0.0000000000000000e+00  2.1252214643358264e-04 2.8511235983639827e-04 0.0000000000000000e+00  1.6819271725295520e-04 1.8500843058527470e-04 0.0000000000000000e+00  1.7464886330474004e-04 2.0259534169639662e-04 0.0000000000000000e+00  1.1502362621743000e-04 1.5037121221140296e-04 0.0000000000000000e+00  1.0729225886348138e-04 1.1047620654517038e-04 0.0000000000000000e+00  1.5032144609857507e-04 1.8159232364762176e-04 0.0000000000000000e+00  4.6641801124476358e-05 3.7393314581245513e-05 0.0000000000000000e+00  8.1186006118059623e-05 7.6857623858836159e-05 0.0000000000000000e+00  7.0977233806283438e-05 7.7661214565218946e-05 0.0000000000000000e+00  6.3910003913241492e-05 6.6076707083169125e-05 0.0000000000000000e+00  5.7764770899013378e-05 5.1015888606130632e-05 0.0000000000000000e+00  4.4123142648438808e-05 4.0959748320916631e-05 0.0000000000000000e+00  2.9138161365793436e-05 3.1810902613644766e-06 0.0000000000000000e+00  5.9193957594796021e-05 3.6655930153916665e-05 0.0000000000000000e+00  7.0441740941314287e-06 -2.5194833818727642e-05 0.0000000000000000e+00  3.5765000049205188e-05 -1.4168551769323649e-05 0.0000000000000000e+00  1.9922607178059546e-05 -2.2183076193614536e-05 0.0000000000000000e+00  2.2214973596361335e-05 -2.8350716739588268e-05 0.0000000000000000e+00  1.9166132373160169e-05 -4.2904078872540878e-05 0.0000000000000000e+00  8.7208018503928617e-06 -6.2692993807805989e-05 0.0000000000000000e+00  1.5150420875367373e-05 -6.2348689743662705e-05 0.0000000000000000e+00  1.6062829460861435e-05 -9.2195477128289129e-05 0.0000000000000000e+00  1.8292864030218988e-05 -1.0461699717194444e-04 0.0000000000000000e+00  2.4244572129671056e-05 -1.0418382426476614e-04 0.0000000000000000e+00  2.7202190645844189e-05 -1.1382277988006971e-04 0.0000000000000000e+00  3.2438435841313910e-05 -1.1781245824180198e-04 0.0000000000000000e+00  3.7527984345882645e-05 -1.2197801523973089e-04 0.0000000000000000e+00  4.2583071143684289e-05 -1.2338142754172963e-04 0.0000000000000000e+00  4.8100446528475359e-05 -1.2492620712972538e-04 0.0000000000000000e+00  5.3184904699680145e-05 -1.2356928394649134e-04 0.0000000000000000e+00  5.7994606121129295e-05 -1.2042715130543655e-04 0.0000000000000000e+00  6.1283315144160716e-05 -1.1425305105005785e-04 0.0000000000000000e+00  6.4902148554221695e-05 -1.0988209931846197e-04 0.0000000000000000e+00  6.4173431302141148e-05 -9.7931672556220725e-05 0.0000000000000000e+00  7.0143674745896942e-05 -1.0433780445007764e-04 0.0000000000000000e+00  7.0063800279607837e-05 -8.6964567386608294e-05 0.0000000000000000e+00  6.1587905178685701e-05 -5.6320666721018038e-05 0.0000000000000000e+00  6.9564775768285683e-05 -6.7323826780034103e-05 0.0000000000000000e+00  5.7130675459117936e-05 -4.6778250109533533e-05 0.0000000000000000e+00  5.3906654807064381e-05 -3.5690603724326728e-05 0.0000000000000000e+00  4.9772158665658456e-05 -2.9229984565365221e-05 0.0000000000000000e+00  3.9993216825088925e-05 -8.9227980765526692e-06 0.0000000000000000e+00  3.5061601306121948e-05 -1.5274443409455830e-05 0.0000000000000000e+00  5.1847406763521344e-05 -2.1086420202814524e-05 0.0000000000000000e+00  -5.2743349833556835e-06 6.1350484692978760e-05 0.0000000000000000e+00  1.3230035381864970e-05 1.6535580324346036e-05 0.0000000000000000e+00  5.5350133935560273e-06 3.4504368270655555e-05 0.0000000000000000e+00  -1.2398909603018265e-05 4.9036265775633377e-05 0.0000000000000000e+00  -1.5570734387077593e-05 4.6054142629216126e-05 0.0000000000000000e+00  -3.6746703558141912e-05 6.5512682567898340e-05 0.0000000000000000e+00  4.7819074738982499e-06 -2.8026456027548767e-05 0.0000000000000000e+00  -3.1576113366930654e-05 7.1962325864762067e-05 0.0000000000000000e+00  -9.2199758126557411e-05 1.1125514313995036e-04 0.0000000000000000e+00  -9.3912151160590265e-06 3.5353776885072914e-05 0.0000000000000000e+00  -7.1210129013442756e-05 6.6440863129559342e-05 0.0000000000000000e+00  -6.9876075490464987e-05 6.0935554450786917e-05 0.0000000000000000e+00  -7.4628687469783226e-05 5.7314426761707137e-05 0.0000000000000000e+00  -8.9576138875528926e-05 6.1376491712544965e-05 0.0000000000000000e+00  -7.0797416490837336e-05 3.1157314706650632e-05 0.0000000000000000e+00  -9.3830500477365037e-05 5.2951593861580281e-05 0.0000000000000000e+00  -1.2444440153471453e-04 6.5856076079694778e-05 0.0000000000000000e+00  -8.7028068295523649e-05 4.2611938690093594e-05 0.0000000000000000e+00  -1.1709455467668632e-04 4.0737452553866865e-05 0.0000000000000000e+00  -1.1670466084415902e-04 3.4497207797427382e-05 0.0000000000000000e+00  -1.2173159112604876e-04 2.9100222276603054e-05 0.0000000000000000e+00  -1.2545407683170104e-04 2.3533141069128482e-05 0.0000000000000000e+00  -1.3452531252040208e-04 1.7827806638748371e-05 0.0000000000000000e+00  -1.2163160871935436e-04 3.7415907226800839e-06 0.0000000000000000e+00  5.8116214778438189e-05 2.4281076371436488e-04 0.0000000000000000e+00  -7.9724591209254795e-06 -1.5419369036861500e-05 0.0000000000000000e+00  1.6118402110425195e-04 4.5945139640415274e-05 0.0000000000000000e+00  6.1269900027528592e-05 -4.9285190452555453e-05 0.0000000000000000e+00  1.0605758844864320e-06 1.3786221699575507e-04 0.0000000000000000e+00  -7.3940315883088526e-05 2.4079862413990439e-05 0.0000000000000000e+00  1.3027238078945662e-04 1.3189354699922579e-04 0.0000000000000000e+00  2.4155761886087768e-04 1.0622543727285449e-04 0.0000000000000000e+00  -8.6192316539812215e-05 3.0376437957633394e-05 0.0000000000000000e+00  2.4026387320836542e-04 1.1397608488074128e-04 0.0000000000000000e+00  1.9954538490053587e-04 9.6532342913019218e-05 0.0000000000000000e+00  1.4665376252382585e-04 6.8485562373386702e-05 0.0000000000000000e+00  1.7879799188109347e-04 5.6705542824333497e-05 0.0000000000000000e+00  3.0327643808190485e-05 -5.0424725863696003e-05 0.0000000000000000e+00  4.0992790118561788e-05 3.8705290896957736e-05 0.0000000000000000e+00  3.6346921483508822e-05 2.1696560371821407e-04 0.0000000000000000e+00  9.2234362511834842e-06 1.1220723441328165e-04 0.0000000000000000e+00  -3.6353253399087543e-05 5.6679402628492975e-05 0.0000000000000000e+00  9.9125875214435143e-05 -9.5506397497109331e-06 0.0000000000000000e+00  8.3885532185642045e-05 2.0093423678014402e-04 0.0000000000000000e+00  1.0123901337801630e-04 1.4293429084357738e-04 0.0000000000000000e+00  -5.2346022710787755e-05 2.0842604181328192e-05 0.0000000000000000e+00  -3.9956428039457721e-05 6.1246919974068255e-05 0.0000000000000000e+00  1.3891989043975394e-07 2.8842368213006980e-05 0.0000000000000000e+00  5.4895278706051715e-05 1.3888941947627287e-04 0.0000000000000000e+00  1.4445881366668834e-04 1.2542476055288387e-04 0.0000000000000000e+00  9.2461186557728719e-05 4.8924500545749761e-05 0.0000000000000000e+00  -6.8718424415776925e-05 4.0257776659768478e-05 0.0000000000000000e+00  -1.0580893217840916e-04 1.7666039388806456e-05 0.0000000000000000e+00  -3.0936479068006656e-05 5.7931235309844514e-06 0.0000000000000000e+00  -4.8689779739766360e-05 3.1043768858060505e-05 0.0000000000000000e+00  -2.7239941251288016e-05 2.1496693756181428e-05 0.0000000000000000e+00  -1.9262735136292880e-05 4.6007453887582130e-05 0.0000000000000000e+00  -6.9331624409337413e-06 2.0000355637322975e-06 0.0000000000000000e+00  -6.4653843403373947e-05 3.0792033901775145e-05 0.0000000000000000e+00  -5.3365202242976050e-05 4.8561845297237573e-05 0.0000000000000000e+00  1.9471399893368764e-04 9.4504087376528635e-05 0.0000000000000000e+00  2.0078230859035749e-04 6.8612707304678124e-05 0.0000000000000000e+00  2.2720954244954630e-04 1.0033098419651287e-04 0.0000000000000000e+00  2.2496879644707702e-04 9.5052623109780445e-05 0.0000000000000000e+00  2.6334862401290423e-04 1.2092288323085196e-04 0.0000000000000000e+00  2.8982280060213137e-04 1.5151081184101373e-04 0.0000000000000000e+00  3.1022237603891618e-04 1.2693489019891774e-04 0.0000000000000000e+00  1.7955863002746129e-04 7.1580489078433354e-05 0.0000000000000000e+00  1.7102558218411041e-04 8.8286050371818046e-06 0.0000000000000000e+00  7.7704850058726832e-05 -2.0887783945606846e-06 0.0000000000000000e+00  1.0280060548911420e-04 1.3252116929635395e-05 0.0000000000000000e+00  7.8499180868295745e-05 -3.1591197039232806e-05 0.0000000000000000e+00  1.1909371554816573e-04 5.8416949637025115e-05 0.0000000000000000e+00  1.2851897181932466e-04 2.8143186908398838e-05 0.0000000000000000e+00  2.5891909212621511e-04 1.8276371944360130e-04 0.0000000000000000e+00  1.6717420926108925e-04 -2.6786862633855394e-05 0.0000000000000000e+00  1.4840392417036930e-05 -1.0048762560865591e-05 0.0000000000000000e+00  2.0091881655545254e-05 3.3015717588459324e-05 0.0000000000000000e+00  3.2749897888763436e-05 -9.2002191518621984e-06 0.0000000000000000e+00  1.5838882032583574e-04 9.4358734404856461e-05 0.0000000000000000e+00  1.7196490758812340e-04 1.1123928660835587e-04 0.0000000000000000e+00  -9.4126718343724849e-05 3.6682978287782216e-05 0.0000000000000000e+00  -7.1780105031400617e-05 3.9117520549228646e-05 0.0000000000000000e+00  -4.8304611334928681e-05 4.6887782919490140e-06 0.0000000000000000e+00  -7.0365661826084572e-05 -2.8208203646211567e-06 0.0000000000000000e+00  1.0218554373459676e-04 2.6987321580203673e-05 0.0000000000000000e+00  1.4895752635459564e-04 6.8945539707933860e-05 0.0000000000000000e+00  1.0342915875139003e-04 9.9118148511913537e-05 0.0000000000000000e+00  7.0842700645508636e-05 1.5283926729587149e-04 0.0000000000000000e+00  -2.0086598818182546e-06 -1.3427508922481331e-05 0.0000000000000000e+00  2.1696218969133404e-05 -4.6928143499658989e-05 0.0000000000000000e+00  4.2598405264197290e-05 1.7781572643350903e-04 0.0000000000000000e+00  2.0065856410393941e-05 1.1575119808313508e-04 0.0000000000000000e+00  4.7746619983182624e-05 -9.1546998085147225e-05 0.0000000000000000e+00  5.1738395938359815e-05 -7.4433715947617066e-05 0.0000000000000000e+00  4.7137399817357993e-05 2.8355590757953681e-04 0.0000000000000000e+00  5.3035702714814651e-05 2.9536787219011271e-04 0.0000000000000000e+00  1.2169967234876539e-05 -3.4212084834562766e-05 0.0000000000000000e+00  -1.4217011690631835e-05 8.1504490996487945e-05 0.0000000000000000e+00  -2.3870178012762266e-05 9.6081671440400882e-05 0.0000000000000000e+00  -6.9303424153642044e-07 1.3319939844164949e-04 0.0000000000000000e+00  1.6064898992148888e-04 4.9448711129814003e-05 0.0000000000000000e+00  1.7542626763414785e-04 8.5863093975915795e-05 0.0000000000000000e+00  1.9622477184954754e-04 7.5037610983455906e-05 0.0000000000000000e+00  3.1875796246119287e-05 1.2716429150123225e-04 0.0000000000000000e+00  4.8851944686135291e-05 8.7508743014041247e-05 0.0000000000000000e+00  2.4035464552314429e-05 7.7832736010079973e-05 0.0000000000000000e+00  2.0322733380347732e-04 1.2307418022476337e-04 0.0000000000000000e+00  1.4222332848832454e-04 3.3907761114092344e-05 0.0000000000000000e+00  2.0135556544797383e-04 7.8341406741524197e-05 0.0000000000000000e+00  -4.4406806724714281e-05 6.8562155915574083e-05 0.0000000000000000e+00  -2.0503017676248059e-05 9.5800930631576031e-05 0.0000000000000000e+00  -5.8415341881415731e-05 5.1718349295057642e-05 0.0000000000000000e+00  2.0936611558546399e-05 1.6263750646278676e-04 0.0000000000000000e+00  1.9927772296868445e-05 1.8013596026692256e-04 0.0000000000000000e+00  5.5641866852170894e-05 -8.2351511699430981e-06 0.0000000000000000e+00  4.6192970876321328e-05 -5.4184555451353832e-05 0.0000000000000000e+00  9.7995327146797119e-05 1.7701429544043912e-04 0.0000000000000000e+00  7.6670050785011419e-05 1.9141317579002368e-04 0.0000000000000000e+00  6.9831312036482091e-05 2.2674607279132917e-04 0.0000000000000000e+00  3.3865372605717914e-06 6.8747934836621861e-05 0.0000000000000000e+00  6.6331546509952553e-05 4.3140956191862699e-05 0.0000000000000000e+00  3.6741568514045884e-05 -7.3648506514239199e-05 0.0000000000000000e+00  4.5070317766905217e-05 -9.1372616077807224e-05 0.0000000000000000e+00  5.6835678905020933e-05 2.7695324855513066e-04 0.0000000000000000e+00  5.4919911661658702e-05 2.3287800793948468e-04 0.0000000000000000e+00  7.4751763255749554e-05 9.2835903085005663e-05 0.0000000000000000e+00  3.9879726524690962e-05 1.8137743793746308e-04 0.0000000000000000e+00  4.8050956688746549e-05 2.3663344006368000e-04 0.0000000000000000e+00  6.1173681715382812e-05 -4.4057718036063294e-05 0.0000000000000000e+00  7.7334825844624743e-05 -8.6230881570127519e-06 0.0000000000000000e+00  1.2648123764812317e-04 1.6520275435072551e-05 0.0000000000000000e+00  5.2907772455151852e-05 2.0103416453724394e-04 0.0000000000000000e+00  4.6143772955928228e-05 2.4840378854408475e-04 0.0000000000000000e+00  1.0481353655380323e-04 1.6770742727106143e-04 0.0000000000000000e+00  1.7244313876460806e-04 1.0617948248147682e-04 0.0000000000000000e+00  1.4228355470201036e-04 1.3607135566351359e-04 0.0000000000000000e+00  -1.1859116130541232e-04 1.0389515390880259e-05 0.0000000000000000