<?xml version="1.0"?>
<VTKFile type="UnstructuredGrid"  version="0.1"  >
<UnstructuredGrid>
<Piece  NumberOfPoints="2549" NumberOfCells="4928">
<Points>
<DataArray  type="Float64"  NumberOfComponents="3"  format="ascii">1.638558671091573 -0.03762025468613885 0  1.635482954602385 0.009943489387005322 0  1.628752580004579 0.0570059785068876 0  1.620437238900468 0.1041924821674177 0  1.609113988451674 0.1510458579301534 0  1.595538826524625 0.1977588819682625 0  1.578597031643918 0.243785743159977 0  1.560169973937267 0.2896514412643865 0  1.536078466901081 0.3329130902928052 0  1.510745542433737 0.3745882660514934 0  1.487422995649022 0.4208706043703923 0  1.458759548917424 0.4628110213743892 0  1.429585269382552 0.5051659714862479 0  1.398410179648637 0.5462118521032895 0  1.365674423365059 0.5865367344866438 0  1.331432180669609 0.625847006564366 0  1.295311869702383 0.6634667055311567 0  1.25911263236719 0.6997613435466358 0  1.22284238339307 0.7406661292357078 0  1.184418342112113 0.7781513064324532 0  1.145429226713576 0.8164926994483067 0  1.105138855426664 0.8538347287129113 0  1.064017873330388 0.8912047699628859 0  1.021353323837085 0.9275493093354813 0  0.9771906052283517 0.9625835599986521 0  0.932402780979619 0.9961071514440977 0  0.8863122476881279 1.029188008422621 0  0.8391649324954433 1.061381691124242 0  0.7910190280481243 1.092805268924919 0  0.7417249798827568 1.122978042513433 0  0.6913721586897882 1.151922952324888 0  0.6399702540731061 1.179445360528532 0  0.5873280975112996 1.20491708788623 0  0.5338313483734579 1.228515160942734 0  0.4794063322019539 1.250618730328872 0  0.424004247246403 1.270374337971986 0  0.367813173435557 1.288028388354665 0  0.3108543511777438 1.303263857648649 0  0.2532425210438617 1.316055514159985 0  0.195099732649499 1.326319434178859 0  0.1364536619117353 1.333666001465608 0  0.07760314990745615 1.338318215830686 0  0.01855710488229884 1.340483582750664 0  -0.0405194440841002 1.339775252741526 0  -0.09951074930780318 1.336300155052337 0  -0.1582592919920128 1.329969288639235 0  -0.2166412112937597 1.320905651657684 0  -0.2744943956406189 1.308932591111857 0  -0.3317127941841851 1.294587163537817 0  -0.3882999531844714 1.277575153686785 0  -0.4438696483084123 1.257696155149682 0  -0.4984892773478507 1.235463022677145 0  -0.5521169354232238 1.211187179026663 0  -0.6045249621359688 1.184680355008052 0  -0.6560244482174831 1.156865538968177 0  -0.70605387174644 1.126696107060204 0  -0.7549711591049185 1.09625015404879 0  -0.8030830508024733 1.064204269577718 0  -0.8494435928795991 1.030098801236929 0  -0.8945164561461096 0.9949957024166159 0  -0.9385523020888558 0.9594751321512699 0  -0.9810989633308145 0.922769860453228 0  -1.023141372002507 0.8867930307797406 0  -1.062355201293524 0.8468896292114338 0  -1.101588897031793 0.8112797635680323 0  -1.140315432168997 0.7755310616852186 0  -1.17770435930535 0.7385964978198912 0  -1.214415234633925 0.7021957135660575 0  -1.249864707967736 0.6649385363227378 0  -1.284949567559123 0.6294316338132774 0  -1.319796584043294 0.5927326523445908 0  -1.354396098588828 0.5593182701864587 0  -1.389416957262571 0.5223753292376273 0  -1.413230428408888 0.4756301862280697 0  -1.446183317270562 0.4342137272757975 0  -1.471827938079588 0.3893988029638814 0  -1.495072115670423 0.343121427675561 0  -1.511673036300924 0.2940192014333535 0  -1.530164031066074 0.2469217730710154 0  -1.530729801708379 0.1925468829331194 0  -1.545528692746999 0.1483297351801002 0  -1.557353854660545 0.1016510998303605 0  -1.550054526250648 0.05373764350555351 0  -1.554623634673773 0.007532971867692211 0  -1.553741942165811 -0.03840225853193785 0  -1.555792418158395 -0.08432286915211984 0  -1.553038467412756 -0.1307555489532143 0  -1.55829919154902 -0.1791337738904366 0  -1.54866108219743 -0.2262447506013749 0  -1.535696235439647 -0.271186321510586 0  -1.535190412593312 -0.3264545672303464 0  -1.517779274265806 -0.3742561806880921 0  -1.501538750980516 -0.424060879254621 0  -1.478401335807599 -0.4705773664895839 0  -1.452757384994093 -0.5156184153021087 0  -1.4207364048468 -0.5573011529601823 0  -1.396277381386635 -0.6039326028071598 0  -1.360821789913931 -0.6408972847000581 0  -1.326337251764082 -0.6747965338833639 0  -1.291277718735304 -0.711408580642091 0  -1.256145620231506 -0.7469961097927058 0  -1.220834945495334 -0.7845881024394433 0  -1.184330234593232 -0.8214733205979662 0  -1.147176891744097 -0.8590246553442358 0  -1.10875532909493 -0.8955027876046564 0  -1.069629601971072 -0.9319814644106578 0  -1.031253266039731 -0.974206478944873 0  -0.9891613448167864 -1.011390678545365 0  -0.9467040550149179 -1.049555304969121 0  -0.9027427313749464 -1.086684036072102 0  -0.8576864620625064 -1.123404361418655 0  -0.8112009691667896 -1.159087112295385 0  -0.7632688770130696 -1.19324943360837 0  -0.7139558354496428 -1.226221614525702 0  -0.6642134332318141 -1.260329540227069 0  -0.6119446767617422 -1.290209108800937 0  -0.5590729020306723 -1.318959583131953 0  -0.5047873839423088 -1.34521573055533 0  -0.4494699249607605 -1.369279022692237 0  -0.3932178972349001 -1.390976615929385 0  -0.3356282398240595 -1.409098525694286 0  -0.277491921268451 -1.424297458017582 0  -0.2186840489345795 -1.437263634711981 0  -0.1592551855956595 -1.446997346683863 0  -0.09941522865782493 -1.453825495134933 0  -0.03928183118585642 -1.457496011932002 0  0.02097012789418523 -1.458061508331992 0  0.08118261410702239 -1.455422676726588 0  0.1411865684439857 -1.449592150323144 0  0.2007591222882275 -1.440784506630031 0  0.2598322389098806 -1.429293573355244 0  0.3182685036790243 -1.415078166551932 0  0.3759902223721094 -1.398358516502126 0  0.4328345682270555 -1.379092106472382 0  0.488846618145211 -1.357843672549569 0  0.5437443140246728 -1.334003387492988 0  0.5976440615334506 -1.309191535417323 0  0.6508140270842701 -1.282372017450313 0  0.7024282212114084 -1.253010456483231 0  0.7530067522044226 -1.222406569954099 0  0.802422001243363 -1.190592563996988 0  0.8506462038692457 -1.157613913771411 0  0.897797845820257 -1.123907362784109 0  0.9438407578549227 -1.089421201884027 0  0.9885471530545766 -1.054612094855619 0  1.03260508546066 -1.018296452266304 0  1.075106494802548 -0.9806787331166607 0  1.116049941941117 -0.9421562975297019 0  1.156100475645073 -0.9036563122190504 0  1.194809340945444 -0.8641910118110163 0  1.232980597678983 -0.8257164791981262 0  1.268807182351495 -0.7836180828848047 0  1.304664171334758 -0.7465492379745777 0  1.340604149842914 -0.7083730396943581 0  1.374471196495601 -0.6682800523606101 0  1.406899313526581 -0.6273402440536999 0  1.437753236933595 -0.5856821778388724 0  1.466582716329567 -0.5427146515470807 0  1.494816264795153 -0.5001655918849608 0  1.51777905846052 -0.4533031600268008 0  1.542742918748059 -0.4111976512489 0  1.566351440403722 -0.3674264868122772 0  1.58421680328731 -0.3210274465371198 0  1.600471599169737 -0.2745149823244446 0  1.613319625955057 -0.2273461616274039 0  1.623681794082863 -0.1800504265028761 0  1.631060726193848 -0.132559115776953 0  1.636574286750736 -0.08524024303141527 0  -0.08083231081787744 0.8001141801060333 0  0.6187957830435282 -0.7191090929887411 0  -0.7274729151823988 -0.6294615958852523 0  -0.05694990612244537 -0.8903791041088026 0  0.6145076273848611 0.6234570260381185 0  1.166886349976378 0.2040200293867973 0  -0.7400512155159541 0.5297142141756952 0  -1.210309751209083 -0.04315914931738455 0  1.171109499031765 -0.2864130061729683 0  -1.015883508934439 -0.4548762398367826 0  -0.7767199467730403 -0.0579950917270915 0  -0.45593762547975 -0.2323027310515823 0  -1.026443517292302 0.3496154213645065 0  0.2990525072034122 -0.8675272036002865 0  0.154192400839057 -0.2931289596102405 0  0.2625311699294622 0.7617452244153553 0  0.3546883825765151 0.2036056183065607 0  0.6695050228338758 -0.04233026116285118 0  -0.3920061231952774 -0.7827293876376584 0  -0.4287809866390446 0.7052075320243727 0  -0.2560331013467227 0.259634300399548 0  0.9245704320360554 -0.4924925347388664 0  0.9203866612808737 0.4062303428881254 0  0.4224611030787661 -0.3240641375996515 0  0.04754844692224988 0.2550578396842144 0  -0.5192876343595836 0.1986039998910966 0  -0.1537440730661065 -0.2854855471851238 0  0.9530115323689589 -0.04193424841812286 0  1.360337105989881 -0.03957572275874768 0  0.7720141671222405 -0.6029128567182734 0  0.7882967366834071 -0.2768721110834577 0  0.6347404630394698 -0.3776003128678795 0  0.5446382458514059 -0.1793057617217721 0  0.5147535009625711 -0.5267965182855509 0  0.9316788881848801 -0.265626514666489 0  0.810582334596846 -0.04210975213115575 0  -0.8931591564972637 0.1551046352697152 0  -1.113921228690087 0.1491937465648633 0  -0.9955933706415262 -0.04967124112159333 0  -0.8877708751079196 -0.2651050711955769 0  -1.109164577172244 -0.2441093683872562 0  -1.283980871474254 -0.3365062344260987 0  -1.371674389189234 -0.1527315438176842 0  -1.369649524447673 0.07043642653498466 0  -1.27955824284215 0.2529151982234639 0  -0.1059372012857396 -0.5875653783313254 0  -0.2661685122651846 -0.5400433152055921 0  -0.2258048565538787 -0.8419266203938101 0  -0.3043009153794423 -0.2599846013788842 0  -0.4202467663359942 -0.5051358250599682 0  -1.202682838569117 -0.5337131057401863 0  -1.204175550489142 0.4418886185562821 0  0.359589726239579 -0.5933306719389932 0  0.287535792059143 -0.3102108347398778 0  0.2210877567446732 -0.5833276728563532 0  -0.8826779794365841 0.4354758072377256 0  -0.7489030290316178 0.2337350349291061 0  1.354632103372348 -0.3594034180104844 0  1.226131781047001 -0.5243633000730915 0  1.219365072244887 0.4417777584034422 0  1.349163601039292 0.2793007480323167 0  -0.7329742385041663 -0.9128490732005108 0  -0.9075942457353748 -0.7777644547906829 0  -0.9105797069228603 0.6855313996346313 0  -0.7364933404791572 0.8139712430142363 0  0.7904205883819907 -0.9015765891824691 0  0.6010413429731278 -1.014478290892211 0  0.5942395243199364 0.9150553336779773 0  0.7830421808198023 0.8077947436813726 0  0.0314753282239755
[...]
<PointData  Vectors="f_13753"> 
<DataArray  type="Float64"  Name="f_13753"  NumberOfComponents="3" format="ascii">-1.3392642299578009e-04 1.1902048954011347e-05 0.0000000000000000e+00  -1.3343759646253917e-04 8.2853230463613384e-06 0.0000000000000000e+00  -1.3166301572641799e-04 4.8840048465134436e-06 0.0000000000000000e+00  -1.2906059972921796e-04 1.7116164588531971e-06 0.0000000000000000e+00  -1.2591006525581580e-04 -1.1729844455173951e-06 0.0000000000000000e+00  -1.2151748968077170e-04 -3.6433112617944682e-06 0.0000000000000000e+00  -1.1716817921327970e-04 -5.6684806888366173e-06 0.0000000000000000e+00  -1.1059054724442687e-04 -7.0145583497713363e-06 0.0000000000000000e+00  -1.0434721155993143e-04 -7.5142595815219553e-06 0.0000000000000000e+00  -9.7659506104624160e-05 -7.5593349557662883e-06 0.0000000000000000e+00  -8.7880167136713939e-05 -5.8305409662295536e-06 0.0000000000000000e+00  -8.0436552261827591e-05 -4.6278885616914411e-06 0.0000000000000000e+00  -7.1733161090504515e-05 -2.4014747197526020e-06 0.0000000000000000e+00  -6.2605383497726699e-05 1.0347973445533769e-06 0.0000000000000000e+00  -5.3008092288577447e-05 5.6748527245755332e-06 0.0000000000000000e+00  -4.3733715631627521e-05 1.0634100621146715e-05 0.0000000000000000e+00  -3.4505924655421108e-05 1.6576243908251884e-05 0.0000000000000000e+00  -2.4224865075417428e-05 2.3969790152546380e-05 0.0000000000000000e+00  -1.5407601434121717e-05 3.1020649205667270e-05 0.0000000000000000e+00  -7.2874654253188253e-06 3.7284734771889489e-05 0.0000000000000000e+00  1.2000983445900847e-06 4.4847598923350882e-05 0.0000000000000000e+00  9.5730940763982063e-06 5.3099884024919356e-05 0.0000000000000000e+00  1.7956833345454121e-05 6.2313529115265868e-05 0.0000000000000000e+00  2.5257130629043788e-05 7.1193884396340891e-05 0.0000000000000000e+00  3.2870016574881016e-05 8.1779368937339572e-05 0.0000000000000000e+00  3.9552182154581671e-05 9.2213045384197071e-05 0.0000000000000000e+00  4.5493588485539710e-05 1.0269138054430928e-04 0.0000000000000000e+00  5.0559715172308461e-05 1.1295989115579117e-04 0.0000000000000000e+00  5.4936428647413582e-05 1.2306481821101837e-04 0.0000000000000000e+00  5.8590227973679146e-05 1.3309328456604288e-04 0.0000000000000000e+00  6.1665626645841974e-05 1.4325402440522379e-04 0.0000000000000000e+00  6.4164349820257076e-05 1.5337177180311165e-04 0.0000000000000000e+00  6.5666152249965447e-05 1.6321221508806456e-04 0.0000000000000000e+00  6.6470730149027291e-05 1.7297506526022373e-04 0.0000000000000000e+00  6.6587376944362271e-05 1.8226011038834853e-04 0.0000000000000000e+00  6.5659353955086232e-05 1.9070095006666797e-04 0.0000000000000000e+00  6.4101978030985736e-05 1.9857772574120001e-04 0.0000000000000000e+00  6.1697508106854269e-05 2.0541344152355160e-04 0.0000000000000000e+00  5.8621316638673648e-05 2.1124677418680649e-04 0.0000000000000000e+00  5.4947869343608264e-05 2.1569369540880499e-04 0.0000000000000000e+00  5.0731929880891240e-05 2.1871220121567959e-04 0.0000000000000000e+00  4.6225381074397805e-05 2.2009879919631929e-04 0.0000000000000000e+00  4.1573629751550674e-05 2.1976035818698473e-04 0.0000000000000000e+00  3.7019969527912671e-05 2.1770181577371092e-04 0.0000000000000000e+00  3.2708463937997116e-05 2.1400255779838591e-04 0.0000000000000000e+00  2.8876572255088093e-05 2.0873852767684989e-04 0.0000000000000000e+00  2.5598712716522164e-05 2.0217368683423612e-04 0.0000000000000000e+00  2.3132573935141327e-05 1.9428430186138737e-04 0.0000000000000000e+00  2.1432336901452043e-05 1.8542073215239085e-04 0.0000000000000000e+00  2.0542680984572850e-05 1.7596714135097077e-04 0.0000000000000000e+00  2.0724291759875530e-05 1.6601612423373512e-04 0.0000000000000000e+00  2.1696477821638739e-05 1.5577182202348343e-04 0.0000000000000000e+00  2.3043194192487729e-05 1.4599372770784813e-04 0.0000000000000000e+00  2.5652478451945293e-05 1.3558699701154907e-04 0.0000000000000000e+00  2.8095857538613637e-05 1.2588306105039117e-04 0.0000000000000000e+00  3.2210484318215664e-05 1.1525195769429015e-04 0.0000000000000000e+00  3.6495138099785136e-05 1.0480531963315863e-04 0.0000000000000000e+00  4.1648651446132564e-05 9.4315129482692926e-05 0.0000000000000000e+00  4.7516312113640404e-05 8.4528140576083043e-05 0.0000000000000000e+00  5.4116262300936845e-05 7.4589574112498712e-05 0.0000000000000000e+00  6.0241029064041214e-05 6.6071733852267973e-05 0.0000000000000000e+00  6.6912947747565105e-05 5.8192328764930211e-05 0.0000000000000000e+00  7.2016200825495552e-05 5.1818910461991102e-05 0.0000000000000000e+00  8.3458589921247105e-05 3.9357355078989455e-05 0.0000000000000000e+00  9.0239123550897311e-05 3.2434621364675080e-05 0.0000000000000000e+00  9.9189370018333141e-05 2.3843760086918961e-05 0.0000000000000000e+00  1.0947225211504421e-04 1.4724452954827712e-05 0.0000000000000000e+00  1.1966997003792399e-04 6.7568747100751018e-06 0.0000000000000000e+00  1.3065946940808885e-04 -1.9767582925783475e-06 0.0000000000000000e+00  1.4153796777919105e-04 -8.6513443625145533e-06 0.0000000000000000e+00  1.5331828351355955e-04 -1.8186767263600539e-05 0.0000000000000000e+00  1.6991395843109913e-04 -2.8410141299209303e-05 0.0000000000000000e+00  1.6739188840995538e-04 -2.1802174896727156e-05 0.0000000000000000e+00  2.0040097026933400e-04 -3.5526214043067509e-05 0.0000000000000000e+00  2.1094330208692351e-04 -3.8538188967640170e-05 0.0000000000000000e+00  2.0759206405532687e-04 -3.0049518758185286e-05 0.0000000000000000e+00  2.1520635844109141e-04 -2.9312456073885143e-05 0.0000000000000000e+00  2.2246216638879753e-04 -2.5247635519914286e-05 0.0000000000000000e+00  2.2240578019503454e-04 -2.0677515341802959e-05 0.0000000000000000e+00  2.3764199343103239e-04 -1.7169375202285044e-05 0.0000000000000000e+00  2.3202165428946552e-04 -1.1161117789727325e-05 0.0000000000000000e+00  2.2687297928732216e-04 -6.9860887145283913e-06 0.0000000000000000e+00  2.3769614720818341e-04 -1.8468580775550424e-06 0.0000000000000000e+00  2.3422736354382115e-04 1.9403058026023115e-06 0.0000000000000000e+00  2.3356922497942673e-04 5.4128239665302553e-06 0.0000000000000000e+00  2.3437297888103753e-04 9.0304498705236339e-06 0.0000000000000000e+00  2.3729153257019472e-04 1.2829214989306919e-05 0.0000000000000000e+00  2.3128877360862148e-04 1.7744261754086784e-05 0.0000000000000000e+00  2.3385969079155590e-04 2.1702650410008881e-05 0.0000000000000000e+00  2.3788765769789213e-04 2.7012427750397028e-05 0.0000000000000000e+00  2.2545199003069254e-04 3.0984983942624643e-05 0.0000000000000000e+00  2.2603313703570109e-04 3.5591193763285295e-05 0.0000000000000000e+00  2.1938658875780332e-04 3.9508773840109201e-05 0.0000000000000000e+00  2.1312773067647066e-04 4.0894598294650271e-05 0.0000000000000000e+00  2.1377007704612695e-04 4.7445732827709171e-05 0.0000000000000000e+00  2.0766775887545833e-04 4.6977852162554003e-05 0.0000000000000000e+00  1.7955014877920123e-04 3.7088220154545921e-05 0.0000000000000000e+00  1.7617187978921192e-04 3.9130003374876638e-05 0.0000000000000000e+00  1.6235335129186692e-04 3.2929567216266716e-05 0.0000000000000000e+00  1.4939378762266286e-04 2.3707785920294910e-05 0.0000000000000000e+00  1.3764329566602070e-04 1.6885593947340629e-05 0.0000000000000000e+00  1.2646529863351267e-04 8.7017759622747649e-06 0.0000000000000000e+00  1.1614283190994062e-04 1.2556635947634850e-06 0.0000000000000000e+00  1.0548991892945521e-04 -7.6234588224590256e-06 0.0000000000000000e+00  9.7366709641383243e-05 -1.5078006840537096e-05 0.0000000000000000e+00  9.2725194207153903e-05 -1.9058210365037004e-05 0.0000000000000000e+00  7.7180195256746647e-05 -3.4759307258236768e-05 0.0000000000000000e+00  7.4835963030517281e-05 -3.7881609600971622e-05 0.0000000000000000e+00  6.9026931665861673e-05 -4.3627977171956084e-05 0.0000000000000000e+00  6.3145000984252968e-05 -5.1271625614439903e-05 0.0000000000000000e+00  5.6753148513938171e-05 -6.0056931189494385e-05 0.0000000000000000e+00  5.1231944165676663e-05 -6.9017459156719434e-05 0.0000000000000000e+00  4.7000275245946970e-05 -7.7270199055816816e-05 0.0000000000000000e+00  4.5662777464131015e-05 -8.2902255337743164e-05 0.0000000000000000e+00  3.7790181618773862e-05 -9.6311783127728742e-05 0.0000000000000000e+00  3.7960569829150122e-05 -1.0146328647644563e-04 0.0000000000000000e+00  3.4708800713338407e-05 -1.0996754126025948e-04 0.0000000000000000e+00  3.3210425938376402e-05 -1.1839823404301075e-04 0.0000000000000000e+00  3.1537130335590553e-05 -1.2803424182851350e-04 0.0000000000000000e+00  3.0187667664587335e-05 -1.3833564862279237e-04 0.0000000000000000e+00  3.0600925670735611e-05 -1.4771203834251567e-04 0.0000000000000000e+00  3.1695118098321806e-05 -1.5684688785500415e-04 0.0000000000000000e+00  3.3559690142320667e-05 -1.6513937441288995e-04 0.0000000000000000e+00  3.6403864692782739e-05 -1.7194068863900773e-04 0.0000000000000000e+00  3.9807800657241895e-05 -1.7754099406979492e-04 0.0000000000000000e+00  4.3755647032018123e-05 -1.8162757115238663e-04 0.0000000000000000e+00  4.8004855484212153e-05 -1.8422043510213951e-04 0.0000000000000000e+00  5.2382973085337678e-05 -1.8515404982040896e-04 0.0000000000000000e+00  5.6695500020015042e-05 -1.8458079724937004e-04 0.0000000000000000e+00  6.0691812812870611e-05 -1.8238207904739323e-04 0.0000000000000000e+00  6.4293061363453316e-05 -1.7880966511882944e-04 0.0000000000000000e+00  6.7263849831111742e-05 -1.7381373506735948e-04 0.0000000000000000e+00  6.9660663903521955e-05 -1.6781187073153407e-04 0.0000000000000000e+00  7.1112456345835286e-05 -1.6056215725016902e-04 0.0000000000000000e+00  7.2132454104199996e-05 -1.5290530856874979e-04 0.0000000000000000e+00  7.1788314369002819e-05 -1.4381259112817820e-04 0.0000000000000000e+00  7.0841206698011878e-05 -1.3423256281012218e-04 0.0000000000000000e+00  6.9295052313952086e-05 -1.2473361586302120e-04 0.0000000000000000e+00  6.6115704288965892e-05 -1.1443365462038473e-04 0.0000000000000000e+00  6.2904532306017589e-05 -1.0464251753142004e-04 0.0000000000000000e+00  5.9004629866581140e-05 -9.4948636607706288e-05 0.0000000000000000e+00  5.4425031906400341e-05 -8.5117387119575943e-05 0.0000000000000000e+00  4.9150635513362084e-05 -7.5159828473566758e-05 0.0000000000000000e+00  4.2979467385715833e-05 -6.4916765429302406e-05 0.0000000000000000e+00  3.5974711267262168e-05 -5.4606002015216409e-05 0.0000000000000000e+00  2.8086023016849154e-05 -4.4231695153618673e-05 0.0000000000000000e+00  2.0465770071000868e-05 -3.5476485264844418e-05 0.0000000000000000e+00  1.1712854559294517e-05 -2.6351003618611455e-05 0.0000000000000000e+00  3.1391835844894196e-06 -1.8376052972787376e-05 0.0000000000000000e+00  -5.5262921253377087e-06 -1.1109471845467215e-05 0.0000000000000000e+00  -1.3708535987640425e-05 -5.1483270786900037e-06 0.0000000000000000e+00  -2.3367737052431452e-05 2.3121067337374574e-06 0.0000000000000000e+00  -3.3304209160997799e-05 8.9736525732316584e-06 0.0000000000000000e+00  -4.3356888285939104e-05 1.5357836664036286e-05 0.0000000000000000e+00  -5.2667743580028303e-05 1.9925004724736058e-05 0.0000000000000000e+00  -6.2440446010294254e-05 2.4451489954503950e-05 0.0000000000000000e+00  -7.1814334504408575e-05 2.7770127678742291e-05 0.0000000000000000e+00  -8.0810728628693507e-05 2.9970808632228563e-05 0.0000000000000000e+00  -8.8338274757783467e-05 3.0967217120007740e-05 0.0000000000000000e+00  -9.8110304433601789e-05 3.2459200764066005e-05 0.0000000000000000e+00  -1.0520749173666916e-04 3.2422644124659076e-05 0.0000000000000000e+00  -1.1142613713940484e-04 3.1696275146340820e-05 0.0000000000000000e+00  -1.1806040872176419e-04 3.0195216396128655e-05 0.0000000000000000e+00  -1.2243203572929052e-04 2.8007807794911658e-05 0.0000000000000000e+00  -1.2677630379658692e-04 2.5384622561559813e-05 0.0000000000000000e+00  -1.2980778852494837e-04 2.2343168176555099e-05 0.0000000000000000e+00  -1.3227273827487505e-04 1.9058553606391997e-05 0.0000000000000000e+00  -1.3359267916562777e-04 1.5521127073549294e-05 0.0000000000000000e+00  5.1618606663161384e-05 1.4204632522103210e-04 0.0000000000000000e+00  2.1534860514914495e-06 -7.1246689019344376e-05 0.0000000000000000e+00  1.1821820825386962e-04 -4.5326176638032854e-05 0.0000000000000000e+00  5.6242808860905983e-05 -1.0969822486813337e-04 0.0000000000000000e+00  -1.6567847214122045e-06 9.8257760580784055e-05 0.0000000000000000e+00  -8.3787482879249501e-05 2.2850135357978074e-05 0.0000000000000000e+00  1.1736280743210735e-04 6.7139263835630869e-05 0.0000000000000000e+00  2.0490099680507378e-04 7.5071003369481992e-06 0.0000000000000000e+00  -8.3620219878424037e-05 2.1259161144797862e-06 0.0000000000000000e+00  1.6555752083640947e-04 -1.1021598775791275e-05 0.0000000000000000e+00  1.5236745147833162e-04 9.5446606224646289e-06 0.0000000000000000e+00  1.0909311861697194e-04 -1.1781211176235254e-05 0.0000000000000000e+00  1.6618459598777434e-04 2.7294533625176127e-05 0.0000000000000000e+00  3.3964631889198805e-05 -1.0613773470656424e-04 0.0000000000000000e+00  3.2842506925789711e-05 -2.4258155614753482e-05 0.0000000000000000e+00  3.0442496536043457e-05 1.3575653135020017e-04 0.0000000000000000e+00  6.7765622493428690e-06 5.0895472924676288e-05 0.0000000000000000e+00  -3.3651948980762062e-05 1.3420371938439461e-05 0.0000000000000000e+00  8.0974460755101472e-05 -8.1275261433975526e-05 0.0000000000000000e+00  7.7745496562966440e-05 1.1067585929112848e-04 0.0000000000000000e+00  8.0760800965584513e-05 5.8246946150124893e-05 0.0000000000000000e+00  -4.3833495628575953e-05 -2.6635505308245460e-05 0.0000000000000000e+00  -4.5388198913597487e-05 5.2448014752887256e-05 0.0000000000000000e+00  1.0440824925642810e-06 -2.6644051600633076e-05 0.0000000000000000e+00  4.4181185468648492e-05 6.0907656110876138e-05 0.0000000000000000e+00  1.1462031183918296e-04 4.3192860864226993e-05 0.0000000000000000e+00  7.0736227946057085e-05 -2.2197312743464563e-05 0.0000000000000000e+00  -6.7115473364606692e-05 1.2753815738415096e-05 0.0000000000000000e+00  -1.1004335262595744e-04 1.2222570337811275e-05 0.0000000000000000e+00  -2.0344037732800290e-05 -4.7866702095609961e-05 0.0000000000000000e+00  -4.3035048124470050e-05 -1.2485932321957402e-05 0.0000000000000000e+00  -2.1483344161638452e-05 -2.8974684473138383e-05 0.0000000000000000e+00  -1.6914288778201785e-05 -4.8952708773581447e-06 0.0000000000000000e+00  -1.4947418706942726e-06 -5.2335779552516709e-05 0.0000000000000000e+00  -5.9519457137144033e-05 -6.8452655356213117e-06 0.0000000000000000e+00  -5.0576590879191704e-05 1.3077607023805326e-05 0.0000000000000000e+00  1.6309454803732884e-04 2.4567484650362896e-05 0.0000000000000000e+00  1.9030634777205945e-04 1.2322927690849434e-05 0.0000000000000000e+00  1.8015848535197430e-04 8.8847573239304449e-06 0.0000000000000000e+00  1.6249797997148474e-04 -6.3098407730239402e-06 0.0000000000000000e+00  1.9038366406418696e-04 3.8486398128360214e-06 0.0000000000000000e+00  2.0579664494624233e-04 1.5346752917884721e-05 0.0000000000000000e+00  2.2034201550477793e-04 1.2701208186734908e-05 0.0000000000000000e+00  2.1961953482927473e-04 -9.2989687089961427e-08 0.0000000000000000e+00  2.0360462541533668e-04 -1.0309532317497341e-06 0.0000000000000000e+00  6.2905049493962336e-05 -6.6653009363612167e-05 0.0000000000000000e+00  7.9862485675000964e-05 -5.6430084314233296e-05 0.0000000000000000e+00  6.7587830144130631e-05 -9.6983716075215009e-05 0.0000000000000000e+00  8.9650653215544329e-05 -1.7164603414193568e-05 0.0000000000000000e+00  9.6957479029562626e-05 -4.7284240594735036e-05 0.0000000000000000e+00  1.7842808597217191e-04 7.2199448595894328e-06 0.0000000000000000e+00  1.7549867531005891e-04 7.6625376576236725e-06 0.0000000000000000e+00  1.6937091046154479e-05 -6.6258356039490738e-05 0.0000000000000000e+00  1.6866391226949570e-05 -2.6166211992901278e-05 0.0000000000000000e+00  3.0243315341343205e-05 -6.7318379656332016e-05 0.0000000000000000e+00  1.4125162673453499e-04 4.6621399012715629e-05 0.0000000000000000e+00  1.4150460936572813e-04 3.8295015794660053e-05 0.0000000000000000e+00  -9.5385400870040229e-05 1.3019912627917109e-05 0.0000000000000000e+00  -6.6320894409770112e-05 -1.2260711603729545e-06 0.0000000000000000e+00  -6.6822184372093905e-05 2.6456656524531424e-05 0.0000000000000000e+00  -9.5133693942759523e-05 1.1749939378090021e-05 0.0000000000000000e+00  8.6233025175607529e-05 -6.5743716256139208e-05 0.0000000000000000e+00  1.1238803103912344e-04 -3.9957848211351712e-05 0.0000000000000000e+00  1.0872193058425734e-04 6.0037600610534785e-05 0.0000000000000000e+00  8.1770028628059394e-05 9.0332659467518979e-05 0.0000000000000000e+00  1.2634140204660396e-05 -7.4788551278767837e-05 0.0000000000000000e+00  3.2504651790155694e-05 -1.0566990016743036e-04 0.0000000000000000e+00  2.7570430566548614e-05 1.3368116082948289e-04 0.0000000000000000e+00  8.8958152905852132e-06 1.0179621149403070e-04 0.0000000000000000e+00  5.1749778229146905e-05 -1.5018814858668987e-04 0.0000000000000000e+00  5.4127346613574165e-05 -1.3808203811924104e-04 0.0000000000000000e+00  4.6169862962446678e-05 1.7213716090862447e-04 0.0000000000000000e+00  4.4531550148325975e-05 1.8396752442840055e-04 0.0000000000000000e+00  1.9351111663924860e-05 -8.9914174672331402e-05 0.0000000000000000e+00  -1.3739286621500865e-05 3.0402242507416351e-05 0.0000000000000000e+00  -2.3297780678804802e-05 5.5673743352252406e-05 0.0000000000000000e+00  -1.4236122622867560e-06 7.9232878432094212e-05 0.0000000000000000e+00  1.1764314449124614e-04 -3.3953739414097020e-05 0.0000000000000000e+00  1.3080926148306625e-04 7.2539344533511717e-07 0.0000000000000000e+00  1.4125270363715171e-04 -1.7859659592351349e-05 0.0000000000000000e+00  2.5626006133165849e-05 5.6622424405503011e-05 0.0000000000000000e+00  3.8053513952281399e-05 1.8011072429011699e-05 0.0000000000000000e+00  1.8564735976963476e-05 1.4471545134004739e-05 0.0000000000000000e+00  1.3860110959143729e-04 -1.8535765365503696e-05 0.0000000000000000e+00  1.3592517535250496e-04 3.5379352117844127e-05 0.0000000000000000e+00  1.4112489000773153e-04 -2.7888747715132460e-05 0.0000000000000000e+00  -4.4016202781142186e-05 3.8751489198201705e-05 0.0000000000000000e+00  -2.2981025000516975e-05 7.4234894303620464e-05 0.0000000000000000e+00  -6.0244094636693631e-05 3.2452427860123152e-05 0.0000000000000000e+00  1.7801579624388380e-05 9.3249354124290643e-05 0.0000000000000000e+00  1.5756219425464882e-05 1.1860917865213879e-04 0.0000000000000000e+00  4.7175715434108774e-05 -6.9206087131536064e-05 0.0000000000000000e+00  4.5478921802145039e-05 -1.1139594186686125e-04 0.0000000000000000e+00  8.2643979646784444e-05 8.7894496967806231e-05 0.0000000000000000e+00  6.4908780967506019e-05 9.9891764945986202e-05 0.0000000000000000e+00  6.3567980260302722e-05 1.2853970563519291e-04 0.0000000000000000e+00  1.7516494699594059e-06 1.1251359212578622e-05 0.0000000000000000e+00  5.1768559994899271e-05 -2.3900937190663740e-05 0.0000000000000000e+00  4.3988716105279966e-05 -1.2956963967899519e-04 0.0000000000000000e+00  5.0011502142261405e-05 -1.4763216795954783e-04 0.0000000000000000e+00  4.3233736573458860e-05 1.7907769434272110e-04 0.0000000000000000e+00  3.8282626567099810e-05 1.6012490458497947e-04 0.0000000000000000e+00  5.7808367016994879e-05 1.8496852570888427e-05 0.0000000000000000e+00  3.3926561352865240e-05 1.0050846893400329e-04 0.0000000000000000e+00  4.1482917064487859e-05 1.4229010531915942e-04 0.0000000000000000e+00  5.9985643503517592e-05 -1.1609096361334084e-04 0.0000000000000000e+00  7.0947066107991162e-05 -8.9513030166841120e-05 0.0000000000000000e+00  9.7892564269883752e-05 -6.3342959456077078e-05 0.0000000000000000e+00  6.4063422535643003e-05 1.1841313990630642e-04 0.0000000000000000e+00  5.1768651324058689e-05 1.4899787454028570e-04 0.0000000000000000e+00  9.6015561970683158e-05 8.8705342168399068e-05 0.0000000000000000e+00  1.3419698475802759e-04 2.4037192720810316e-05 0.0000000000000000e+00  1.1900807839183493e-04 5.9203449356208360e-05 0.0000000000000000e+00  -1.2267621785454024e-04 1.210425