<?xml version="1.0"?>
<VTKFile type="UnstructuredGrid"  version="0.1"  >
<UnstructuredGrid>
<Piece  NumberOfPoints="2549" NumberOfCells="4928">
<Points>
<DataArray  type="Float64"  NumberOfComponents="3"  format="ascii">1.638558671091573 -0.03762025468613885 0  1.635482954602385 0.009943489387005322 0  1.628752580004579 0.0570059785068876 0  1.620437238900468 0.1041924821674177 0  1.609113988451674 0.1510458579301534 0  1.595538826524625 0.1977588819682625 0  1.578597031643918 0.243785743159977 0  1.560169973937267 0.2896514412643865 0  1.536078466901081 0.3329130902928052 0  1.510745542433737 0.3745882660514934 0  1.487422995649022 0.4208706043703923 0  1.458759548917424 0.4628110213743892 0  1.429585269382552 0.5051659714862479 0  1.398410179648637 0.5462118521032895 0  1.365674423365059 0.5865367344866438 0  1.331432180669609 0.625847006564366 0  1.295311869702383 0.6634667055311567 0  1.25911263236719 0.6997613435466358 0  1.22284238339307 0.7406661292357078 0  1.184418342112113 0.7781513064324532 0  1.145429226713576 0.8164926994483067 0  1.105138855426664 0.8538347287129113 0  1.064017873330388 0.8912047699628859 0  1.021353323837085 0.9275493093354813 0  0.9771906052283517 0.9625835599986521 0  0.932402780979619 0.9961071514440977 0  0.8863122476881279 1.029188008422621 0  0.8391649324954433 1.061381691124242 0  0.7910190280481243 1.092805268924919 0  0.7417249798827568 1.122978042513433 0  0.6913721586897882 1.151922952324888 0  0.6399702540731061 1.179445360528532 0  0.5873280975112996 1.20491708788623 0  0.5338313483734579 1.228515160942734 0  0.4794063322019539 1.250618730328872 0  0.424004247246403 1.270374337971986 0  0.367813173435557 1.288028388354665 0  0.3108543511777438 1.303263857648649 0  0.2532425210438617 1.316055514159985 0  0.195099732649499 1.326319434178859 0  0.1364536619117353 1.333666001465608 0  0.07760314990745615 1.338318215830686 0  0.01855710488229884 1.340483582750664 0  -0.0405194440841002 1.339775252741526 0  -0.09951074930780318 1.336300155052337 0  -0.1582592919920128 1.329969288639235 0  -0.2166412112937597 1.320905651657684 0  -0.2744943956406189 1.308932591111857 0  -0.3317127941841851 1.294587163537817 0  -0.3882999531844714 1.277575153686785 0  -0.4438696483084123 1.257696155149682 0  -0.4984892773478507 1.235463022677145 0  -0.5521169354232238 1.211187179026663 0  -0.6045249621359688 1.184680355008052 0  -0.6560244482174831 1.156865538968177 0  -0.70605387174644 1.126696107060204 0  -0.7549711591049185 1.09625015404879 0  -0.8030830508024733 1.064204269577718 0  -0.8494435928795991 1.030098801236929 0  -0.8945164561461096 0.9949957024166159 0  -0.9385523020888558 0.9594751321512699 0  -0.9810989633308145 0.922769860453228 0  -1.023141372002507 0.8867930307797406 0  -1.062355201293524 0.8468896292114338 0  -1.101588897031793 0.8112797635680323 0  -1.140315432168997 0.7755310616852186 0  -1.17770435930535 0.7385964978198912 0  -1.214415234633925 0.7021957135660575 0  -1.249864707967736 0.6649385363227378 0  -1.284949567559123 0.6294316338132774 0  -1.319796584043294 0.5927326523445908 0  -1.354396098588828 0.5593182701864587 0  -1.389416957262571 0.5223753292376273 0  -1.413230428408888 0.4756301862280697 0  -1.446183317270562 0.4342137272757975 0  -1.471827938079588 0.3893988029638814 0  -1.495072115670423 0.343121427675561 0  -1.511673036300924 0.2940192014333535 0  -1.530164031066074 0.2469217730710154 0  -1.530729801708379 0.1925468829331194 0  -1.545528692746999 0.1483297351801002 0  -1.557353854660545 0.1016510998303605 0  -1.550054526250648 0.05373764350555351 0  -1.554623634673773 0.007532971867692211 0  -1.553741942165811 -0.03840225853193785 0  -1.555792418158395 -0.08432286915211984 0  -1.553038467412756 -0.1307555489532143 0  -1.55829919154902 -0.1791337738904366 0  -1.54866108219743 -0.2262447506013749 0  -1.535696235439647 -0.271186321510586 0  -1.535190412593312 -0.3264545672303464 0  -1.517779274265806 -0.3742561806880921 0  -1.501538750980516 -0.424060879254621 0  -1.478401335807599 -0.4705773664895839 0  -1.452757384994093 -0.5156184153021087 0  -1.4207364048468 -0.5573011529601823 0  -1.396277381386635 -0.6039326028071598 0  -1.360821789913931 -0.6408972847000581 0  -1.326337251764082 -0.6747965338833639 0  -1.291277718735304 -0.711408580642091 0  -1.256145620231506 -0.7469961097927058 0  -1.220834945495334 -0.7845881024394433 0  -1.184330234593232 -0.8214733205979662 0  -1.147176891744097 -0.8590246553442358 0  -1.10875532909493 -0.8955027876046564 0  -1.069629601971072 -0.9319814644106578 0  -1.031253266039731 -0.974206478944873 0  -0.9891613448167864 -1.011390678545365 0  -0.9467040550149179 -1.049555304969121 0  -0.9027427313749464 -1.086684036072102 0  -0.8576864620625064 -1.123404361418655 0  -0.8112009691667896 -1.159087112295385 0  -0.7632688770130696 -1.19324943360837 0  -0.7139558354496428 -1.226221614525702 0  -0.6642134332318141 -1.260329540227069 0  -0.6119446767617422 -1.290209108800937 0  -0.5590729020306723 -1.318959583131953 0  -0.5047873839423088 -1.34521573055533 0  -0.4494699249607605 -1.369279022692237 0  -0.3932178972349001 -1.390976615929385 0  -0.3356282398240595 -1.409098525694286 0  -0.277491921268451 -1.424297458017582 0  -0.2186840489345795 -1.437263634711981 0  -0.1592551855956595 -1.446997346683863 0  -0.09941522865782493 -1.453825495134933 0  -0.03928183118585642 -1.457496011932002 0  0.02097012789418523 -1.458061508331992 0  0.08118261410702239 -1.455422676726588 0  0.1411865684439857 -1.449592150323144 0  0.2007591222882275 -1.440784506630031 0  0.2598322389098806 -1.429293573355244 0  0.3182685036790243 -1.415078166551932 0  0.3759902223721094 -1.398358516502126 0  0.4328345682270555 -1.379092106472382 0  0.488846618145211 -1.357843672549569 0  0.5437443140246728 -1.334003387492988 0  0.5976440615334506 -1.309191535417323 0  0.6508140270842701 -1.282372017450313 0  0.7024282212114084 -1.253010456483231 0  0.7530067522044226 -1.222406569954099 0  0.802422001243363 -1.190592563996988 0  0.8506462038692457 -1.157613913771411 0  0.897797845820257 -1.123907362784109 0  0.9438407578549227 -1.089421201884027 0  0.9885471530545766 -1.054612094855619 0  1.03260508546066 -1.018296452266304 0  1.075106494802548 -0.9806787331166607 0  1.116049941941117 -0.9421562975297019 0  1.156100475645073 -0.9036563122190504 0  1.194809340945444 -0.8641910118110163 0  1.232980597678983 -0.8257164791981262 0  1.268807182351495 -0.7836180828848047 0  1.304664171334758 -0.7465492379745777 0  1.340604149842914 -0.7083730396943581 0  1.374471196495601 -0.6682800523606101 0  1.406899313526581 -0.6273402440536999 0  1.437753236933595 -0.5856821778388724 0  1.466582716329567 -0.5427146515470807 0  1.494816264795153 -0.5001655918849608 0  1.51777905846052 -0.4533031600268008 0  1.542742918748059 -0.4111976512489 0  1.566351440403722 -0.3674264868122772 0  1.58421680328731 -0.3210274465371198 0  1.600471599169737 -0.2745149823244446 0  1.613319625955057 -0.2273461616274039 0  1.623681794082863 -0.1800504265028761 0  1.631060726193848 -0.132559115776953 0  1.636574286750736 -0.08524024303141527 0  -0.08083231081787744 0.8001141801060333 0  0.6187957830435282 -0.7191090929887411 0  -0.7274729151823988 -0.6294615958852523 0  -0.05694990612244537 -0.8903791041088026 0  0.6145076273848611 0.6234570260381185 0  1.166886349976378 0.2040200293867973 0  -0.7400512155159541 0.5297142141756952 0  -1.210309751209083 -0.04315914931738455 0  1.171109499031765 -0.2864130061729683 0  -1.015883508934439 -0.4548762398367826 0  -0.7767199467730403 -0.0579950917270915 0  -0.45593762547975 -0.2323027310515823 0  -1.026443517292302 0.3496154213645065 0  0.2990525072034122 -0.8675272036002865 0  0.154192400839057 -0.2931289596102405 0  0.2625311699294622 0.7617452244153553 0  0.3546883825765151 0.2036056183065607 0  0.6695050228338758 -0.04233026116285118 0  -0.3920061231952774 -0.7827293876376584 0  -0.4287809866390446 0.7052075320243727 0  -0.2560331013467227 0.259634300399548 0  0.9245704320360554 -0.4924925347388664 0  0.9203866612808737 0.4062303428881254 0  0.4224611030787661 -0.3240641375996515 0  0.04754844692224988 0.2550578396842144 0  -0.5192876343595836 0.1986039998910966 0  -0.1537440730661065 -0.2854855471851238 0  0.9530115323689589 -0.04193424841812286 0  1.360337105989881 -0.03957572275874768 0  0.7720141671222405 -0.6029128567182734 0  0.7882967366834071 -0.2768721110834577 0  0.6347404630394698 -0.3776003128678795 0  0.5446382458514059 -0.1793057617217721 0  0.5147535009625711 -0.5267965182855509 0  0.9316788881848801 -0.265626514666489 0  0.810582334596846 -0.04210975213115575 0  -0.8931591564972637 0.1551046352697152 0  -1.113921228690087 0.1491937465648633 0  -0.9955933706415262 -0.04967124112159333 0  -0.8877708751079196 -0.2651050711955769 0  -1.109164577172244 -0.2441093683872562 0  -1.283980871474254 -0.3365062344260987 0  -1.371674389189234 -0.1527315438176842 0  -1.369649524447673 0.07043642653498466 0  -1.27955824284215 0.2529151982234639 0  -0.1059372012857396 -0.5875653783313254 0  -0.2661685122651846 -0.5400433152055921 0  -0.2258048565538787 -0.8419266203938101 0  -0.3043009153794423 -0.2599846013788842 0  -0.4202467663359942 -0.5051358250599682 0  -1.202682838569117 -0.5337131057401863 0  -1.204175550489142 0.4418886185562821 0  0.359589726239579 -0.5933306719389932 0  0.287535792059143 -0.3102108347398778 0  0.2210877567446732 -0.5833276728563532 0  -0.8826779794365841 0.4354758072377256 0  -0.7489030290316178 0.2337350349291061 0  1.354632103372348 -0.3594034180104844 0  1.226131781047001 -0.5243633000730915 0  1.219365072244887 0.4417777584034422 0  1.349163601039292 0.2793007480323167 0  -0.7329742385041663 -0.9128490732005108 0  -0.9075942457353748 -0.7777644547906829 0  -0.9105797069228603 0.6855313996346313 0  -0.7364933404791572 0.8139712430142363 0  0.7904205883819907 -0.9015765891824691 0  0.6010413429731278 -1.014478290892211 0  0.5942395243199364 0.9150553336779773 0  0.7830421808198023 0.8077947436813726 0  0.0314753282239755
[...]
<CellData  Scalars="f_13744"> 
<DataArray  type="Float64"  Name="f_13744"  format="ascii">1.1179037255957455e-01   1.1180187174925857e-01   1.1178870845132072e-01   1.1179568850815896e-01   1.1180136094057455e-01   1.1179322726716705e-01   1.1180458023497553e-01   1.1180404148892979e-01   1.1178834088446214e-01   1.1180187529026506e-01   1.1178737271657883e-01   1.1179313228410218e-01   1.1178919726160226e-01   1.1180579844764502e-01   1.1178791332161137e-01   1.1178515621583211e-01   1.1180223446232246e-01   1.1179330685335802e-01   1.1180466433099548e-01   1.1180502421905829e-01   1.1178710884832702e-01   1.1180514378200364e-01   1.1178430005995346e-01   1.1178856413798573e-01   1.1180676682380838e-01   1.1179285276764364e-01   1.1179849506223005e-01   1.1180790113229672e-01   1.1180559585602598e-01   1.1178535675599349e-01   1.1180629301877132e-01   1.1180703510914727e-01   1.1178721019423650e-01   1.1180195701899899e-01   1.1178542987411889e-01   1.1179181259810415e-01   1.1180345063594017e-01   1.1179834232488227e-01   1.1179866469035339e-01   1.1180637546907876e-01   1.1179102965240489e-01   1.1179738770398938e-01   1.1176820050150620e-01   1.1177293976330253e-01   1.1179459745838816e-01   1.1179838836179740e-01   1.1176602047506659e-01   1.1176165287816173e-01   1.1178104279494896e-01   1.1180794843623369e-01   1.1178085577971775e-01   1.1177360977750332e-01   1.1180934652122065e-01   1.1178816709863647e-01   1.1179909292848739e-01   1.1180792009310818e-01   1.1179002381529048e-01   1.1179859106468154e-01   1.1175650872926102e-01   1.1175109598310962e-01   1.1178278500368059e-01   1.1180032336319719e-01   1.1174521374126185e-01   1.1174716348200278e-01   1.1176774484824586e-01   1.1175940064025586e-01   1.1173578585164723e-01   1.1182320449397067e-01   1.1176285913746867e-01   1.1181793917737265e-01   1.1178103198270932e-01   1.1178259459051003e-01   1.1173856885798895e-01   1.1175723243207260e-01   1.1173219132839457e-01   1.1181878836582761e-01   1.1180201411573222e-01   1.1178197453066344e-01   1.1180043971097965e-01   1.1180362329128968e-01   1.1175593964120623e-01   1.1181986453216558e-01   1.1178167002713814e-01   1.1178141639230625e-01   1.1179771025308924e-01   1.1178169751348289e-01   1.1180097784450800e-01   1.1180019333238039e-01   1.1178419317724736e-01   1.1180568431965725e-01   1.1178425341053889e-01   1.1178895697730371e-01   1.1178149498701166e-01   1.1180298314895658e-01   1.1178662602161633e-01   1.1178577591464200e-01   1.1172712232182755e-01   1.1175344521471640e-01   1.1172067981495999e-01   1.1181802303329837e-01   1.1175848699769440e-01   1.1182628869732812e-01   1.1177643689718313e-01   1.1178441097652220e-01   1.1172214208954341e-01   1.1174323344650171e-01   1.1167291652105220e-01   1.1178151388682030e-01   1.1180337451428068e-01   1.1177768784900759e-01   1.1176606405042248e-01   1.1177579805656750e-01   1.1180072695586882e-01   1.1178940992564036e-01   1.1179995687503484e-01   1.1179836237012694e-01   1.1179201764801935e-01   1.1180272339733721e-01   1.1179185799938672e-01   1.1179386761737382e-01   1.1180323556847857e-01   1.1178835760828877e-01   1.1177930351255877e-01   1.1178325810668821e-01   1.1180098789727139e-01   1.1179437825574004e-01   1.1178650393821382e-01   1.1178910647766462e-01   1.1182153895578477e-01   1.1180169905254955e-01   1.1179209502929602e-01   1.1183112690754657e-01   1.1179113199564196e-01   1.1179525252008130e-01   1.1179107424230046e-01   1.1180177369860260e-01   1.1179878386111622e-01   1.1179258403821869e-01   1.1179482170820049e-01   1.1180399688509106e-01   1.1183318932199675e-01   1.1180186813845115e-01   1.1179302132189514e-01   1.1183745659113568e-01   1.1179168231082151e-01   1.1180140146607088e-01   1.1179325448760138e-01   1.1179372063772229e-01   1.1179875538285082e-01   1.1179253412319876e-01   1.1180237356453829e-01   1.1180235860040351e-01   1.1179233079718759e-01   1.1179891558885879e-01   1.1179217069976639e-01   1.1179251039639296e-01   1.1178938892176869e-01   1.1179201417482047e-01   1.1178835212015972e-01   1.1180184259836018e-01   1.1179340364459317e-01   1.1179140736217617e-01   1.1179151889807439e-01   1.1180132407149079e-01   1.1179196548091097e-01   1.1180081083783271e-01   1.1179401747062490e-01   1.1179417577590306e-01   1.1178906364627389e-01   1.1179287790364435e-01   1.1178250276555560e-01   1.1179993159931668e-01   1.1179880721179022e-01   1.1179315966206356e-01   1.1179520467517730e-01   1.1179605387860107e-01   1.1184135273611349e-01   1.1180180499926543e-01   1.1179025462284570e-01   1.1184496410345350e-01   1.1178691413678574e-01   1.1178993222760658e-01   1.1178835325161943e-01   1.1180308583109581e-01   1.1180199382966464e-01   1.1179105073357024e-01   1.1179442248242238e-01   1.1179846805025932e-01   1.1184986623440575e-01   1.1179398502266549e-01   1.1177824747153593e-01   1.1185522185854356e-01   1.1182063579595239e-01   1.1179987108887841e-01   1.1181835565321237e-01   1.1179080727383410e-01   1.1180020635013724e-01   1.1179265557078402e-01   1.1179430599035835e-01   1.1179579174629475e-01   1.1181733353007411e-01   1.1179943042628082e-01   1.1181615803997653e-01   1.1179443562494835e-01   1.1179936404715289e-01   1.1179705656298013e-01   1.1179877522573427e-01   1.1179775841644686e-01   1.1179877920014508e-01   1.1179499450176177e-01   1.1179498859608072e-01   1.1179432937522317e-01   1.1180153438619224e-01   1.1179691748623191e-01   1.1179984966276864e-01   1.1179920384374448e-01   1.1179460281965091e-01   1.1179191685696983e-01   1.1180401600899904e-01   1.1179496072457280e-01   1.1179648109821516e-01   1.1179703802362581e-01   1.1179723409117394e-01   1.1179728511648993e-01   1.1181432401248440e-01   1.1179919772370847e-01   1.1181497634374264e-01   1.1179793634192155e-01   1.1179628664354516e-01   1.1179039709238268e-01   1.1180114725797112e-01   1.1179327424224667e-01   1.1180713999250107e-01   1.1180869062488832e-01   1.1182563556069902e-01   1.1182273709858566e-01   1.1179373613955249e-01   1.1180394279602758e-01   1.1182499230746136e-01   1.1182436234442457e-01   1.1179780219506918e-01   1.1179769868067156e-01   1.1179932412029692e-01   1.1180047311009217e-01   1.1179525709004394e-01   1.1179164530349013e-01   1.1180531864496210e-01   1.1179741624850534e-01   1.1179181860037229e-01   1.1180459197042253e-01   1.1182428865348211e-01   1.1182380781469348e-01   1.1179061585022367e-01   1.1180164358759370e-01   1.1182282077286167e-01   1.1182685889387958e-01   1.1182127511420654e-01   1.1180693657090540e-01   1.1180334923996414e-01   1.1182335411360339e-01   1.1179457973140869e-01   1.1179218961171696e-01   1.1179322458515557e-01   1.1180088358764745e-01   1.1181050044769944e-01   1.1179720475637346e-01   1.1180950373447121e-01   1.1179964275545867e-01   1.1182435009671518e-01   1.1180341329289452e-01   1.1179387103697636e-01   1.1182417562848720e-01   1.1179659981854105e-01   1.1179694537181320e-01   1.1179417591462315e-01   1.1179486685890895e-01   1.1179915599525427e-01   1.1179636997443393e-01   1.1180010363156999e-01   1.1180153698770236e-01   1.1179604753391170e-01   1.1179786029966705e-01   1.1179658049724447e-01   1.1179702348159064e-01   1.1179416432328676e-01   1.1179235489512682e-01   1.1179467877262628e-01   1.1180367219234683e-01   1.1181097407903656e-01   1.1179695554851955e-01   1.1181171493813558e-01   1.1179641435488454e-01   1.1179794009166603e-01   1.1179552628338091e-01   1.1179549829506677e-01   1.1179415060135579e-01   1.1181274706519907e-01   1.1179504218104465e-01   1.1181527271020869e-01   1.1179078046109354e-01   1.1179922673875918e-01   1.1179588958771433e-01   1.1179777087016515e-01   1.1179652806457777e-01   1.1182405720797967e-01   1.1180429920500515e-01   1.1179195939407974e-01   1.1182349269691952e-01   1.1179513613193631e-01   1.1179217062170961e-01   1.1179693421817016e-01   1.1180519842918037e-01   1.1179984565602322e-01   1.1179705954401246e-01   1.1179648409877878e-01   1.1179916896088626e-01   1.1182291018857712e-01   1.1180117410679466e-01   1.1178938659250068e-01   1.1182541577802611e-01   1.1027830675670118e-01   1.1193486479221813e-01   1.1206855657587786e-01   1.1110012258474486e-01   1.1176980978053090e-01   1.1186515330811145e-01   1.1175579250070614e-01   1.1115747162030268e-01   1.1177939635843200e-01   1.1180228080820603e-01   1.1180456125923088e-01   1.1180851580582106e-01   1.1166904869584786e-01   1.1255170189660021e-01   1.1177111993751762e-01   1.1136543609608847e-01   1.1178842607199650e-01   1.1178735233253471e-01   1.1180217938918127e-01   1.1179658236232654e-01   1.1178518017860535e-01   1.1180706942149178e-01   1.1177696622181403e-01   1.1179267518176128e-01   1.1180357782804272e-01   1.1179704208506794e-01   1.1180249054226053e-01   1.1183291955669139e-01   1.1186671238272498e-01   1.1180296372652036e-01   1.1169533354805332e-01   1.1087312000977784e-01   1.1179945918338798e-01   1.1180454520542762e-01   1.1179281570236591e-01   1.1179691896533261e-01   1.1180269849344177e-01   1.1179563078738582e-01   1.1180030676868603e-01   1.1180550123686507e-01   1.1180078634134370e-01   1.1179889792684651e-01   1.1178124613766827e-01   1.1177740441936258e-01   1.1179819336173338e-01   1.1180308085720717e-01   1.1178117730716267e-01   1.1177751238889215e-01   1.1226553404665925e-01   1.1287354479287204e-01   1.1179743711874521e-01   1.0980375933501514e-01   1.1198843254096548e-01   1.1241205306142059e-01   1.1201720465549410e-01   1.1006778684639537e-01   1.1169090263271521e-01   1.1175763996048263e-01   1.1183149073806958e-01   1.1158128365039775e-01   1.0865313965419952e-01   1.1145365804669002e-01   1.1251834663452480e-01   1.1178749906756766e-01   1.1188638450445951e-01   1.1125116495527425e-01   1.1273662497147133e-01   1.0795569914665190e-01   1.1201157620190483e-01   1.1251881299282736e-01   1.1201491384567600e-01   1.0991987918477167e-01   1.1151847809885751e-01   1.1176663936300153e-01   1.1184594540440454e-01   1.1167568748536884e-01   1.0950444057143302e-01   1.1289760494027952e-01   1.1182723084013764e-01   1.1231647936180650e-01   1.1179976077582604e-01   1.1179776547959731e-01   1.1180415614004217e-01   1.1182827082583738e-01   1.1178510398903796e-01   1.1180712724429387e-01   1.1179844644085157e-01   1.1177676227941068e-01   1.1180102794898816e-01   1.1178753488471517e-01   1.1178798211253524e-01   1.1179739946259622e-01   1.1167967200897687e-01   1.1179454068191844e-01   1.1186271754148713e-01   1.1085682932645409e-01   1.1177441599301931e-01   1.1180404971405380e-01   1.1178093932715433e-01   1.1179835402102757e-01   1.1180025598482317e-01   1.1179573846304473e-01   1.1180254752633027e-01   1.1180543975753704e-01   1.1177704575621590e-01   1.1179887135961186e-01   1.1178015430767792e-01   1.1180025727422155e-01   1.1179734011982694e-01   1.1180420933190419e-01   1.1179196390779329e-01   1.1179865360800782e-01   1.1143614266773696e-01   1.1260887064474391e-01   1.1175890018699469e-01   1.1161812542085632e-01   1.1175498966302552e-01   1.1189674109052858e-01   1.1178577193537841e-01   1.1115504744722290e-01   1.1180811424912232e-01   1.1180091129879091e-01   1.1180540978373175e-01   1.1176635741639036e-01   1.1081086067199242e-01   1.1170636786092654e-01   1.1213716298124585e-01   1.1008799823056829e-01   1.1179999164697803e-01   1.1179009041033708e-01   1.1179883728193017e-01   1.1180109892865324e-01   1.1178767577264777e-01   1.1180183535174716e-01   1.1178869310892336e-01   1.1179212838551861e-01   1.1179871833060667e-01   1.1178251282982032e-01   1.1179788649078960e-01   1.1180229788474176e-01   1.1180110672489336e-01   1.1179193208166513e-01   1.1180042508217833e-01   1.1180107365998555e-01   1.1177611289562621e-01   1.1180250760022546e-01   1.1178136266725258e-01   1.1178527488734721e-01   1.1179725179513564e-01   1.1178677134513913e-01   1.1179835768996432e-01   1.1180017347612875e-01   1.1178620785023230e-01   1.1179809478446649e-01   1.1178739990229850e-01   1.1179029667371027e-01   1.1178944868186455e-01   1.1180012512661157e-01   1.1179071608411587e-01   1.1179286104566936e-01   1.1179622644779304e-01   1.1176970883401466e-01   1.1178681471466706e-01   1.1179953363382637e-01   1.1176794925268028e-01   1.1179541953588830e-01   1.1178270341584884e-01   1.1178157254761337e-01   1.1177069808770672e-01   1.1178066922588563e-01   1.1167438813104717e-01   1.1173839030637181e-01   1.1179540740152709e-01   1.1178394726824190e-01   1.1176003564121742e-01   1.1177450316464520e-01   1.1180095650940165e-01   1.1179358715274255e-01   1.1179850868757187e-01   1.1180030877139087e-01   1.1179289666417164e-01   1.1179956035681045e-01   1.1179268369738177e-01   1.1179558114693516e-01   1.1179909293305731e-01   1.1179015971737107e-01   1.1178221778633377e-01   1.1178754327308868e-01   1.1180121606870476e-01   1.1179393989930436e-01   1.1179034145528827e-01   1.1179542476649597e-01   1.1180576600648885e-01   1.1179767188606765e-01   1.1180124462308194e-01   1.1180033963394319e-01   1.1179459130664555e-01   1.1179548051880694e-01   1.1178740606113137e-01   1.1179294816964712e-01   1.1180292666886350e-01   1.1179147915738620e-01   1.1180387178036616e-01   1.1179642178108927e-01   1.1180319074547355e-01   1.1178834987296041e-01   1.1179999650904714e-01   1.1180484063179957e-01   1.1178573800817802e-01   1.1179737421646625e-01   1.1176944792426888e-01   1.1178099402992005e-01   1.1180864329844692e-01   1.1177013607366856e-01   1.1180958387847335e-01   1.1180347121700897e-01   1.1175245326522749e-01   1.1181950439163214e-01   1.1173248824803794e-01   1.1175613771866849e-01   1.1178060624520723e-01   1.1180400570846462e-01   1.1177090142403728e-01   1.1178155093431076e-01   1.1180703108890154e-01   1.1177577196289530e-01   1.1181357162841894e-01   1.1180158876337556e-01   1.1175547577382659e-01   1.1181360263012553e-01   1.1171088013040767e-01   1.1174951361127883e-01   1.1183164928098398e-01   1.1171499070683658e-01   1.1186764386453127e-01   1.1183639092094974e-01   1.1182104099752559e-01   1.1172169267338486e-01   1.1183661149643535e-01   1.1182801515436405e-01   1.1180740706502816e-01   1.1177304001282147e-01   1.1180947649088085e-01   1.1181012404007390e-01   1.1176094628064751e-01   1.1181492067781873e-01   1.1175136697272545e-01   1.1176614173369258e-01   1.1181779917466303e-01   1.1174323066385276e-01   1.1182192251005553e-01   1.1181593052654366e-01   1.1180833493049404e-01   1.1176164784564091e-01   1.1181621469119475e-01   1.1179704569983095e-01   1.1075236672496122e-01   1.1211565085128342e-01   1.1190944830030877e-01   1.1191323446248765e-01   1.1172397789162870e-01   1.1177616844202468e-01   1.1182002347980254e-01   1.1172370874166207e-01   1.1176615458909421e-01   1.1180102520262010e-01   1.1176965377268321e-01   1.1180628519020533e-01   1.1176569201200785e-01   1.1180876650570641e-01   1.1180009852828100e-01   1.1179503094646087e-01   1.1179603999852208e-01   1.1180023686035467e-01   1.1180090434220798e-01   1.1179731458995375e-01   1.1179413444096556e-01   1.1179863881237388e-01   1.1179653829064681e-01   1.1179308497348724e-01   1.1179956970952176e-01   1.1180412581370365e-01   1.1179043065627807e-01   1.1179853649814726e-01   1.1179379962798873e-01   1.1179751329841410e-01   1.1179722950331210e-01   1.1179441216127949e-01   1.1177463021725882e-01   1.1179565981672296e-01   1.1177408093755495e-01   1.1179863325769163e-01   1.1179815050780066e-01   1.1180611243928866e-01   1.1179412738878491e-01   1.1180232971804528e-01   1.1178352222500906e-01   1.1179057354468125e-01   1.1175654192103111e-01   1.1177588810701053e-01   1.1180182692145119e-01   1.1179124222990465e-01   1.1177095877957660e-01   1.1177215618836805e-01   1.1179824195021218e-01   1.1179449365172919e-01   1.1179803811734781e-01   1.1179766702676397e-01   1.1179764030968824e-01   1.1180684009950898e-01   1.1178884350392548e-01   1.1179623704634176e-01   1.1180498817976360e-01   1.1178932589929767e-01   1.1177276715196960e-01   1.1177395574916052e-01   1.1180724535793965e-01   1.1178828548172612e-01   1.1177479117476373e-01   1.1178269588322666e-01   1.1178191948534111e-01   1.1178799504715671e-01   1.1177314274413036e-01   1.1180816900667878e-01   1.1178849555475583e-01   1.1180703955412453e-01   1.1179768275151719e-01   1.1179668827044689e-01   1.1177262548006296e-01   1.1178884872241951e-01   1.1177141400235376e-01   1.1180551063420134e-01   1.1179815893797258e-01   1.1179507610012258e-01   1.1179778692526250e-01   1.1179881359976113e-01   1.1178981863675619e-01   1.1180475255605124e-01   1.1179937693272535e-01   1.1179849272821364e-01   1.1179439877588609e-01   1.1179866756763975e-01   1.1179311911280494e-01   1.1179673045828681e-01   1.1180047749399370e-01   1.1180047323671567e-01   1.1179562522199683e-01   1.1179666413012121e-01   1.1179745425702248e-01   1.1179685003287725e-01   1.1179282297736738e-01   1.1179426307551177e-01   1.1177079097889317e-01   1.1179034151461163e-01   1.1176971734996513e-01   1.1180266712657631e-01   1.1179325848264385e-01   1.1180696556977489e-01   1.1179776720579224e-01   1.1180187208245752e-01   1.1177396488104765e-01   1.1178880606097716e-01   1.1175650516047769e-01   1.1178581010298413e-01   1.1179884390851393e-01   1.1179505876042807e-01   1.1177598576183737e-01   1.1177722545960106e-01   1.1179666298077766e-01   1.1181377131443528e-01   1.1180136323492899e-01   1.1175997670568588e-01   1.1182303049545593e-01   1.1176971906455219e-01   1.1171912333140659e-01   1.1170657959751040e-01   1.1180629688967776e-01   1.1180130479382829e-01   1.1177344871397285e-01   1.1177487315829966e-01   1.1192373817757349e-01   1.1216959197174786e-01   1.1193235395506460e-01   1.1085102309479065e-01   1.1181559363895888e-01   1.1180152255657237e-01   1.1180172051802664e-01   1.1181235758663621e-01   1.1179271213980337e-01   1.1179312033197902e-01   1.1178609303686413e-01   1.1179662995344383e-01   1.1180723167647345e-01   1.1178963844394102e-01   1.1180806085273345e-01   1.1180080260764445e-01   1.1181696128457506e-01   1.1179449440683885e-01   1.1179473133811969e-01   1.1182173502727308e-01   1.1178291231697407e-01   1.1180386961896385e-01   1.1177069230506631e-01   1.1178060912958164e-01   1.1181119966015404e-01   1.1176978993813982e-01   1.1181248951032720e-01   1.1180578976566262e-01   1.1175453672798576e-01   1.1182291995951989e-01   1.1172774406678343e-01   1.1174991593735759e-01   1.1177922025637924e-01   1.1179539580131824e-01   1.1176628154998924e-01   1.1178893187225218e-01   1.1181022294175806e-01   1.1177377603009708e-01   1.1181269033627764e-01   1.1180997735851184e-01   1.1176623706401698e-01   1.1181555256672963e-01   1.1174911625973642e-01   1.1176004750240007e-01   1.1180608092463772e-01   1.1176121383762060e-01   1.1179018062634079e-01   1.1182024141389169e-01   1.1182003925405620e-01   1.1174106190518937e-01   1.1181873946353531e-01   1.1182788548313044e-01   1.1183087289555009e-01   1.1177835662184610e-01   1.1180043955330943e-01   1.1184849818348942e-01   1.1174266067062134e-01   1.1181620685659512e-01   1.1169456262310787e-01   1.1175674175218860e-01   1.1182889661058393e-01   1.1171426791922959e-01   1.1183749399099932e-01   1.1185574964716123e-01   1.1188260089788492e-01   1.1170383287474475e-01   1.1185930495114982e-01   1.1198558917576494e-01   1.1179045085976906e-01   1.1180169000584964e-01   1.1178723343348539e-01   1.1179706803419168e-01   1.1180125882078081e-01   1.1179516627320528e-01   1.1180343825356685e-01   1.1180366425722651e-01   1.1178829129171761e-01   1.1180082255671771e-01   1.1178789718580064e-01   1.1179544011904023e-01   1.1179170452414132e-01   1.1180365426315368e-01   1.1179161264813987e-01   1.1178983373601685e-01   1.1180068689118079e-01   1.1179593567704219e-01   1.1180259436109014e-01   1.1180328433460890e-01   1.1179147791877647e-01   1.1180237010002494e-01   1.1179027129569599e-01   1.1179228663958221e-01   1.1180344356232863e-01   1.1179667707883660e-01   1.1179705999769082e-01   1.1180382577652133e-01   1.11803183