<?xml version="1.0"?>
<VTKFile type="UnstructuredGrid"  version="0.1"  >
<UnstructuredGrid>
<Piece  NumberOfPoints="2549" NumberOfCells="4928">
<Points>
<DataArray  type="Float64"  NumberOfComponents="3"  format="ascii">1.634807050144185 -0.04085361872933608 0  1.624899449226277 0.001752710247947589 0  1.621267537726568 0.04355253388117963 0  1.612140996726748 0.08706425855795297 0  1.600972516348035 0.1289579435080404 0  1.589932494460426 0.1737451086242103 0  1.572068455009347 0.2168330712983486 0  1.574342115942475 0.2672836390307546 0  1.522517370805446 0.2991095846232924 0  1.506178349470745 0.3305728028548782 0  1.495677644189786 0.4008046372864648 0  1.454700382279053 0.4266693612058046 0  1.429617793963489 0.4731361688968986 0  1.396781403012787 0.5128467569453964 0  1.361124220986895 0.5504870781181621 0  1.348367106951623 0.6052068678249719 0  1.271962624887752 0.6101861845191514 0  1.257128398823926 0.6444031173015347 0  1.232596148501323 0.7296330462168218 0  1.176072626813687 0.7302909682147928 0  1.142148660160984 0.7756547336247764 0  1.099321085323733 0.8102078661672214 0  1.060889530092566 0.849910014985057 0  1.020152312114896 0.8935864085298123 0  0.9643948749453034 0.9129282135392914 0  0.9338409980028983 0.9640084211396409 0  0.8819358299698264 0.9943095103935415 0  0.8340758322354208 1.021756292966108 0  0.7874036774517579 1.057606983519597 0  0.7376888628622242 1.087966092220882 0  0.6872558254860509 1.118650817745603 0  0.6368812987829671 1.149361421847675 0  0.5818338352387846 1.173128473783501 0  0.528811826218304 1.198185913520202 0  0.4747769194766735 1.223759954485027 0  0.4178478457951332 1.242383186294496 0  0.3616114506203235 1.261800975666796 0  0.3039700006037187 1.277491732611166 0  0.2456502239395933 1.291456473504096 0  0.1872401481500728 1.302805049954475 0  0.1272726342355753 1.310359695289387 0  0.06802157156985367 1.315588418925795 0  0.00812920404317035 1.318669082639312 0  -0.05175557083021338 1.318459809020929 0  -0.1116932231614959 1.315537619460788 0  -0.1713697436942522 1.309474760547684 0  -0.2309012703260108 1.301057990899405 0  -0.2898512479589914 1.288981896910125 0  -0.3478150473838101 1.27419938610068 0  -0.4064755575426688 1.257883631430924 0  -0.4627488456832707 1.237187518364285 0  -0.5184390109564629 1.213406724381325 0  -0.573580964717366 1.189309220700218 0  -0.6254286866231704 1.159344914108586 0  -0.6810115880776185 1.137734731105482 0  -0.7306964077806989 1.099092125397624 0  -0.7748393137324545 1.065104880663997 0  -0.8318411747050033 1.040811208794391 0  -0.8742687188451154 0.9989869061348251 0  -0.9196914326794614 0.9626813197254415 0  -0.965293705050764 0.9269494925048802 0  -1.006578841937673 0.8889068597458323 0  -1.059589836154348 0.8681033785010647 0  -1.081285016242478 0.788939318317908 0  -1.123627757124706 0.7767075416917727 0  -1.172834254656074 0.7443605915128807 0  -1.198187875439722 0.6954908521267579 0  -1.240217566156122 0.6676267039166356 0  -1.270750757867563 0.6122367957373722 0  -1.307489362660941 0.6130753394741951 0  -1.352499371357665 0.5478894842158041 0  -1.359582668322835 0.496003664459061 0  -1.456857458662965 0.5091276862751617 0  -1.448151831596687 0.4351094537857506 0  -1.482443813859106 0.402062604306636 0  -1.507068767691595 0.3549304670056186 0  -1.534156410012937 0.3124905893243244 0  -1.547452839584976 0.2602953648877833 0  -1.570517842966891 0.2235624682537611 0  -1.554921387720839 0.1466090905326739 0  -1.587851305191389 0.1418721114060158 0  -1.603685981378502 0.09132852959705871 0  -1.569900735325853 0.03936637886803948 0  -1.560690856520689 0.003038106351259158 0  -1.557312162135249 -0.03953193101222908 0  -1.572855014001389 -0.07040605940431123 0  -1.54970846065141 -0.1095837878863162 0  -1.567482392080374 -0.1530608504308443 0  -1.549901151552143 -0.2039901486130011 0  -1.528087162143833 -0.2130594529935403 0  -1.555424475931575 -0.2815229613744543 0  -1.534089079246922 -0.3242807063350268 0  -1.526011985547733 -0.38154394052031 0  -1.501153569669004 -0.4276447450947379 0  -1.477096137099563 -0.4764222618042913 0  -1.441596062741695 -0.5100363794768852 0  -1.442120205087936 -0.5807599487483316 0  -1.366970144324254 -0.5981919435448964 0  -1.34361458173503 -0.6268228051638803 0  -1.307174926934918 -0.6840479383647535 0  -1.271529671335563 -0.6939802256884979 0  -1.241463922563598 -0.7450618619444913 0  -1.202291322719172 -0.7764714329552052 0  -1.173682643746568 -0.8220454711373898 0  -1.130940869877623 -0.8583039159793401 0  -1.087992023046625 -0.8738840722994186 0  -1.064229233794502 -0.9460743958001726 0  -1.015848126766925 -0.9752367277491935 0  -0.9737594622864653 -1.014208081183275 0  -0.9297815916648297 -1.052903830683657 0  -0.8844910463491037 -1.091797679932465 0  -0.8392005730382212 -1.129916488722002 0  -0.7914397098829429 -1.168050398841853 0  -0.7388643797350545 -1.194310348734906 0  -0.694752685647792 -1.242237467820173 0  -0.6367008424513644 -1.270241062689839 0  -0.5842984549915226 -1.30064200508604 0  -0.5278992206594461 -1.327391846563165 0  -0.4712314990281887 -1.35272409072826 0  -0.4149842985132607 -1.376788850407495 0  -0.3538311253320647 -1.39244682565312 0  -0.2954884911827346 -1.408466649729753 0  -0.2356295538798509 -1.422408199766983 0  -0.174835757812509 -1.430422234317218 0  -0.1141782473508334 -1.437401405912246 0  -0.05300211211333827 -1.440402540069563 0  0.008174988224647359 -1.440527838729077 0  0.06931699373393634 -1.437081574847356 0  0.1303293315350831 -1.430342999470335 0  0.1904949177911977 -1.420478137324596 0  0.2502231424397887 -1.408163979601727 0  0.3091964524759027 -1.392865300867496 0  0.3675997325515804 -1.375520418906224 0  0.4246089972054095 -1.354520336324552 0  0.481774263023158 -1.334736935488587 0  0.5371007680797629 -1.30744235809351 0  0.5891153935772678 -1.281697513992458 0  0.6458554409862437 -1.257487572017043 0  0.6962321402522649 -1.224662678516295 0  0.7472047200478603 -1.193056119269013 0  0.7969149344959806 -1.160818950813343 0  0.8445460224241573 -1.125454629372153 0  0.8917801451003556 -1.093507928831678 0  0.9408331077775441 -1.06065146953106 0  0.9784656044061727 -1.020086282071185 0  1.028773391991546 -0.9896287008236293 0  1.070927059837849 -0.9487617922500792 0  1.110838584243478 -0.9092177797804571 0  1.152330762270032 -0.8723362492448675 0  1.189273891449646 -0.8294581365855607 0  1.235929533107205 -0.8082359427121462 0  1.265228844513889 -0.7416307089947897 0  1.291851008683624 -0.7152433678467558 0  1.348018192095529 -0.6913524639360407 0  1.371932211123945 -0.6435371639603281 0  1.405976542680403 -0.6040419174295097 0  1.437824506973821 -0.5628808400774272 0  1.46485751029056 -0.5171904494872798 0  1.498384029282873 -0.4813560882285006 0  1.512563844974982 -0.4193026752195116 0  1.537840704755871 -0.3933014671477562 0  1.571978738258246 -0.3517525195880652 0  1.580327746177507 -0.3028706360287796 0  1.595855507405421 -0.2579534600967847 0  1.606099097274599 -0.2124515708187796 0  1.615181251623222 -0.168812053797779 0  1.621064065709479 -0.1254654430895582 0  1.63173598099755 -0.08584550695916078 0  -0.09447671730820006 0.7867395891156832 0  0.6114687813031348 -0.7066811130408857 0  -0.7452090822777149 -0.6152402372626035 0  -0.07150754167719184 -0.8813379081069823 0  0.6075512392546546 0.6059406931921818 0  1.167447728189308 0.1945508502509515 0  -0.7609817080681482 0.5173471199647254 0  -1.231045083713143 -0.03645381098042087 0  1.172004206248661 -0.2847941852034549 0  -1.037520239506703 -0.4384560477541897 0  -0.7949304577982307 -0.05486411173471538 0  -0.4700724491229798 -0.2290571036742727 0  -1.055463457948008 0.3394951018336397 0  0.2877054467813337 -0.8556114768699069 0  0.1427016137657986 -0.2914292366545141 0  0.2520437915960534 0.7460420473202148 0  0.3449618568775141 0.1967062120786186 0  0.6633052883755062 -0.04507393026196077 0  -0.4081693516813771 -0.7740097592418934 0  -0.4457696661410833 0.6933516586754729 0  -0.2698793440923061 0.2544526232084439 0  0.9226480591157181 -0.4843191247757269 0  0.9182551315881767 0.3911944223061223 0  0.4131927127013161 -0.3209861287996602 0  0.0354944136966959 0.248786669851472 0  -0.5352119470743915 0.194792948001154 0  -0.166618580630927 -0.2837776506980291 0  0.9502808374159171 -0.04524088757983978 0  1.358139129938263 -0.04364809629801757 0  0.7673247131097035 -0.5921718948971253 0  0.7837848839078904 -0.2741050182039341 0  0.6280443646221127 -0.3726416157013077 0  0.5368746028256286 -0.1789212402577205 0  0.5062879346613651 -0.5191748068390507 0  0.9292125673981834 -0.2633491751298441 0  0.8061786598725736 -0.04511354282363779 0  -0.915685433755004 0.1527187237266026 0  -1.142395420930327 0.1492041230764407 0  -1.017037466348366 -0.04492228646754082 0  -0.9065383747951989 -0.2556350267526144 0  -1.130113191048914 -0.2349379903444709 0  -1.30920346705029 -0.3283719482975259 0  -1.38049947782075 -0.1439366564561777 0  -1.39661610494545 0.0751954664845588 0  -1.318754930702878 0.2507845858115378 0  -0.1195112459224522 -0.5823508040337668 0  -0.280160904318997 -0.5348518232987722 0  -0.241355879413549 -0.8338008119466209 0  -0.3176789952115953 -0.2577638190376094 0  -0.434715631100315 -0.4987695577516338 0  -1.231947962871329 -0.5125858043034479 0  -1.243639640668946 0.4264717300122686 0  0.349236536545177 -0.5855764220142626 0  0.2769991273260619 -0.3078664144314733 0  0.2094829752504145 -0.5767978691650547 0  -0.9066515909601007 0.4232745183287581 0  -0.7686776871412143 0.2288374228746335 0  1.359688586499081 -0.3566608143775608 0  1.231388101663131 -0.5171287631363051 0  1.224079271250667 0.4254853469916929 0  1.354017115263469 0.2678186822058349 0  -0.7548185067425173 -0.8950923186407302 0  -0.9296012299620345 -0.7558564639873672 0  -0.9357238097341579 0.6662899564299536 0  -0.7591874220177613 0.7966669677938362 0  0.7854993359016371 -0.8838755448975927 0  0.5933756361442761 -0.9967251547768654 0  0.5876860461403932 0.8924392365516538 0  0.7785867330618755 0.7839829990005152 0  0.
[...]
<CellData  Scalars="f_4911"> 
<DataArray  type="Float64"  Name="f_4911"  format="ascii">1.1179218090942190e-01   1.1180033384065721e-01   1.1179033722314749e-01   1.1179655547969983e-01   1.1180024087193538e-01   1.1179407064177428e-01   1.1180310838685777e-01   1.1180245921451921e-01   1.1178966288082492e-01   1.1180077243907931e-01   1.1178838908204608e-01   1.1179374463917777e-01   1.1179043322046982e-01   1.1180418718977858e-01   1.1178848344403258e-01   1.1178600062428146e-01   1.1180120623871549e-01   1.1179369681369516e-01   1.1180356153696115e-01   1.1180378351028927e-01   1.1178702612346729e-01   1.1180402509110397e-01   1.1178386831455364e-01   1.1178888847224411e-01   1.1180589038435128e-01   1.1179246788621916e-01   1.1179749929979606e-01   1.1180719195578598e-01   1.1180421767784099e-01   1.1178519629014999e-01   1.1180517100889650e-01   1.1180581346694378e-01   1.1178794915176628e-01   1.1180097254021536e-01   1.1178585161317026e-01   1.1179195009130824e-01   1.1180255118789910e-01   1.1179851763030305e-01   1.1179759960665039e-01   1.1180545754796409e-01   1.1179137091449805e-01   1.1179630997025317e-01   1.1176762221278917e-01   1.1177207230961435e-01   1.1179456653096713e-01   1.1179732077675684e-01   1.1176462378390359e-01   1.1175950950642247e-01   1.1178116339365923e-01   1.1180744006259305e-01   1.1177954883080515e-01   1.1177225642325990e-01   1.1180887371809750e-01   1.1178618599615983e-01   1.1179855109618410e-01   1.1180811901337109e-01   1.1178914938046031e-01   1.1179774986233197e-01   1.1175328616746051e-01   1.1174658302436787e-01   1.1178116670653099e-01   1.1180076251727086e-01   1.1173817556547942e-01   1.1173992658959205e-01   1.1176111965114190e-01   1.1175341262384227e-01   1.1172834097850466e-01   1.1182311843941369e-01   1.1175793451869256e-01   1.1181860952853834e-01   1.1177980740680463e-01   1.1178019127122757e-01   1.1173084728063586e-01   1.1175262473541471e-01   1.1172416224239574e-01   1.1181863870160630e-01   1.1179943665823447e-01   1.1178086314868918e-01   1.1179870541845369e-01   1.1180128541694639e-01   1.1175243870948136e-01   1.1181900707417881e-01   1.1178242989338634e-01   1.1178099884881051e-01   1.1179486357663318e-01   1.1178241082927336e-01   1.1179877923936014e-01   1.1179762033050664e-01   1.1178549760637078e-01   1.1180216736901942e-01   1.1178720892799764e-01   1.1179030806971167e-01   1.1178138572734236e-01   1.1180110495068427e-01   1.1178764283982838e-01   1.1178591754518341e-01   1.1171886001883742e-01   1.1175147880856885e-01   1.1171310229566427e-01   1.1181650124703137e-01   1.1175803817038733e-01   1.1182230543911784e-01   1.1178048603886206e-01   1.1178605046081924e-01   1.1171406955150638e-01   1.1174692708457909e-01   1.1167409052977836e-01   1.1178405990694416e-01   1.1179884093478278e-01   1.1178125567345221e-01   1.1176695503606283e-01   1.1177710280760442e-01   1.1179841541370536e-01   1.1179029183479001e-01   1.1179808306458003e-01   1.1179665041905937e-01   1.1179317285396849e-01   1.1180035376888238e-01   1.1179372367359296e-01   1.1179484472083917e-01   1.1180026777310891e-01   1.1179073051321974e-01   1.1178043955992090e-01   1.1178437223967543e-01   1.1179914153149693e-01   1.1179597520251833e-01   1.1178756840624277e-01   1.1179028029140993e-01   1.1182159970113266e-01   1.1180137430485039e-01   1.1179160395165837e-01   1.1183124652826826e-01   1.1179040574936217e-01   1.1179445471154854e-01   1.1178995928267010e-01   1.1180118152417193e-01   1.1179856317236929e-01   1.1179170459759503e-01   1.1179461305129880e-01   1.1180348320793555e-01   1.1183366307267437e-01   1.1180108948813688e-01   1.1179228787153631e-01   1.1183842164254378e-01   1.1179056949991618e-01   1.1180081904755131e-01   1.1179173421848713e-01   1.1179242172077190e-01   1.1179841580377697e-01   1.1179093724527531e-01   1.1180221589363892e-01   1.1180199875343547e-01   1.1179037344664661e-01   1.1179807790180822e-01   1.1179041876845187e-01   1.1179039715032474e-01   1.1178791871828304e-01   1.1179119949140220e-01   1.1178644787957884e-01   1.1180078883444998e-01   1.1179319173600610e-01   1.1179010516849040e-01   1.1179137216956678e-01   1.1180087252238799e-01   1.1179039220160226e-01   1.1179987989573778e-01   1.1179248822088700e-01   1.1179238895717404e-01   1.1178833590441095e-01   1.1179182105939169e-01   1.1178269973702455e-01   1.1180105117083002e-01   1.1179799382195267e-01   1.1179162714510217e-01   1.1179632753406268e-01   1.1179744515845598e-01   1.1184299926488374e-01   1.1180043498237033e-01   1.1178950639401720e-01   1.1184776558876432e-01   1.1178429378196475e-01   1.1178852627023171e-01   1.1178589910047940e-01   1.1180130333182957e-01   1.1180139568675918e-01   1.1178906525903459e-01   1.1179600290342467e-01   1.1180071293398454e-01   1.1185320377532715e-01   1.1179198000219158e-01   1.1177953597822819e-01   1.1186367415292477e-01   1.1181917672046662e-01   1.1180003011523615e-01   1.1181730216378390e-01   1.1178942592634646e-01   1.1180014511559117e-01   1.1179069312437062e-01   1.1179395313874527e-01   1.1179546201564253e-01   1.1181671598322813e-01   1.1179944109602349e-01   1.1181614159317314e-01   1.1179225988798647e-01   1.1179782531952627e-01   1.1179688942453531e-01   1.1179686044276745e-01   1.1179594088457911e-01   1.1179859908710874e-01   1.1179229352502618e-01   1.1179442742632920e-01   1.1179375411378235e-01   1.1179956121182988e-01   1.1179694250560797e-01   1.1179726593410798e-01   1.1179672613721288e-01   1.1179342931953623e-01   1.1178463258218777e-01   1.1180787395388707e-01   1.1179443910821554e-01   1.1179624584260280e-01   1.1179433869561520e-01   1.1179747029580508e-01   1.1179718122849451e-01   1.1181468289562567e-01   1.1179894754311327e-01   1.1181703999735057e-01   1.1179599620376190e-01   1.1179447237107185e-01   1.1178473344095144e-01   1.1180197446182474e-01   1.1179116922449703e-01   1.1180718552853001e-01   1.1180951590230200e-01   1.1183622140196800e-01   1.1183235620178857e-01   1.1178734310543509e-01   1.1180711384827896e-01   1.1183409470833935e-01   1.1183152350474818e-01   1.1179547175695860e-01   1.1179805623714244e-01   1.1179666570667862e-01   1.1179818662053465e-01   1.1179523548031320e-01   1.1178577647510388e-01   1.1180875858014606e-01   1.1179773409977398e-01   1.1178491518937683e-01   1.1180857198828494e-01   1.1182928283305912e-01   1.1182674525262240e-01   1.1178626385785372e-01   1.1180422898049014e-01   1.1182411386939704e-01   1.1182669866654757e-01   1.1182357910181671e-01   1.1180745993275452e-01   1.1180263357046635e-01   1.1182526878907613e-01   1.1179377423636525e-01   1.1179044331413265e-01   1.1179227488345751e-01   1.1180102809080303e-01   1.1181046605751967e-01   1.1179654038533547e-01   1.1180900240126940e-01   1.1179914973791118e-01   1.1182602030262727e-01   1.1180377213650923e-01   1.1179217678792827e-01   1.1182549820414481e-01   1.1179570484399234e-01   1.1179642572719223e-01   1.1179311982614770e-01   1.1179403802348041e-01   1.1179863663352571e-01   1.1179532040723049e-01   1.1179970954453970e-01   1.1180104688505269e-01   1.1179468697927882e-01   1.1179756617513391e-01   1.1179480083851120e-01   1.1179566399107675e-01   1.1179315491439396e-01   1.1179080660335504e-01   1.1179352333977494e-01   1.1180384379385483e-01   1.1181035620525995e-01   1.1179588259011874e-01   1.1181090055768456e-01   1.1179610045435238e-01   1.1179669419392597e-01   1.1179536909149694e-01   1.1179415078068022e-01   1.1179296560964055e-01   1.1181182036649855e-01   1.1179353805043206e-01   1.1181414014746144e-01   1.1179058351244933e-01   1.1179890400091903e-01   1.1179426657008008e-01   1.1179732498971511e-01   1.1179619985307172e-01   1.1182514131705899e-01   1.1180419120196806e-01   1.1179080669801823e-01   1.1182463672719561e-01   1.1179361048860671e-01   1.1179170042180460e-01   1.1179494478740296e-01   1.1180460746561774e-01   1.1179972148488339e-01   1.1179503546287410e-01   1.1179623746019814e-01   1.1179939955538097e-01   1.1182437316553880e-01   1.1179902684044775e-01   1.1178943829453325e-01   1.1182824609697790e-01   7.5548605473524003e-02   1.0918983370789494e-01   1.1426076025482385e-01   1.0102131793348545e-01   1.1125507225049569e-01   1.1158291227469849e-01   1.1157078437434705e-01   1.0948713815596769e-01   1.1151229502296790e-01   1.1190980447657753e-01   1.1179784247119257e-01   1.1199154285268259e-01   1.1354011224504990e-01   1.1476265736960838e-01   1.1156397937590919e-01   1.0997067382986471e-01   1.1176132341732481e-01   1.1175065473268958e-01   1.1182179393615056e-01   1.1179808092337859e-01   1.1178193799037042e-01   1.1179939347589747e-01   1.1163160579826586e-01   1.1177785471496050e-01   1.1183740682927912e-01   1.1180920060909200e-01   1.1180054561227254e-01   1.1183778004976382e-01   1.1195298028715001e-01   1.1210754050504143e-01   1.1168290449122627e-01   1.0804861373409826e-01   1.1179902316627729e-01   1.1181454014208633e-01   1.1178547366659619e-01   1.1178541903267028e-01   1.1181029413448354e-01   1.1178986991069324e-01   1.1180376638397801e-01   1.1181068410084824e-01   1.1179782155374972e-01   1.1180357761890752e-01   1.1177878670701774e-01   1.1177314144921340e-01   1.1177945928566325e-01   1.1182803985925070e-01   1.1179275940611290e-01   1.1174333508347904e-01   1.0979435306851427e-01   1.1315609726711630e-01   1.1222478076191945e-01   1.0233652963399645e-01   1.1234489489488457e-01   1.1381405308063847e-01   1.1245866066838281e-01   1.0625832374222528e-01   1.1134545768982394e-01   1.1173806552399189e-01   1.1201548955629288e-01   1.1118505829075329e-01   8.9932993043581100e-02   9.6378904317243469e-02   1.1426427420656780e-01   7.2307464275513100e-02   6.1438084655324472e-02   9.2087073604356778e-02   1.1594447411431082e-01   8.6958806213880260e-02   1.1234658915502992e-01   1.1214214247964384e-01   1.1215079633560610e-01   1.1002040595276902e-01   1.1120979002885988e-01   1.1194380061631269e-01   1.1192571640112213e-01   1.1149964948151277e-01   1.0666744473244337e-01   1.1157938801807865e-01   1.1208506535305417e-01   1.0965096238163287e-01   1.1182572081340127e-01   1.1174542672441728e-01   1.1184454266714977e-01   1.1183556911246566e-01   1.1176082897168017e-01   1.1175793991311898e-01   1.1174747500291676e-01   1.1164519492091272e-01   1.1181280714715848e-01   1.1174396402084817e-01   1.1179958551071122e-01   1.1185178117197005e-01   1.1167048275463048e-01   1.1227684942892141e-01   1.1191805164593108e-01   1.0930308060503659e-01   1.1176258517949512e-01   1.1181790119941111e-01   1.1177208990759091e-01   1.1176517523156883e-01   1.1181179505332521e-01   1.1178015298031257e-01   1.1181089850116767e-01   1.1181630262552239e-01   1.1177038076448229e-01   1.1180533250231918e-01   1.1177412527159968e-01   1.1178961976950509e-01   1.1176733706674215e-01   1.1181480481778901e-01   1.1177566683070092e-01   1.1177590003434167e-01   1.1009302855339700e-01   1.1301713751149038e-01   1.1157875687485166e-01   1.1351911346760704e-01   1.1142222981902562e-01   1.1250262698418781e-01   1.1208187649569654e-01   1.1275463889456622e-01   1.1175945449684180e-01   1.1168648048484453e-01   1.1173513341306572e-01   1.1171033051185571e-01   1.0408018101657308e-01   9.7948899284578603e-02   1.1086006258985839e-01   5.4435708196943676e-02   1.1179926576791543e-01   1.1179071030788740e-01   1.1179769584438193e-01   1.1180060488330883e-01   1.1178880361774898e-01   1.1180087514782702e-01   1.1178991470637642e-01   1.1179292671077620e-01   1.1179735470866524e-01   1.1178449666282221e-01   1.1179625971893729e-01   1.1180102175012124e-01   1.1180043187095100e-01   1.1179272397686046e-01   1.1179941391186081e-01   1.1180038651250451e-01   1.1177947296224784e-01   1.1180088129795497e-01   1.1178365759965542e-01   1.1178708709524103e-01   1.1179642198955024e-01   1.1178820859509044e-01   1.1179760369595061e-01   1.1179908644083501e-01   1.1178742803273875e-01   1.1179767901699447e-01   1.1178791494871507e-01   1.1179114817440135e-01   1.1179054301958948e-01   1.1179920769691440e-01   1.1179160652024972e-01   1.1179359028127978e-01   1.1179439020856285e-01   1.1177380817053548e-01   1.1178688577521850e-01   1.1179842886750849e-01   1.1176996297288215e-01   1.1179657611214056e-01   1.1178084336355698e-01   1.1178326265748262e-01   1.1178191313919494e-01   1.1177515974564334e-01   1.1171338277041545e-01   1.1175110578501234e-01   1.1179561362173220e-01   1.1178415314002971e-01   1.1176638206916432e-01   1.1177722924979072e-01   1.1180027260931141e-01   1.1179419281509512e-01   1.1179779863579153e-01   1.1179970892575089e-01   1.1179347687657151e-01   1.1179896082075184e-01   1.1179308765959015e-01   1.1179600795119107e-01   1.1179854108365128e-01   1.1179066243952757e-01   1.1178342650860654e-01   1.1178796815949570e-01   1.1180063754523624e-01   1.1179424133088955e-01   1.1179035432704662e-01   1.1179520062959215e-01   1.1180571581183894e-01   1.1179761525651583e-01   1.1180105484112907e-01   1.1180016671912449e-01   1.1179481903200965e-01   1.1179512636485291e-01   1.1178850362229774e-01   1.1179338661716783e-01   1.1180244611803618e-01   1.1179226577964778e-01   1.1180280433537867e-01   1.1179562565755655e-01   1.1180259220614522e-01   1.1178949693950635e-01   1.1179885635172704e-01   1.1180373368337690e-01   1.1178770979619451e-01   1.1179563720068995e-01   1.1177410423187389e-01   1.1178330139507388e-01   1.1180478739153202e-01   1.1177422652394785e-01   1.1180622683039408e-01   1.1180136440689864e-01   1.1175970460599768e-01   1.1181438398558831e-01   1.1174052474867437e-01   1.1176176555401898e-01   1.1178282132397555e-01   1.1180192634151360e-01   1.1177437743358533e-01   1.1178361727457721e-01   1.1180465253862427e-01   1.1178016786689828e-01   1.1180841145150791e-01   1.1179783075088187e-01   1.1176574311267731e-01   1.1180568397911479e-01   1.1172828274971455e-01   1.1175837951214572e-01   1.1181913100896036e-01   1.1173564124806007e-01   1.1183975127631991e-01   1.1182214618096563e-01   1.1181421924478654e-01   1.1173301905023623e-01   1.1182886524039709e-01   1.1182290763928041e-01   1.1180576811582556e-01   1.1177602106760307e-01   1.1180653248916766e-01   1.1180817649801861e-01   1.1176521523187054e-01   1.1181170580242014e-01   1.1175546974782877e-01   1.1176951263190527e-01   1.1181384969446283e-01   1.1174895731635914e-01   1.1181826467667569e-01   1.1181319148365124e-01   1.1180690594574190e-01   1.1176468152511669e-01   1.1181352792340991e-01   1.1179659777928433e-01   7.9629560417739179e-02   1.1335034872827729e-01   1.1219434290614584e-01   1.1419645603475967e-01   1.1126954619576630e-01   1.1174747787769143e-01   1.1192666310633072e-01   1.1098112121125250e-01   1.1164971559114872e-01   1.1182463543412596e-01   1.1170608361193547e-01   1.1183594933979357e-01   1.1145903566558416e-01   1.1192719670388435e-01   1.1187188568963716e-01   1.1180811461148897e-01   1.1179567442098283e-01   1.1180051176519118e-01   1.1180198637725254e-01   1.1177193187798089e-01   1.1179402151382914e-01   1.1180235746808383e-01   1.1179991265679125e-01   1.1178491277775228e-01   1.1179675772123664e-01   1.1180369973853636e-01   1.1178890391973090e-01   1.1179414196137934e-01   1.1175182913721914e-01   1.1178572995765361e-01   1.1179956482290072e-01   1.1177263699744124e-01   1.1175139756671736e-01   1.1179697447521862e-01   1.1175990276667222e-01   1.1179555321988031e-01   1.1179829906997533e-01   1.1180452296386048e-01   1.1179404167492947e-01   1.1180238110618607e-01   1.1177475081363045e-01   1.1179059719395107e-01   1.1174937271667583e-01   1.1177158072049644e-01   1.1180041133906206e-01   1.1179004628283888e-01   1.1176666440326934e-01   1.1176914912885928e-01   1.1180387521772837e-01   1.1178911994991318e-01   1.1180088501976851e-01   1.1180016418758154e-01   1.1179352369485943e-01   1.1180996825376292e-01   1.1178616010294705e-01   1.1179288382877610e-01   1.1180572397931535e-01   1.1178719132825515e-01   1.1177082610838163e-01   1.1177291000536978e-01   1.1181129274909683e-01   1.1178522195735884e-01   1.1177415127176998e-01   1.1178293569730358e-01   1.1178312138575386e-01   1.1178083550579074e-01   1.1177146437840681e-01   1.1181382714389987e-01   1.1178085378100565e-01   1.1181107776419059e-01   1.1178968984426874e-01   1.1178722311243440e-01   1.1176688590584284e-01   1.1178229209321743e-01   1.1176106481777626e-01   1.1180610020643043e-01   1.1180359003803832e-01   1.1177862881030926e-01   1.1179747308337992e-01   1.1180525508934266e-01   1.1178571245399423e-01   1.1180067013186193e-01   1.1180114397746685e-01   1.1179364313335363e-01   1.1177650784739977e-01   1.1180146631160155e-01   1.1176779132977517e-01   1.1179491401368336e-01   1.1181681821569193e-01   1.1175315337745986e-01   1.1186262572433447e-01   1.1182414740253854e-01   1.1178866832257021e-01   1.1180346498612358e-01   1.1176098416241306e-01   1.1177587155281996e-01   1.1175566859430081e-01   1.1178938483459445e-01   1.1174972523536120e-01   1.1179150631893327e-01   1.1179705521242794e-01   1.1179335124410783e-01   1.1180789270472721e-01   1.1181266639730365e-01   1.1175437371828180e-01   1.1179161157917346e-01   1.1173058335309280e-01   1.1175654185335593e-01   1.1176852296342314e-01   1.1181655568498772e-01   1.1172695238705450e-01   1.1168816872265293e-01   1.1177738853896897e-01   1.1177476912227623e-01   1.1192005309226091e-01   1.1218018330159420e-01   1.1193181598742737e-01   1.1152788135029755e-01   1.1257169568774320e-01   1.1050715799444465e-01   1.1166311380627930e-01   1.1189478449777700e-01   1.1154002465238674e-01   1.1129060065805170e-01   1.1520244582702541e-01   1.1071405713638435e-01   1.0923817410062583e-01   7.9256101035743348e-02   1.1181403937197658e-01   1.1180220098657954e-01   1.1180078758807060e-01   1.1180961642434910e-01   1.1179454555982334e-01   1.1179103692866214e-01   1.1178882062843186e-01   1.1179793489952665e-01   1.1180567842214202e-01   1.1179231996313918e-01   1.1180623311949060e-01   1.1179698609716003e-01   1.1181310097087632e-01   1.1179682968465701e-01   1.1179150773355119e-01   1.1181564112707504e-01   1.1178674353165556e-01   1.1179844148017365e-01   1.1177601281437864e-01   1.1178456255431882e-01   1.1180364197845769e-01   1.1177691678534400e-01   1.1180251570249390e-01   1.1179988516738817e-01   1.1176291703386276e-01   1.1180955383816107e-01   1.1174034485578166e-01   1.1176206906472083e-01   1.1178408423552433e-01   1.1178943063072934e-01   1.1177523721231132e-01   1.1179331228071289e-01   1.1180826237879719e-01   1.1177862579686600e-01   1.1181164537508104e-01   1.1180350270536017e-01   1.1177019100617548e-01   1.1180897896674649e-01   1.1175111524347286e-01   1.1176511484079085e-01   1.1180760876285378e-01   1.1176342511890101e-01   1.1179841469232861e-01   1.1182314774853293e-01   1.1181147350732636e-01   1.1174740597728672e-01   1.1182274008845440e-01   1.1182959394569629e-01   1.1182039476005312e-01   1.1178775315943136e-01   1.1178989314094527e-01   1.1182959265029939e-01   1.1175955652929022e-01   1.1179029519370635e-01   1.1173207033207556e-01   1.1177473520389748e-01   1.1180890326730453e-01   1.1173676868706750e-01   1.1183433255530345e-01   1.1184176820790705e-01   1.1184179338107765e-01   1.1175748398841169e-01   1.1182718731189115e-01   1.1189608954406910e-01   1.1178954236622585e-01   1.1180314694809394e-01   1.1178748551341108e-01   1.1179519862295920e-01   1.1180287213064298e-01   1.1179442645605521e-01   1.1180406107983251e-01   1.1180404995595558e-01   1.1178830227361380e-01   1.1180244080829460e-01   1.1178807311678519e-01   1.1179433434043275e-01   1.1179012340637513e-01   1.1180329443093247e-01   1.1179140959837347e-01   1.1178833043048175e-01   1.1180215158789188e-01   1.1179487959082432e-01   1.1180238337800291e-01   1.1180354286994781e-01   1.1179095616141743e-01   1.1180166767951320e-01   1.1178986631686423e-01   1.1179179864180536e-01   1.1180247470662220e-01   1.1179705738615464e-01   1.1179458196226556e-01   1.1180243571446705e-01   1.1180300185