<?xml version="1.0"?>
<VTKFile type="UnstructuredGrid"  version="0.1"  >
<UnstructuredGrid>
<Piece  NumberOfPoints="2549" NumberOfCells="4928">
<Points>
<DataArray  type="Float64"  NumberOfComponents="3"  format="ascii">-0.7602502295896389 -0.3314440210853872 0  -0.7777469898312406 -0.3672668501889658 0  -0.8080985477212628 -0.441444286440348 0  -0.7636693592420916 -0.4786469229220648 0  -0.7057740737144231 -0.5065052839586371 0  -0.6192813106180628 -0.5028391988838612 0  -0.5371303350454559 -0.4862144010596142 0  -0.4104744919123837 -0.4270088447905324 0  -0.3805320602226072 -0.3825690954376782 0  -0.3429390356238839 -0.4829132084740267 0  -0.1960275870731338 -0.3018495463616902 0  -0.1338681141824623 -0.2438719298632871 0  -0.05122555178812083 -0.1375233976405547 0  0.01626801540249678 -0.04364609429407085 0  0.08283060322224878 0.05257894660339824 0  0.1587176599069029 0.1805967685686934 0  0.1658070536888263 0.2653599839446631 0  0.2327219895068859 0.2382678833886462 0  0.3140723941759744 0.4545301958314473 0  0.3605994513698398 0.5675110866774948 0  0.4099890660055006 0.7186384335494139 0  0.4497186053133385 0.8596096484025763 0  0.4867805892613133 1.00755837894041 0  0.5222619716416839 1.170223977603709 0  0.52717968320338 1.333117084023936 0  0.5429294097573834 1.427327480860986 0  0.5610365715080505 1.577494716650407 0  0.5688767043518795 1.725494106558511 0  0.5697118537195338 1.873843208463899 0  0.5631902979966413 2.020082037930057 0  0.549731586045048 2.161579867463818 0  0.5305454040273878 2.302210319704183 0  0.4969419826926673 2.427662584371263 0  0.4688702645961528 2.533629785295677 0  0.4308928628541892 2.651268797557915 0  0.3878154283082839 2.750652449040057 0  0.3399760605358947 2.840918198458859 0  0.2884383520275324 2.918892561974172 0  0.2334936943480466 2.984196833149416 0  0.176659849799949 3.040410828278586 0  0.1134624843148986 3.075756850910094 0  0.05602834986438884 3.098963328137061 0  -0.006050878764299802 3.118324392540371 0  -0.06823054222615269 3.120783236941829 0  -0.1309838097328872 3.111265492233084 0  -0.1934821902914036 3.086724031211724 0  -0.2546541236578899 3.049270066847029 0  -0.3144626923358473 2.99173964052974 0  -0.3674183629599711 2.933495121926647 0  -0.4270447293879871 2.855376371001384 0  -0.4760112688160632 2.753051628968568 0  -0.5199448720871849 2.639987461267967 0  -0.5570641885890468 2.513872836515603 0  -0.5867028627834264 2.374913650426822 0  -0.6080808439482854 2.232016022443572 0  -0.6198080480216052 2.06289724801235 0  -0.6161858704320052 1.946427523136739 0  -0.6332444344731925 1.789398280829886 0  -0.6202015187479437 1.612779865106629 0  -0.602395296346802 1.446401763331409 0  -0.5779875924274889 1.283308000891702 0  -0.5446885307659687 1.111614496534734 0  -0.5075750495077159 0.9700322685175616 0  -0.4520664432068368 0.7451438807595444 0  -0.3740710318740984 0.6838928778983835 0  -0.3553505073904966 0.5982712466270939 0  -0.2926978447059858 0.4694316323394238 0  -0.2353491853118916 0.3741633787144106 0  -0.174495539814091 0.2798060062380752 0  -0.1236686404176706 0.2329091402025669 0  -0.05563153156909162 0.1357051616976921 0  -0.06702968669781484 0.2935006426031193 0  -0.1277622516727221 0.1855726572276337 0  0.08728150991180539 -0.1373815655154634 0  0.1201456800828475 -0.1948542158506931 0  0.2245480356761824 -0.3119161727117268 0  0.2887422119959402 -0.3880540330612697 0  0.4437523272946347 -0.5294344836543184 0  0.4988879272418423 -0.5309806420074465 0  0.8382757344029497 -0.7837015386087737 0  0.8168425640414987 -0.5164422852935038 0  0.7908539254382909 -0.5408759627477535 0  1.159568687398633 -0.5336630717257251 0  1.159492260913805 -0.4554058850763003 0  1.256521121238002 -0.3561153350529793 0  1.139548085941018 -0.2568412693676653 0  1.131541607201295 -0.1828143514571894 0  0.727811134655822 -0.1819143203526031 0  0.754576894655729 -0.2144244506142821 0  0.7742946118794209 0.06647329718551676 0  0.4026835264525308 -0.2234522247649361 0  0.3494492449498294 -0.2291625210720239 0  0.1866968276838066 -0.3874252677175494 0  0.1248851186100508 -0.4713920543657772 0  0.02343842543732189 -0.5953170682215176 0  0.005036526589229817 -0.6460419237800981 0  -0.2149019718173195 -0.9614927346598049 0  -0.171276973069812 -1.118457416782487 0  -0.149090335446743 -0.9409656114215625 0  -0.2206138844199093 -1.048999408894658 0  -0.2709644318212168 -1.09591411851519 0  -0.334756109079952 -1.196284902334465 0  -0.3942873040540918 -1.296796793807961 0  -0.4602564681711303 -1.433264160608129 0  -0.4820528978869382 -1.520067986086241 0  -0.5692310258463608 -1.589248425541523 0  -0.6297181036179785 -1.850833447995921 0  -0.6689103748879041 -2.006104526105021 0  -0.7050775357560471 -2.199548573913621 0  -0.7323723699924358 -2.383054394932956 0  -0.7523986686066839 -2.571302873985076 0  -0.764925350968287 -2.766885744738204 0  -0.7576904254875616 -2.935012741986574 0  -0.7697493771289388 -3.104109088015085 0  -0.7481120082901442 -3.334116099171872 0  -0.7172491178730717 -3.502414701177563 0  -0.6769521803860676 -3.672543452731139 0  -0.6282996722438803 -3.82210791371121 0  -0.5716580704285765 -3.956082564055433 0  -0.5098618330234602 -4.079516068306253 0  -0.4305356728125965 -4.166927172984352 0  -0.3673237708904427 -4.225493262195058 0  -0.2940612897348027 -4.295158524309036 0  -0.2183144832954483 -4.339371131740451 0  -0.1401700039665464 -4.368579365348901 0  -0.06089354914194423 -4.378865184821252 0  0.01848993462050881 -4.371750190782956 0  0.09763573688491792 -4.345336251151731 0  0.1752503994763012 -4.298232829217183 0  0.2468009543001634 -4.235586529582283 0  0.3154507164136085 -4.161442067077254 0  0.3803048550004472 -4.07311049847095 0  0.4406189118779172 -3.972099148874841 0  0.4957417427642711 -3.857319595723848 0  0.5443630535959825 -3.735393149780858 0  0.5865637327282371 -3.589244672759146 0  0.6135997153339704 -3.478315510820655 0  0.6588238334122618 -3.33394265756413 0  0.6797292105972065 -3.166538491023 0  0.6950964419952903 -3.003642063291331 0  0.7028544107620445 -2.836647294890486 0  0.7025435462636705 -2.668837675181608 0  0.6946785043574338 -2.502121947335445 0  0.6760877083546085 -2.336081604139255 0  0.6605979842244858 -2.226185788057486 0  0.6542923811284547 -2.04583777670851 0  0.618079631449194 -1.868721458189829 0  0.5796002837870674 -1.706223035603491 0  0.5385200718124098 -1.551799095957539 0  0.4871404250597782 -1.386492267427794 0  0.4391048362468892 -1.262635481945661 0  0.3541052213232618 -1.027527806606577 0  0.2831328096314858 -1.04869738398823 0  0.2750240103225814 -0.956800877825274 0  0.1962673143396831 -0.8188048279187357 0  0.1271485732796658 -0.7138493336717218 0  0.05672361147042704 -0.6108587270493591 0  -0.02948589363133336 -0.4949398121090813 0  -0.09431511699682438 -0.4295236669523002 0  -0.2481459265457566 -0.2346958000477498 0  -0.2879175482767691 -0.3332863138918597 0  -0.3232844554358536 -0.2791123665447545 0  -0.4588095298871659 -0.2102723550571362 0  -0.5494054818535381 -0.185093265426698 0  -0.6456946866774325 -0.1732266300430229 0  -0.7185618225114392 -0.1916896414641637 0  -0.7715111148154317 -0.2256144519548113 0  -0.7708756002472756 -0.2886448667913958 0  -0.02142607003283517 1.741264339723624 0  -0.09580454088694634 -2.004286536643372 0  0.1521101651591841 -1.680464055815324 0  -0.02891938198245137 -2.836716410031696 0  -0.1384361710313814 1.045309617905087 0  -0.4926066733840073 -0.07765040798858586 0  0.190773580372232 0.705405815620739 0  0.6716200641852414 -0.4079231182007262 0  -0.4504527741394277 -0.7092647722062132 0  0.2371097233591273 -1.065078810190329 0  0.4539527132103058 -0.4804022794116233 0  0.2997324388658619 -0.9558153712005851 0  0.3048976269360553 0.1842457530510313 0  -0.03575684955154529 -2.647594997480251 0  -0.12572459553744 -1.173976614975652 0  -0.05424386406553705 1.586146092798027 0  -0.2508160903805124 0.1365304389142774 0  -0.4292411433955473 -0.4501910260804335 0  0.045156237738047 -2.413776238116786 0  0.0523916210800407 1.368406982376996 0  0.159130379885038 0.2872925987514358 0  -0.2609756916141999 -1.227004646734498 0  -0.3100039519295537 0.373662070098453 0  -0.2749487104815393 -1.177427081039254 0  -0.04964759765613801 0.2926465748087964 0  0.3223133327247285 0.0856508024699444 0  0.09504127443418425 -1.16585266201997 0  -0.5225574774216928 -0.4165256029089889 0  -0.6614193083026416 -0.3711058357336059 0  -0.1752882253581649 -1.592871682047929 0  -0.4132175591006155 -0.9042192187046263 0  -0.3309178476398057 -1.202434879961435 0  -0.3616456481633423 -0.7849969499586654 0  -0.2299486333790114 -1.627696966161111 0  -0.4446296066589095 -0.8106207807897625 0  -0.4797778304242934 -0.4331239552829956 0  0.4485894748395147 -0.08720886439798881 0  0.5068740157384177 -0.1143048829463037 0  0.5220662732452865 -0.4369594173154275 0  0.4166967999020721 -0.8317881323823964 0  0.4596733107874003 -0.7298931047054211 0  0.3446375317776584 -0.8262045419237072 0  0.8025160628528221 -0.5205366737627209 0  0.8369127283696107 -0.2610479038730771 0  0.4167223455796087 0.02157053717185448 0  0.02842633462109956 -1.997243191274476 0  0.1192044075295629 -1.829435879863387 0  -0.001897650555460095 -2.671545547829079 0  0.2032987127136536 -1.071245449143767 0  0.2006500515291172 -1.661029472002793 0  0.009148062532609025 -1.054706268619115 0  0.09754639345734661 0.2329258757058111 0  -0.1645620137953788 -1.891660013026184 0  -0.2073284735832616 -1.18802406168439 0  -0.1228672638864398 -1.932830278365091 0  0.2555864975497644 0.4035790569061421 0  0.3877702821981586 0.09698619111629261 0  -0.3450456641005035 -0.6478878502510785 0  -0.1097459440552939 -0.9762381334873664 0  -0.192754491449957 0.1898838682238401 0  -0.4153122916068177 -0.1036259670818773 0  -0.2035235810861645 -2.338344661895607 0  -0.1155806304022161 -1.741359703150873 0  -0.04454837350353769 0.8299405606608075 0  -0.1361939138551174 1.341351147269382 0  0.2008854445817312 -2.233679607644711 0  0.2099553569307916 -2.74776509678766 
[...]
<PointData  Vectors="f_44"> 
<DataArray  type="Float64"  Name="f_44"  NumberOfComponents="3" format="ascii">1.4151275539302172e-01 -1.2842649932750562e-02 0.0000000000000000e+00  1.7616729296710731e-01 -2.4815043842577439e-01 0.0000000000000000e+00  8.5565680692245003e-02 1.6149393109388208e-02 0.0000000000000000e+00  -1.0763927715304956e-01 2.7625458642147499e-01 0.0000000000000000e+00  -1.9260012448419264e-01 5.4428057216468720e-02 0.0000000000000000e+00  -2.2810252028957070e-01 -6.2391385418724965e-02 0.0000000000000000e+00  -1.8208611195818672e-01 -1.2200550277342109e-01 0.0000000000000000e+00  -8.1501058223510101e-02 -2.4335297953743160e-01 0.0000000000000000e+00  1.9278317284835023e-01 1.1030258770829238e-01 0.0000000000000000e+00  9.4047202214273068e-02 -7.9369082694214832e-02 0.0000000000000000e+00  7.4719869612634177e-03 -2.7287069058962365e-01 0.0000000000000000e+00  1.8553817902100544e-02 -2.0936483449492252e-01 0.0000000000000000e+00  7.1000306628036081e-02 -2.1716938545324913e-01 0.0000000000000000e+00  7.7615114151771164e-02 -2.0893047106764293e-01 0.0000000000000000e+00  6.8943666898273914e-02 -2.1069473372763758e-01 0.0000000000000000e+00  2.0067138168434709e-01 -1.6506226002487384e-01 0.0000000000000000e+00  6.4887824193213641e-04 1.3525799765468502e-01 0.0000000000000000e+00  5.8274896516801657e-02 -5.9367473603441905e-02 0.0000000000000000e+00  2.0078850349081040e-01 -1.8273285050892329e-01 0.0000000000000000e+00  1.5915624576973256e-01 -1.3961444523093822e-01 0.0000000000000000e+00  1.9013755374857733e-01 -1.2493601588895631e-01 0.0000000000000000e+00  1.9391346143978247e-01 -1.0764903791168640e-01 0.0000000000000000e+00  1.9814067563084664e-01 -1.1060055370106339e-01 0.0000000000000000e+00  2.1489207231880611e-01 -4.6603637360127202e-02 0.0000000000000000e+00  2.2138624070523868e-01 -2.4438807171890300e-02 0.0000000000000000e+00  2.1193278842861926e-01 -7.5452310505102413e-02 0.0000000000000000e+00  2.2083914707031646e-01 -3.5611094469942511e-02 0.0000000000000000e+00  2.2332818801818216e-01 -1.2696093052576353e-02 0.0000000000000000e+00  2.2369233875435254e-01 7.9790822266118545e-03 0.0000000000000000e+00  2.2083872532298202e-01 3.2793773235125466e-02 0.0000000000000000e+00  2.1998490882017996e-01 4.6611214265568267e-02 0.0000000000000000e+00  2.0431469920727580e-01 8.6924485783864539e-02 0.0000000000000000e+00  1.9170784481360703e-01 1.1691260991975937e-01 0.0000000000000000e+00  1.9145781853873367e-01 1.1553400901971758e-01 0.0000000000000000e+00  1.6856521391259638e-01 1.4709818219834642e-01 0.0000000000000000e+00  1.3930345441452741e-01 1.7539952209237381e-01 0.0000000000000000e+00  1.1015103415813149e-01 1.9547753568488746e-01 0.0000000000000000e+00  6.1196204161588733e-02 2.1392337222037899e-01 0.0000000000000000e+00  2.5594958554721402e-02 2.2633202259237098e-01 0.0000000000000000e+00  -5.6040772058807982e-02 2.1208244170723667e-01 0.0000000000000000e+00  -1.5170083226264156e-01 1.6980474151118288e-01 0.0000000000000000e+00  -1.6941824633548802e-01 1.4964972084120282e-01 0.0000000000000000e+00  -2.0542262337509390e-01 7.9091857078445724e-02 0.0000000000000000e+00  -2.2823115346757752e-01 -2.8403425001971589e-02 0.0000000000000000e+00  -1.9089634721976026e-01 -1.1201777404866785e-01 0.0000000000000000e+00  -1.3874580281216789e-01 -1.8181016268890210e-01 0.0000000000000000e+00  -4.9228360362589298e-02 -2.1588584217685014e-01 0.0000000000000000e+00  1.3816072903203776e-02 -2.2461885135390292e-01 0.0000000000000000e+00  3.1351480187307677e-02 -2.2402737149568963e-01 0.0000000000000000e+00  1.0392936517002663e-01 -1.9510302802905299e-01 0.0000000000000000e+00  1.5901491943433754e-01 -1.6063880322595336e-01 0.0000000000000000e+00  1.7573702502392025e-01 -1.3728742836781382e-01 0.0000000000000000e+00  1.9793002207445715e-01 -1.0518101973438876e-01 0.0000000000000000e+00  2.0942230390929525e-01 -7.7921801876851549e-02 0.0000000000000000e+00  2.1834422559495537e-01 -5.2948580793578684e-02 0.0000000000000000e+00  2.2373936150047036e-01 2.6539929286235682e-03 0.0000000000000000e+00  2.1997523644395475e-01 -2.9014488353091838e-02 0.0000000000000000e+00  2.1952573442293588e-01 -1.4414467868625469e-02 0.0000000000000000e+00  2.2105413204393509e-01 5.0485300540501689e-02 0.0000000000000000e+00  2.1554010349981825e-01 5.3673098834204687e-02 0.0000000000000000e+00  2.1389478020415376e-01 7.2933688225145746e-02 0.0000000000000000e+00  1.9260435301379916e-01 1.0192806657842914e-01 0.0000000000000000e+00  2.2692910344380779e-01 9.4131723471090431e-02 0.0000000000000000e+00  1.0080243695045824e-01 1.4844442570580724e-01 0.0000000000000000e+00  2.5324026868997093e-02 1.7055747665821316e-01 0.0000000000000000e+00  2.0764328955207526e-01 1.2230345839755950e-01 0.0000000000000000e+00  1.0233562559804792e-01 2.0032329787998879e-01 0.0000000000000000e+00  1.1176823195484638e-01 1.9821431013734150e-01 0.0000000000000000e+00  4.1383460579519873e-02 2.1075869558260987e-01 0.0000000000000000e+00  -3.2180401433257915e-03 2.3310587392094331e-01 0.0000000000000000e+00  1.8432746432209901e-01 1.5922393026560516e-01 0.0000000000000000e+00  1.9337298527931346e-01 -1.6299501102245342e-01 0.0000000000000000e+00  7.9945671550219324e-02 8.8796114045197508e-02 0.0000000000000000e+00  9.7176040911429465e-02 2.5366295313889453e-01 0.0000000000000000e+00  5.4438227253329328e-02 2.0449106509121742e-01 0.0000000000000000e+00  2.4198740180124807e-02 2.2180047842423056e-01 0.0000000000000000e+00  2.3398820700450022e-02 2.4648623974236222e-01 0.0000000000000000e+00  -8.8251408911159193e-02 1.4957334908896328e-01 0.0000000000000000e+00  -1.4508061565270469e-01 2.0385343326306365e-01 0.0000000000000000e+00  5.9926184714003232e-02 1.6723146896067911e-01 0.0000000000000000e+00  2.7878831235430179e-01 -6.2848530074020317e-02 0.0000000000000000e+00  -2.6259710595967944e-01 -5.2481954276304824e-02 0.0000000000000000e+00  -1.2527741951799437e-01 3.0198058535922882e-02 0.0000000000000000e+00  1.8078326544009168e-01 -2.2001543006133797e-01 0.0000000000000000e+00  -1.0116808577357816e-01 1.1494978812346037e-03 0.0000000000000000e+00  1.2674601085567974e-01 2.4974932101965619e-01 0.0000000000000000e+00  -1.3679844459272208e-01 -2.3826816190521374e-02 0.0000000000000000e+00  -2.4927795440134182e-01 3.9824912034793214e-02 0.0000000000000000e+00  2.8740078977181133e-01 7.2166870721333362e-02 0.0000000000000000e+00  6.0022139592745972e-02 -1.6713692850178399e-01 0.0000000000000000e+00  -1.2980055190249978e-01 -2.1579474727636777e-01 0.0000000000000000e+00  -7.5487689369570871e-02 -1.6798125881762038e-01 0.0000000000000000e+00  4.3825179862823790e-02 -2.3802266212838522e-01 0.0000000000000000e+00  4.4317598896887987e-02 -2.2225306600108938e-01 0.0000000000000000e+00  8.7372872701599255e-02 -1.8575786897261010e-01 0.0000000000000000e+00  8.3105686787931107e-02 -2.4806450911151537e-01 0.0000000000000000e+00  1.0240299324684375e-01 -9.7981225923845075e-02 0.0000000000000000e+00  2.3774722744851051e-01 1.0444626456247272e-01 0.0000000000000000e+00  1.7169760777248386e-01 -1.5977414188689507e-01 0.0000000000000000e+00  1.3886523561374712e-02 -2.2900902569210177e-01 0.0000000000000000e+00  4.2560270826989738e-02 -2.1067920349775324e-01 0.0000000000000000e+00  1.1500345359983978e-01 -1.9686850749721432e-01 0.0000000000000000e+00  1.0485622795672452e-01 -1.9752475247739729e-01 0.0000000000000000e+00  2.0519380381398464e-01 -1.2784483496204399e-01 0.0000000000000000e+00  1.3945006392291945e-02 -1.8399270367863579e-01 0.0000000000000000e+00  1.0772465762233828e-01 -1.4140414782804084e-01 0.0000000000000000e+00  2.2901215621339083e-01 -8.8974906358107425e-02 0.0000000000000000e+00  1.9443130168863859e-01 -9.8719696531490791e-02 0.0000000000000000e+00  2.1433677924658925e-01 -7.0925355722396208e-02 0.0000000000000000e+00  2.1565442808300644e-01 -5.5292603502545369e-02 0.0000000000000000e+00  2.2071009086399890e-01 -4.3996836629248436e-02 0.0000000000000000e+00  2.2269436363122735e-01 4.4986390040720314e-03 0.0000000000000000e+00  2.2206725267086791e-01 -1.0274336298521682e-02 0.0000000000000000e+00  2.2139782383177634e-01 -1.5079124982386436e-03 0.0000000000000000e+00  2.1564592761749379e-01 6.8019013102106854e-02 0.0000000000000000e+00  2.0446814624006890e-01 8.9263613693249561e-02 0.0000000000000000e+00  1.9314516555512670e-01 1.1403750479981793e-01 0.0000000000000000e+00  1.6591850944404726e-01 1.4831906936319603e-01 0.0000000000000000e+00  1.5441426096568522e-01 1.6725665862873784e-01 0.0000000000000000e+00  8.5344732775517407e-02 2.0084291533779972e-01 0.0000000000000000e+00  -1.5933705090425382e-02 2.2871577240709556e-01 0.0000000000000000e+00  -3.5915117841740026e-03 2.2431363651433264e-01 0.0000000000000000e+00  -5.0422065642309846e-02 2.1412211590001293e-01 0.0000000000000000e+00  -1.4755846436226586e-01 1.7592961433186152e-01 0.0000000000000000e+00  -1.9478854701629270e-01 1.0718907190152455e-01 0.0000000000000000e+00  -2.2691670200329878e-01 8.6683540507281869e-03 0.0000000000000000e+00  -2.0628223098454992e-01 -8.9821930463053645e-02 0.0000000000000000e+00  -1.4352185133391102e-01 -1.7386773884680276e-01 0.0000000000000000e+00  -6.2194886294450122e-02 -2.1545608306900921e-01 0.0000000000000000e+00  -4.1223692703890053e-03 -2.2474627716619744e-01 0.0000000000000000e+00  4.2673893520787827e-02 -2.1933567109171709e-01 0.0000000000000000e+00  8.8191223565380394e-02 -2.0635541719878109e-01 0.0000000000000000e+00  1.2491142099646627e-01 -1.8527302567690082e-01 0.0000000000000000e+00  1.5125021926837381e-01 -1.6562974015025908e-01 0.0000000000000000e+00  1.7644833482431768e-01 -1.3717224188808591e-01 0.0000000000000000e+00  1.9965143080893599e-01 -1.0191002322152329e-01 0.0000000000000000e+00  1.8538670838568458e-01 -1.2694346158366607e-01 0.0000000000000000e+00  1.9915975843985978e-01 -9.3245454363261426e-02 0.0000000000000000e+00  2.2251379392624829e-01 -4.0604969204287793e-02 0.0000000000000000e+00  2.2017709406367122e-01 -3.4461371344516024e-02 0.0000000000000000e+00  2.2377721666107170e-01 -8.8549444626126409e-03 0.0000000000000000e+00  2.2346018154811700e-01 1.0210915089635965e-02 0.0000000000000000e+00  2.2103954615379423e-01 3.3600374941293747e-02 0.0000000000000000e+00  2.1442970272266915e-01 6.6913523122709526e-02 0.0000000000000000e+00  2.2231549282453392e-01 2.2883911673115487e-02 0.0000000000000000e+00  2.1571066954142942e-01 4.5817473043934409e-02 0.0000000000000000e+00  2.0098302692284589e-01 1.0411970894762967e-01 0.0000000000000000e+00  1.9687106428916404e-01 1.0259838223587393e-01 0.0000000000000000e+00  1.9348636527756041e-01 1.1925234262011143e-01 0.0000000000000000e+00  1.6409284170678828e-01 1.3457402138909477e-01 0.0000000000000000e+00  2.0755779451804132e-01 1.7254986890720087e-01 0.0000000000000000e+00  5.6082168293699754e-02 6.9332950496863083e-02 0.0000000000000000e+00  -1.1738129859457512e-02 -1.0863746851432036e-01 0.0000000000000000e+00  2.0721105367179318e-01 1.5849034876305909e-01 0.0000000000000000e+00  7.6434886940959040e-02 2.0782811486541619e-01 0.0000000000000000e+00  8.8220488393928501e-02 2.0494440130095684e-01 0.0000000000000000e+00  7.9108770541996540e-02 2.1377302229724912e-01 0.0000000000000000e+00  3.2155537324631736e-02 2.0853621643646222e-01 0.0000000000000000e+00  1.9548153641709497e-02 2.7192099987856194e-01 0.0000000000000000e+00  9.2317114269307957e-02 7.8412671396230704e-02 0.0000000000000000e+00  1.8498529909069752e-01 -9.9772046372752596e-02 0.0000000000000000e+00  -6.5967531084936276e-02 2.4785015777535560e-01 0.0000000000000000e+00  -1.7142960860106801e-01 1.3888785564969217e-01 0.0000000000000000e+00  -2.1046622037986354e-01 9.4377756543510938e-02 0.0000000000000000e+00  -2.1261862426145547e-01 -7.9576450374624613e-03 0.0000000000000000e+00  -1.8406258120231547e-01 -1.9458075307255898e-01 0.0000000000000000e+00  7.6842036402266112e-02 -1.2740386823585470e-01 0.0000000000000000e+00  2.6760825331664273e-01 1.0867480513712889e-01 0.0000000000000000e+00  -1.6275315917833436e-01 -1.5250014267484230e-01 0.0000000000000000e+00  -1.2217057134635122e-01 1.8931168379821078e-01 0.0000000000000000e+00  -1.4545779846118195e-01 -1.7031362244178344e-01 0.0000000000000000e+00  -2.1990274319993697e-01 -4.0901008571764264e-02 0.0000000000000000e+00  -1.4657270746392367e-01 -1.7073757771742062e-01 0.0000000000000000e+00  -5.7337515036313416e-02 2.2107837508233044e-01 0.0000000000000000e+00  -1.4219600454553466e-01 1.7270172830644356e-01 0.0000000000000000e+00  2.0424083262445131e-01 1.2389679842544372e-01 0.0000000000000000e+00  -1.9458570099975592e-01 -1.1673449210134634e-01 0.0000000000000000e+00  -1.9753050654431939e-01 -1.0598957271871236e-01 0.0000000000000000e+00  2.0670957872627357e-01 1.2905481891309376e-01 0.0000000000000000e+00  -2.2366557495049383e-01 -1.7597500496234049e-02 0.0000000000000000e+00  -1.9949546102464424e-01 1.0401476944126328e-01 0.0000000000000000e+00  -2.3167630910523840e-01 2.5184735231603392e-02 0.0000000000000000e+00  -2.0573867131186324e-01 -9.1840921392194019e-02 0.0000000000000000e+00  -5.4086012305492537e-02 -2.1677743961966905e-01 0.0000000000000000e+00  -8.1303798269489122e-02 2.1309860977484751e-01 0.0000000000000000e+00  2.0293720703662757e-01 -1.2538251366136866e-01 0.0000000000000000e+00  -1.2526369257254258e-01 -1.7870790692587793e-01 0.0000000000000000e+00  -1.8707226538557761e-01 1.1316620013695017e-01 0.0000000000000000e+00  -2.0485989378310138e-01 9.0537927644322044e-02 0.0000000000000000e+00  -2.0914629957644307e-01 8.2739850377611016e-02 0.0000000000000000e+00  -2.2515727998675331e-01 -1.1983397091420267e-02 0.0000000000000000e+00  -2.1731383827133774e-01 -5.8365179666246172e-02 0.0000000000000000e+00  -1.8101736166381246e-01 1.3272474463051334e-01 0.0000000000000000e+00  -2.2259516213031924e-01 -3.4227693111972463e-02 0.0000000000000000e+00  -2.0499136731214651e-01 -8.9230291868318795e-02 0.0000000000000000e+00  1.8821758522658477e-01 -1.2910556171725382e-01 0.0000000000000000e+00  2.0276741697165215e-01 -1.0673945454708651e-01 0.0000000000000000e+00  -1.7588770132398965e-01 1.4007999613099825e-01 0.0000000000000000e+00  -2.0190715749963895e-01 -1.0023633817853192e-01 0.0000000000000000e+00  -2.2538586994444199e-01 -3.3375202089796848e-03 0.0000000000000000e+00  -8.5995283068166811e-02 -2.1185873928439988e-01 0.0000000000000000e+00  -2.0092778848371218e-01 9.7935372846581506e-02 0.0000000000000000e+00  -1.8234699939047178e-01 -1.3107836334244513e-01 0.0000000000000000e+00  1.9411108760174697e-01 -1.2789281694129881e-01 0.0000000000000000e+00  -1.6680965536235756e-01 -1.5745178297221757e-01 0.0000000000000000e+00  -1.4946615635215427e-01 -1.7685355246358819e-01 0.0000000000000000e+00  2.1510903366826095e-01 8.8880014321325335e-02 0.0000000000000000e+00  -2.1109464189973143e-01 7.2811658315259570e-02 0.0000000000000000e+00  -1.9569543938745440e-01 1.0688243303816949e-01 0.0000000000000000e+00  -2.2554590997418955e-01 -2.9326114649601449e-02 0.0000000000000000e+00  -1.3754505698437097e-01 2.0034090685320682e-01 0.0000000000000000e+00  2.1884437620966901e-01 7.7462660747398326e-02 0.0000000000000000e+00  -2.2485424898931430e-01 3.3996361277888847e-02 0.0000000000000000e+00  -2.1571856203523451e-01 -5.9351831876499679e-02 0.0000000000000000e+00  -1.8825391852075651e-01 -1.2093849029661338e-01 0.0000000000000000e+00  -2.0206306671762383e-01 -8.5833659514628957e-02 0.0000000000000000e+00  -2.1185376913375303e-01 -7.1610973150364104e-02 0.0000000000000000e+00  -1.7555251937731026e-01 -1.3866730444054187e-01 0.0000000000000000e+00  -1.3236161883922762e-01 -1.8108434046892030e-01 0.0000000000000000e+00  -1.9540368604612848e-02 2.2577634961325332e-01 0.0000000000000000e+00  -1.7906421338865897e-01 1.3471840371606261e-01 0.0000000000000000e+00  -2.1320351720583255e-01 -7.4148895540735130e-02 0.0000000000000000e+00  -1.9486978073074782e-01 1.1111382499377907e-01 0.0000000000000000e+00  -1.6714427285285713e-01 1.4970187755189387e-01 0.0000000000000000e+00  -2.2652433970871916e-01 -2.2470297151988807e-02 0.0000000000000000e+00  -1.7240471872033084e-01 1.5093133933632655e-01 0.0000000000000000e+00  -4.9064253655619977e-02 2.2167307600442274e-01 0.0000000000000000e+00  -1.0214488811392373e-01 -2.0554783011719596e-01 0.0000000000000000e+00  -2.1495129701152335e-01 8.7533764252312421e-02 0.0000000000000000e+00  1.0937071226642200e-01 -1.9766830269814539e-01 0.0000000000000000e+00  -2.7002600617096036e-02 -2.2298779149734563e-01 0.0000000000000000e+00  -3.8745140259924933e-02 2.2103155456122123e-01 0.0000000000000000e+00  6.7061617198765661e-02 2.1645516042653012e-01 0.0000000000000000e+00  1.1337892838525720e-01 1.9522731024595938e-01 0.0000000000000000e+00  2.2454833105424796e-01 3.3859925377700086e-02 0.0000000000000000e+00  2.1162053507456460e-01 -8.4261371794013967e-02 0.0000000000000000e+00  8.7734589857259862e-02 -2.0832338230138783e-01 0.0000000000000000e+00  -2.2281416216297575e-01 -2.3384356314189541e-02 0.0000000000000000e+00  -1.8786578890991262e-01 1.2212167035483167e-01 0.0000000000000000e+00  -1.8844419163802098e-01 -1.2097691351453554e-01 0.0000000000000000e+00  -2.2287094958831613e-01 2.0940195948427068e-02 0.0000000000000000e+00  -6.6524805747004395e-02 2.2009661201859193e-01 0.0000000000000000e+00  1.5695121854952665e-01 1.7029025506019330e-01 0.0000000000000000e+00  -1.9944861134914083e-01 1.0984111416608795e-01 0.0000000000000000e+00  -2.2200603012627032e-01 -3.9850996252262412e-02 0.0000000000000000e+00  -1.8777249266827797e-01 -1.2152274089758583e-01 0.0000000000000000e+00  -1.2378456837884241e-01 1.9590119921841984e-01 0.0000000000000000e+00  -2.2197451420012426e-01 -4.2176154549896337e-02 0.0000000000000000e+00  -1.4358328405656989e-01 1.7499277454966750e-01 0.0000000000000000e+00  -2.0970382948070598e-01 -1.3141267728980577e-01 0.0000000000000000e+00  1.8909686542872350e-01 -1.3907198148895925e-01 0.0000000000000000e+00  -7.2145425760843540e-02 -2.1238376908238346e-01 0.0000000000000000e+00  -2.7789270655011907e-02 2.2242435359286752e-01 0.0000000000000000e+00  -1.7081959653461537e-01 -1.4488751267241529e-01 0.0000000000000000e+00  -1.0118896239523711e-01 2.0481891829276597e-01 0.0000000000000000e+00  -2.0163708387117579e-01 -1.0034503748608313e-01 0.0000000000000000e+00  -7.2288547807908304e-02 2.1336001455685197e-01 0.0000000000000000e+00  -2.0959439437132082e-01 -8.1268399125634480e-02 0.0000000000000000e+00  -9.8839499104780695e-02 -2.0230460251378238e-01 0.0000000000000000e+00  -2.1980979961534819e-01 4.2414565617483017e-02 0.0000000000000000e+00  -2.2180116464181648e-01 -3.9357132898125265e-02 0.0000000000000000e+00  -1.7420000009308537e-01 1.4019402666412487e-01 0.0000000000000000e+00  -2.0862792505539501e-01 8.1035741442178427e-02 0.0000000000000000e+00  -2.0959009144120555e-01 -5.7229557415829184e-02 0.0000000000000000e+00  1.6435924710971073e-01 -1.6247286887844989e-01 0.0000000000000000e+00  -2.0475486423439354e-01 -9.1362547926695417e-02 0.0000000000000000e+00  6.0825034224600102e-02 -2.1770915967041832e-01 0.0000000000000000e+00  -1.6625968449547462e-01 -1.5078250029503157e-01 0.0000000000000000e+00  -1.7242405222355722e-01 1.4379182345064775e-01 0.0000000000000000e+00  9.9845804753436906e-02 2.0596627154386368e-01 0.0000000000000000e+00  -2.2236749097346939e-01 -5.6111151927540487e-02 0.0000000000000000e+00  -2.1524904587864055e-01 -6.4212847312595342e-02 0.0000000000000000e+00  -1.1427857321218335e-01 -1.9009612213495519e-01 0.0000000000000000e+00  -7.7887803000612071e-02 2.1103044840084489e-01 0.0000000000000000e+00  2.2874365836060720e-01 1.3799279569640216e-02 0.0000000000000000e+00  -1.2833424095344159e-01 -1.8379780833522241e-01 0.0000000000000000e+00  2.2604902705281207e-01 4.5497451778685839e-02 0.0000000000000000e+00  -4.0049820675635950e-02 -2.2174559337405855e-01 0.0000000000000000e+00  -1.5570080406830708e-01 1.6015009756829013e-01 0.0000000000000000e+00  1.4803656635543080e-02 -2.3223172689785529e-01 0.0000000000000000e+00  -1.8447966129094