<?xml version="1.0"?>
<VTKFile type="UnstructuredGrid"  version="0.1"  >
<UnstructuredGrid>
<Piece  NumberOfPoints="11902" NumberOfCells="23402">
<Points>
<DataArray  type="Float64"  NumberOfComponents="3"  format="ascii">-5 -5 0  5 -5 0  5 5 0  -5 5 0  1.600508247446407 -0.00021013815704066 0  -4.9 -5 0  -4.8 -5 0  -4.7 -5 0  -4.6 -5 0  -4.5 -5 0  -4.4 -5 0  -4.3 -5 0  -4.2 -5 0  -4.1 -5 0  -4 -5 0  -3.9 -5 0  -3.8 -5 0  -3.7 -5 0  -3.6 -5 0  -3.5 -5 0  -3.4 -5 0  -3.3 -5 0  -3.2 -5 0  -3.1 -5 0  -3 -5 0  -2.9 -5 0  -2.8 -5 0  -2.7 -5 0  -2.6 -5 0  -2.5 -5 0  -2.4 -5 0  -2.3 -5 0  -2.2 -5 0  -2.1 -5 0  -2 -5 0  -1.9 -5 0  -1.8 -5 0  -1.7 -5 0  -1.6 -5 0  -1.5 -5 0  -1.4 -5 0  -1.3 -5 0  -1.2 -5 0  -1.1 -5 0  -1 -5 0  -0.9000000000000004 -5 0  -0.7999999999999998 -5 0  -0.7000000000000002 -5 0  -0.5999999999999996 -5 0  -0.5 -5 0  -0.4000000000000004 -5 0  -0.2999999999999998 -5 0  -0.2000000000000002 -5 0  -0.09999999999999964 -5 0  0 -5 0  0.09999999999999964 -5 0  0.2000000000000002 -5 0  0.2999999999999998 -5 0  0.4000000000000004 -5 0  0.5 -5 0  0.5999999999999996 -5 0  0.7000000000000002 -5 0  0.7999999999999998 -5 0  0.9000000000000004 -5 0  1 -5 0  1.1 -5 0  1.2 -5 0  1.3 -5 0  1.4 -5 0  1.5 -5 0  1.6 -5 0  1.7 -5 0  1.8 -5 0  1.9 -5 0  2 -5 0  2.1 -5 0  2.2 -5 0  2.3 -5 0  2.4 -5 0  2.5 -5 0  2.6 -5 0  2.7 -5 0  2.8 -5 0  2.9 -5 0  3 -5 0  3.1 -5 0  3.199999999999999 -5 0  3.300000000000001 -5 0  3.4 -5 0  3.5 -5 0  3.6 -5 0  3.699999999999999 -5 0  3.800000000000001 -5 0  3.9 -5 0  4 -5 0  4.1 -5 0  4.199999999999999 -5 0  4.300000000000001 -5 0  4.4 -5 0  4.5 -5 0  4.6 -5 0  4.699999999999999 -5 0  4.800000000000001 -5 0  4.9 -5 0  5 -4.9 0  5 -4.8 0  5 -4.7 0  5 -4.6 0  5 -4.5 0  5 -4.4 0  5 -4.3 0  5 -4.2 0  5 -4.1 0  5 -4 0  5 -3.9 0  5 -3.8 0  5 -3.7 0  5 -3.6 0  5 -3.5 0  5 -3.4 0  5 -3.3 0  5 -3.2 0  5 -3.1 0  5 -3 0  5 -2.9 0  5 -2.8 0  5 -2.7 0  5 -2.6 0  5 -2.5 0  5 -2.4 0  5 -2.3 0  5 -2.2 0  5 -2.1 0  5 -2 0  5 -1.9 0  5 -1.8 0  5 -1.7 0  5 -1.6 0  5 -1.5 0  5 -1.4 0  5 -1.3 0  5 -1.2 0  5 -1.1 0  5 -1 0  5 -0.9000000000000004 0  5 -0.7999999999999998 0  5 -0.7000000000000002 0  5 -0.5999999999999996 0  5 -0.5 0  5 -0.4000000000000004 0  5 -0.2999999999999998 0  5 -0.2000000000000002 0  5 -0.09999999999999964 0  5 0 0  5 0.09999999999999964 0  5 0.2000000000000002 0  5 0.2999999999999998 0  5 0.4000000000000004 0  5 0.5 0  5 0.5999999999999996 0  5 0.7000000000000002 0  5 0.7999999999999998 0  5 0.9000000000000004 0  5 1 0  5 1.1 0  5 1.2 0  5 1.3 0  5 1.4 0  5 1.5 0  5 1.6 0  5 1.7 0  5 1.8 0  5 1.9 0  5 2 0  5 2.1 0  5 2.2 0  5 2.3 0  5 2.4 0  5 2.5 0  5 2.6 0  5 2.7 0  5 2.8 0  5 2.9 0  5 3 0  5 3.1 0  5 3.199999999999999 0  5 3.300000000000001 0  5 3.4 0  5 3.5 0  5 3.6 0  5 3.699999999999999 0  5 3.800000000000001 0  5 3.9 0  5 4 0  5 4.1 0  5 4.199999999999999 0  5 4.300000000000001 0  5 4.4 0  5 4.5 0  5 4.6 0  5 4.699999999999999 0  5 4.800000000000001 0  5 4.9 0  4.9 5 0  4.8 5 0  4.7 5 0  4.6 5 0  4.5 5 0  4.4 5 0  4.3 5 0  4.2 5 0  4.1 5 0  4 5 0  3.9 5 0  3.8 5 0  3.7 5 0  3.6 5 0  3.5 5 0  3.4 5 0  3.3 5 0  3.2 5 0  3.1 5 0  3 5 0  2.9 5 0  2.8 5 0  2.7 5 0  2.6 5 0  2.5 5 0  2.4 5 0  2.3 5 0  2.2 5 0  2.1 5 0  2 5 0  1.9 5 0  1.8 5 0  1.7 5 0  1.6 5 0  1.5 5 0  1.4 5 0  1.3 5 0  1.2 5 0  1.1 5 0  1 5 0  0.9000000000000004 5 0  0.7999999999999998 5 0  0.7000000000000002 5 0  0.5999999999999996 5 0  0.5 5 0  0.4000000000000004 5 0  0.2999999999999998 5 0  0.2000000000000002 5 0  0.09999999999999964 5 0  0 5 0  -0.09999999999999964 5 0  -0.2000000000000002 5 0  -0.2999999999999998 5 0  -0.4000000000000004 5 0  -0.5 5 0  -0.5999999999999996 5 0  -0.7000000000000002 5 0  -0.7999999999999998 5 0  -0.9000000000000004 5 0  -1 5 0  -1.1 5 0  -1.2 5 0  -1.3 5 0  -1.4 5 0  -1.5 5 0  -1.6 5 0  -1.7 5 0  -1.8 5 0  -1.9 5 0  -2 5 0  -2.1 5 0  -2.2 5 0  -2.3 5 0  -2.4 5 0  -2.5 5 0  -2.6 5 0  -2.7 5 0  -2.8 5 0  -2.9 5 0  -3 5 0  -3.1 5 0  -3.199999999999999 5 0  -3.300000000000001 5 0  -3.4 5 0  -3.5 5 0  -3.6 5 0  -3.699999999999999 5 0  -3.800000000000001 5 0  -3.9 5 0  -4 5 0  -4.1 5 0  -4.199999999999999 5 0  -4.300000000000001 5 0  -4.4 5 0  -4.5 5 0  -4.6 5 0  -4.699999999999999 5 0  -4.800000000000001 5 0  -4.9 5 0  -5 4.9 0  -5 4.8 0  -5 4.7 0  -5 4.6 0  -5 4.5 0  -5 4.4 0  -5 4.3 0  -5 4.2 0  -5 4.1 0  -5 4 0  -5 3.9 0  -5 3.8 0  -5 3.7 0  -5 3.6 0  -5 3.5 0  -5 3.4 0  -5 3.3 0  -5 3.2 0  -5 3.1 0  -5 3 0  -5 2.9 0  -5 2.8 0  -5 2.7 0  -5 2.6 0  -5 2.5 0  -5 2.4 0  -5 2.3 0  -5 2.2 0  -5 2.1 0  -5 2 0  -5 1.9 0  -5 1.8 0  -5 1.7 0  -5 1.6 0  -5 1.5 0  -5 1.4 0  -5 1.3 0  -5 1.2 0  -5 1.1 0  -5 1 0  -5 0.9000000000000004 0  -5 0.7999999999999998 0  -5 0.7000000000000002 0  -5 0.5999999999999996 0  -5 0.5 0  -5 0.4000000000000004 0  -5 0.2999999999999998 0  -5 0.2000000000000002 0  -5 0.09999999999999964 0  -5 0 0  -5 -0.09999999999999964 0  -5 -0.2000000000000002 0  -5 -0.2999999999999998 0  -5 -0.4000000000000004 0  -5 -0.5 0  -5 -0.5999999999999996 0  -5 -0.7000000000000002 0  -5 -0.7999999999999998 0  -5 -0.9000000000000004 0  -5 -1 0  -5 -1.1 0  -5 -1.2 0  -5 -1.3 0  -5 -1.4 0  -5 -1.5 0  -5 -1.6 0  -5 -1.7 0  -5 -1.8 0  -5 -1.9 0  -5 -2 0  -5 -2.1 0  -5 -2.2 0  -5 -2.3 0  -5 -2.4 0  -5 -2.5 0  -5 -2.6 0  -5 -2.7 0  -5 -2.8 0  -5 -2.9 0  -5 -3 0  -5 -3.1 0  -5 -3.199999999999999 0  -5 -3.300000000000001 0  -5 -3.4 0  -5 -3.5 0  -5 -3.6 0  -5 -3.699999999999999 0  -5 -3.800000000000001 0  -5 -3.9 0  -5 -4 0  -5 -4.1 0  -5 -4.199999999999999 0  -5 -4.300000000000001 0  -5 -4.4 0  -5 -4.5 0  -5 -4.6 0  -5 -4.699999999999999 0  -5 -4.800000000000001 0  -5 -4.9 0  1.59262498309371 0.1519305742263068 0  1.569010676573617 0.302655960557111 0  1.529932533203801 0.4505511191379807 0  1.475672333060843 0.5942055996233774 0  1.406759702236369 0.7322230254597779 0  1.323865259140385 0.8632525339573219 0  1.227836244165312 0.9860083994539646 0  1.119581696127126 1.099243509414665 0  1.00010321074291 1.201724658697503 0  0.870579765944182 1.292342206302319 0  0.7323438268346995 1.370174530282422 0  0.58674115700106 1.434350645640205 0  0.4352191886017431 1.484106323967334 0  0.279328980188101 1.518974028628393 0  0.1206098637959849 1.538452531317774 0  -0.03931528162600829 1.542375115717201 0  -0.1988403939121229 1.53068727114161 0  -0.3563381007685158 1.503448112022902 0  -0.510232080718783 1.461083654117568 0  -0.6589845464958816 1.404066041801941 0  -0.8010741828551042 1.332969068984524 0  -0.935099640732147 1.248620777750841 0  -1.059730866596859 1.1519325105562 0  -1.173719325273213 1.043925587711389 0  -1.275991204207179 0.9257848355845698 0  -1.365551556878148 0.7987197200098601 0  -1.441482404320245 0.663992907385159 0  -1.503135494454043 0.5229827779653164 0  -1.549909380815796 0.3770395682545299 0  -1.581301185130493 0.2275451237476169 0  -1.59705811428849 0.07592718017332251 0  -1.597059082928475 -0.07639737794993282 0  -1.581285870726769 -0.2280162334178623 0  -1.549795706546107 -0.3774746316641362 0  -1.503110259213732 -0.5234388716920435 0  -1.441474260034161 -0.6644540799401113 0  -1.365516535862372 -0.7991555622142561 0  -1.275946608754926 -0.9262029504732761 0  -1.173679898807466 -1.044339100328485 0  -1.05969598653337 -1.15234292841798 0  -0.9350782233122721 -1.249045652428702 0  -0.8010066037758377 -1.333325125053485 0  -0.6589382595534103 -1.404445810066963 0  -0.5101968945828803 -1.461470284197549 0  -0.3563212885603344 -1.503830716607684 0  -0.1988354572465174 -1.531025953161168 0  -0.03932648543535865 -1.542665552618287 0  0.120578128738228 -1.538771465188132 0  0.2792849718499842 -1.519322649976887 0  0.4351706393598138 -1.484489889994276 0  0.5866824968571395 -1.434740415178124 0  0.7322953161234731 -1.370600231588236 0  0.8705312194347632 -1.29276646173236 0  1.000015403513861 -1.202105179640562 0  1.119496002464766 -1.09963337474857 0  1.227785066098007 -0.9864302518244743 0  1.323844495589359 -0.863686046744115 0  1.406692715263532 -0.7326307628425822 0  1.475545189682666 -0.5945925827303338 0  1.529841128088034 -0.4509565569911859 0  1.568980055749215 -0.303072950329648 0  1.59258962685172 -0.1523474591360285 0  -2.449121186988228 4.918690214427534 0  -2.44903974580637 -4.911117419318561 0  4.910770103007077 2.448291690574045 0  4.918859560135406 -2.449718248238572 0  2.446867335004312 -4.896457114719198 0  2.441287289266727 4.900211050937229 0  -4.910785964584216 -2.448311296035282 0  -4.910794895566383 2.448315296009636 0  -1.749237639077238 4.912121226133154 0  -1.744988479844676 -4.915507101453211 0  4.921091713966598 1.744465719677677 0  4.909683026454633 -1.74828773689588 0  -4.909965853958195 -1.748011583645708 0  -4.910795196433294 1.747748452686605 0  1.746556635313171 4.906064347137926 0  1.748052980099364 -4.89434078025976 0  -1.1494783529836 4.91039873548317 0  -1.130265514499088 -4.918178991545167 0  -4.909862727113693 -1.148274673073458 0  -4.909692866707642 1.148067841868787 0  1.144427596080491 -4.914421031533903 0  1.149481781699658 4.910391413158857 0  4.910021516771652 1.146551034046112 0  4.920765685510203 -1.152296909930129 0  -0.5470263585781974 -4.911902695176901 0  -0.5467688539037262 4.920426818278932 0  -4.90873505315418 -0.5489042581926522 0  -4.908764865121364 0.5474499016075182 0  4.908078768021571 -0.54922610982441 0  4.919635148978185 0.5459523691888739 0  0.5428413288036152 -4.89906423570449 0  0.5515088232685528 4.917313855141207 0  -4.912091188587438 -3.04855896098394 0  4.918655945436685 3.046560482625126 0  4.911602608824121 -3.048541869755024 0  -4.912946980498351 3.045649906933831 0  3.055675701536973 -4.917680434123676 0  -3.049033230567661 -4.911628386051989 0  3.052597166050468 4.913706937580416 0  -3.048485871800126 4.912525272168833 0  -4.907894136673223 -0.0499320288153576 0  0.04514430402774412 -4.913928392012524 0  0.04959402073183321 4.92081937539454 0  4.914902332358797 -0.05131057995575417 0  3.545848008292239 -4.91918897109961 0  -3.549156405573816 4.912101848521153 0  -3.5491530979038 -4.912102317890433 0  4.91
[...]
<PointData  Scalars="f_26"> 
<DataArray  type="Float64"  Name="f_26"  format="ascii">0.0000000000000000e+00  0.0000000000000000e+00  0.0000000000000000e+00  0.0000000000000000e+00  5.5822803571374789e+02  0.0000000000000000e+00  0.0000000000000000e+00  0.0000000000000000e+00  0.0000000000000000e+00  0.0000000000000000e+00  0.0000000000000000e+00  0.0000000000000000e+00  0.0000000000000000e+00  0.0000000000000000e+00  0.0000000000000000e+00  0.0000000000000000e+00  0.0000000000000000e+00  0.0000000000000000e+00  0.0000000000000000e+00  0.0000000000000000e+00  0.0000000000000000e+00  0.0000000000000000e+00  0.0000000000000000e+00  0.0000000000000000e+00  0.0000000000000000e+00  0.0000000000000000e+00  0.0000000000000000e+00  0.0000000000000000e+00  0.0000000000000000e+00  0.0000000000000000e+00  0.0000000000000000e+00  0.0000000000000000e+00  0.0000000000000000e+00  0.0000000000000000e+00  0.0000000000000000e+00  0.0000000000000000e+00  0.0000000000000000e+00  0.0000000000000000e+00  0.0000000000000000e+00  0.0000000000000000e+00  0.0000000000000000e+00  0.0000000000000000e+00  0.0000000000000000e+00  0.0000000000000000e+00  0.0000000000000000e+00  0.0000000000000000e+00  0.0000000000000000e+00  0.0000000000000000e+00  0.0000000000000000e+00  0.0000000000000000e+00  0.0000000000000000e+00  0.0000000000000000e+00  0.0000000000000000e+00  0.0000000000000000e+00  0.0000000000000000e+00  0.0000000000000000e+00  0.0000000000000000e+00  0.0000000000000000e+00  0.0000000000000000e+00  0.0000000000000000e+00  0.0000000000000000e+00  0.0000000000000000e+00  0.0000000000000000e+00  0.0000000000000000e+00  0.0000000000000000e+00  0.0000000000000000e+00  0.0000000000000000e+00  0.0000000000000000e+00  0.0000000000000000e+00  0.0000000000000000e+00  0.0000000000000000e+00  0.0000000000000000e+00  0.0000000000000000e+00  0.0000000000000000e+00  0.0000000000000000e+00  0.0000000000000000e+00  0.0000000000000000e+00  0.0000000000000000e+00  0.0000000000000000e+00  0.0000000000000000e+00  0.0000000000000000e+00  0.0000000000000000e+00  0.0000000000000000e+00  0.0000000000000000e+00  0.0000000000000000e+00  0.0000000000000000e+00  0.0000000000000000e+00  0.0000000000000000e+00  0.0000000000000000e+00  0.0000000000000000e+00  0.0000000000000000e+00  0.0000000000000000e+00  0.0000000000000000e+00  0.0000000000000000e+00  0.0000000000000000e+00  0.0000000000000000e+00  0.0000000000000000e+00  0.0000000000000000e+00  0.0000000000000000e+00  0.0000000000000000e+00  0.0000000000000000e+00  0.0000000000000000e+00  0.0000000000000000e+00  0.0000000000000000e+00  0.0000000000000000e+00  0.0000000000000000e+00  0.0000000000000000e+00  0.0000000000000000e+00  0.0000000000000000e+00  0.0000000000000000e+00  0.0000000000000000e+00  0.0000000000000000e+00  0.0000000000000000e+00  0.0000000000000000e+00  0.0000000000000000e+00  0.0000000000000000e+00  0.0000000000000000e+00  0.0000000000000000e+00  0.0000000000000000e+00  0.0000000000000000e+00  0.0000000000000000e+00  0.0000000000000000e+00  0.0000000000000000e+00  0.0000000000000000e+00  0.0000000000000000e+00  0.0000000000000000e+00  0.0000000000000000e+00  0.0000000000000000e+00  0.0000000000000000e+00  0.0000000000000000e+00  0.0000000000000000e+00  0.0000000000000000e+00  0.0000000000000000e+00  0.0000000000000000e+00  0.0000000000000000e+00  0.0000000000000000e+00  0.0000000000000000e+00  0.0000000000000000e+00  0.0000000000000000e+00  0.0000000000000000e+00  0.0000000000000000e+00  0.0000000000000000e+00  0.0000000000000000e+00  0.0000000000000000e+00  0.0000000000000000e+00  0.0000000000000000e+00  0.0000000000000000e+00  0.0000000000000000e+00  0.0000000000000000e+00  0.0000000000000000e+00  0.0000000000000000e+00  0.0000000000000000e+00  0.0000000000000000e+00  0.0000000000000000e+00  0.0000000000000000e+00  0.0000000000000000e+00  0.0000000000000000e+00  0.0000000000000000e+00  0.0000000000000000e+00  0.0000000000000000e+00  0.0000000000000000e+00  0.0000000000000000e+00  0.0000000000000000e+00  0.0000000000000000e+00  0.0000000000000000e+00  0.0000000000000000e+00  0.0000000000000000e+00  0.0000000000000000e+00  0.0000000000000000e+00  0.0000000000000000e+00  0.0000000000000000e+00  0.0000000000000000e+00  0.0000000000000000e+00  0.0000000000000000e+00  0.0000000000000000e+00  0.0000000000000000e+00  0.0000000000000000e+00  0.0000000000000000e+00  0.0000000000000000e+00  0.0000000000000000e+00  0.0000000000000000e+00  0.0000000000000000e+00  0.0000000000000000e+00  0.0000000000000000e+00  0.0000000000000000e+00  0.0000000000000000e+00  0.0000000000000000e+00  0.0000000000000000e+00  0.0000000000000000e+00  0.0000000000000000e+00  0.0000000000000000e+00  0.0000000000000000e+00  0.0000000000000000e+00  0.0000000000000000e+00  0.0000000000000000e+00  0.0000000000000000e+00  0.0000000000000000e+00  0.0000000000000000e+00  0.0000000000000000e+00  0.0000000000000000e+00  0.0000000000000000e+00  0.0000000000000000e+00  0.0000000000000000e+00  0.0000000000000000e+00  0.0000000000000000e+00  0.0000000000000000e+00  0.0000000000000000e+00  0.0000000000000000e+00  0.0000000000000000e+00  0.0000000000000000e+00  0.0000000000000000e+00  0.0000000000000000e+00  0.0000000000000000e+00  0.0000000000000000e+00  0.0000000000000000e+00  0.0000000000000000e+00  0.0000000000000000e+00  0.0000000000000000e+00  0.0000000000000000e+00  0.0000000000000000e+00  0.0000000000000000e+00  0.0000000000000000e+00  0.0000000000000000e+00  0.0000000000000000e+00  0.0000000000000000e+00  0.0000000000000000e+00  0.0000000000000000e+00  0.0000000000000000e+00  0.0000000000000000e+00  0.0000000000000000e+00  0.0000000000000000e+00  0.0000000000000000e+00  0.0000000000000000e+00  0.0000000000000000e+00  0.0000000000000000e+00  0.0000000000000000e+00  0.0000000000000000e+00  0.0000000000000000e+00  0.0000000000000000e+00  0.0000000000000000e+00  0.0000000000000000e+00  0.0000000000000000e+00  0.0000000000000000e+00  0.0000000000000000e+00  0.0000000000000000e+00  0.0000000000000000e+00  0.0000000000000000e+00  0.0000000000000000e+00  0.0000000000000000e+00  0.0000000000000000e+00  0.0000000000000000e+00  0.0000000000000000e+00  0.0000000000000000e+00  0.0000000000000000e+00  0.0000000000000000e+00  0.0000000000000000e+00  0.0000000000000000e+00  0.0000000000000000e+00  0.0000000000000000e+00  0.0000000000000000e+00  0.0000000000000000e+00  0.0000000000000000e+00  0.0000000000000000e+00  0.0000000000000000e+00  0.0000000000000000e+00  0.0000000000000000e+00  0.0000000000000000e+00  0.0000000000000000e+00  0.0000000000000000e+00  0.0000000000000000e+00  0.0000000000000000e+00  0.0000000000000000e+00  0.0000000000000000e+00  0.0000000000000000e+00  0.0000000000000000e+00  0.0000000000000000e+00  0.0000000000000000e+00  0.0000000000000000e+00  0.0000000000000000e+00  0.0000000000000000e+00  0.0000000000000000e+00  0.0000000000000000e+00  0.0000000000000000e+00  0.0000000000000000e+00  0.0000000000000000e+00  0.0000000000000000e+00  0.0000000000000000e+00  0.0000000000000000e+00  0.0000000000000000e+00  0.0000000000000000e+00  0.0000000000000000e+00  0.0000000000000000e+00  0.0000000000000000e+00  0.0000000000000000e+00  0.0000000000000000e+00  0.0000000000000000e+00  0.0000000000000000e+00  0.0000000000000000e+00  0.0000000000000000e+00  0.0000000000000000e+00  0.0000000000000000e+00  0.0000000000000000e+00  0.0000000000000000e+00  0.0000000000000000e+00  0.0000000000000000e+00  0.0000000000000000e+00  0.0000000000000000e+00  0.0000000000000000e+00  0.0000000000000000e+00  0.0000000000000000e+00  0.0000000000000000e+00  0.0000000000000000e+00  0.0000000000000000e+00  0.0000000000000000e+00  0.0000000000000000e+00  0.0000000000000000e+00  0.0000000000000000e+00  0.0000000000000000e+00  0.0000000000000000e+00  0.0000000000000000e+00  0.0000000000000000e+00  0.0000000000000000e+00  0.0000000000000000e+00  0.0000000000000000e+00  0.0000000000000000e+00  0.0000000000000000e+00  0.0000000000000000e+00  0.0000000000000000e+00  0.0000000000000000e+00  0.0000000000000000e+00  0.0000000000000000e+00  0.0000000000000000e+00  0.0000000000000000e+00  0.0000000000000000e+00  0.0000000000000000e+00  0.0000000000000000e+00  0.0000000000000000e+00  0.0000000000000000e+00  0.0000000000000000e+00  0.0000000000000000e+00  0.0000000000000000e+00  0.0000000000000000e+00  0.0000000000000000e+00  0.0000000000000000e+00  0.0000000000000000e+00  0.0000000000000000e+00  0.0000000000000000e+00  0.0000000000000000e+00  0.0000000000000000e+00  0.0000000000000000e+00  0.0000000000000000e+00  0.0000000000000000e+00  0.0000000000000000e+00  0.0000000000000000e+00  0.0000000000000000e+00  0.0000000000000000e+00  0.0000000000000000e+00  0.0000000000000000e+00  0.0000000000000000e+00  0.0000000000000000e+00  0.0000000000000000e+00  0.0000000000000000e+00  0.0000000000000000e+00  0.0000000000000000e+00  0.0000000000000000e+00  0.0000000000000000e+00  0.0000000000000000e+00  0.0000000000000000e+00  0.0000000000000000e+00  0.0000000000000000e+00  0.0000000000000000e+00  0.0000000000000000e+00  0.0000000000000000e+00  0.0000000000000000e+00  0.0000000000000000e+00  0.0000000000000000e+00  0.0000000000000000e+00  0.0000000000000000e+00  0.0000000000000000e+00  0.0000000000000000e+00  0.0000000000000000e+00  0.0000000000000000e+00  0.0000000000000000e+00  0.0000000000000000e+00  0.0000000000000000e+00  0.0000000000000000e+00  0.0000000000000000e+00  0.0000000000000000e+00  0.0000000000000000e+00  0.0000000000000000e+00  0.0000000000000000e+00  0.0000000000000000e+00  0.0000000000000000e+00  0.0000000000000000e+00  0.0000000000000000e+00  0.0000000000000000e+00  0.0000000000000000e+00  0.0000000000000000e+00  0.0000000000000000e+00  0.0000000000000000e+00  0.0000000000000000e+00  5.5796118127183979e+02  5.5671618634921879e+02  5.5481064351174450e+02  5.5242693290936757e+02  5.4921479871681254e+02  5.4557653677983706e+02  5.4178541885372158e+02  5.3791329754199171e+02  5.3410885149017724e+02  5.3054362134182463e+02  5.2710286869643846e+02  5.2410461921669435e+02  5.2171604005613995e+02  5.1995689009147952e+02  5.1898170799810418e+02  5.1874054907848756e+02  5.1927811654076663e+02  5.2062572059885520e+02  5.2254476821791502e+02  5.2499728932103631e+02  5.2807370877540006e+02  5.3152470426290199e+02  5.3520302109271688e+02  5.3914141309413765e+02  5.4303421640395891e+02  5.4652778450306585e+02  5.4965023707200385e+02  5.5246285568586620e+02  5.5483896224037426e+02  5.5617426300826423e+02  5.5688622305102706e+02  5.5692691762507297e+02  5.5655596969822329e+02  5.5542674147624609e+02  5.5266885070739067e+02  5.4972944964954343e+02  5.4657041281074919e+02  5.4310250900008850e+02  5.3921159023186635e+02  5.3533190822918732e+02  5.3183342858568653e+02  5.2877834950341799e+02  5.2547216059682273e+02  5.2275640687233931e+02  5.2087591060682155e+02  5.1959376577400963e+02  5.1907216155682067e+02  5.1936634162401185e+02  5.2037697882644773e+02  5.2209944151955858e+02  5.2438284401505643e+02  5.2720864725262038e+02  5.3058753866662823e+02  5.3421924551219058e+02  5.3824040563713436e+02  5.4215111838428788e+02  5.4571987576286324e+02  5.4919354238132405e+02  5.5223023650422181e+02  5.5473580851351358e+02  5.5655077791976737e+02  5.5772536718872527e+02  9.4010765517421788e+00  1.0274645643079957e+01  1.1386885456214118e+01  1.0354383125084675e+01  1.2014046608532585e+01  1.1578981785630582e+01  1.1347487857317914e+01  1.1339934040182532e+01  1.1952454628475717e+01  1.1512077997187019e+01  1.2419469248324061e+01  1.4204295092943758e+01  1.4108280457820563e+01  1.3974543463598589e+01  1.2804823091500078e+01  1.4411056755877077e+01  1.3284141795919096e+01  1.2158141645335192e+01  1.5944976843386286e+01  1.5970717388005276e+01  1.2717935791496405e+01  1.3297049928278385e+01  1.5980091611937160e+01  1.4061904805681957e+01  1.3705031157587596e+01  1.2367077446612056e+01  1.7341454875020528e+01  1.7335403395803212e+01  1.7534647547353472e+01  1.5333865801858492e+01  1.5713651849792198e+01  1.2856124779467692e+01  8.6949914888330007e+00  8.0780733707781778e+00  8.7735993224548441e+00  8.6166525128420517e+00  7.6745411008126379e+00  8.2552740154010635e+00  8.0597025783641136e+00  8.1548310249804992e+00  1.7875621595637103e+01  1.3573710552187942e+01  1.2473782725540852e+01  1.6582138225388711e+01  5.8310358170790311e+00  6.3074046824060925e+00  6.3063511792992406e+00  6.0108306728592620e+00  6.5135021188826867e+00  6.3666032614157348e+00  6.4022432891578820e+00  6.1829780494437845e+00  4.6085688212064539e+00  5.1795572600139961e+00  4.6579071235677150e+00  4.7158256374031184e+00  4.3078424384252472e+00  4.7276286043729101e+00  4.5656702531462452e+00  4.6524523882283075e+00  3.4075975514251953e+00  2.6703885880913782e+00  2.4534393813087987e+00  2.9241666924852527e+00  2.8783747340283083e+00  2.8759794115283648e+00  2.8413818240807518e+00  3.0200731840463084e+00  1.7790283850909923e+01  1.4114091753322617e+01  1.3136165598680847e+01  1.5616575364963165e+01  1.4153625552992125e+01  1.5078050090469937e+01  1.6822656240303086e+01  1.6894598905962255e+01  1.5227545036512383e+01  1.1269653554018436e+01  1.5778739877800614e+01  1.3433123835646704e+01  1.2789158996948879e+01  1.4577074841652795e+01  1.6969123418569637e+01  1.5076803503016713e+01  1.5266642116580686e+01  1.2774078111072622e+01  1.5131311935080374e+01  1.2788190440790945e+01  1.3351873675531403e+01  1.2011904378462578e+01  1.2992640209501669e+01  1.2787204276675954e+01  9.5719917675968169e+00  1.1362622526979635e+01  1.1994439678431942e+01  1.3044363182905780e+01  1.0094086650541540e+01  9.8108353482288582e+00  9.6026994199386966e+00  9.9507032737512695e+00  1.0542661515918621e+01  1.0060518172929150e+01  9.6481824451324165e+00  8.1871201275720829e+00  1.5586294736711823e+00  1.5474978351936231e+00  1.5005297912347459e+00  1.6655672848632619e+00  1.5708420523611342e+00  1.6278590544147244e+00  1.5443521476665232e+00  1.2890527874696067e+00  1.7791237683992623e+01  1.5215988418830303e+01  1.6668062746245802e+01  1.5846778263132432e+01  1.0871845719197879e+01  1.2222691102609451e+01  1.2230917968464340e+01  1.2212138933315936e+01  1.2182289766738306e+01  1.0902483108165598e+01  1.1689285429399138e+01  1.2037966962377540e+01  7.7680079678689262e+00  8.6152669335146363e+00  8.5100291269125634e+00  7.8547791320510729e+00  7.4329089774728283e+00  7.8095580614685884e+00  7.3725060349824387e+00  7.7606994981594735e+00  5.5503473206754457e+00  3.7660713154207617e+00  5.5466902456095317e+00  4.0777062978959693e+00  5.0752912679635989e+00  3.8306418006334106e+00  5.6154819722067586e+00  3.8158430222270243e+00  5.4854030580439419e+00  4.5342371682850890e+00  5.6295494951782885e+00  3.8271395359529063e+00  5.6109304161783564e+00  3.7664340477130738e+00  5.7441018748049144e+00  3.9063741586739438e+00  7.3896050266543956e-01  6.7096957239396959e-01  6.7231080023861611e-01  7.2579903184263206e-01  1.7847160365072554e+01  3.5634323687067159e+01  3.5494483363606172e+01  5.3328800219591081e+01  5.3077965373826487e+01  7.0899585091556744e+01  7.0536079615200848e+01  8.8319819585703584e+01  8.7792693281529168e+01  1.0555083726644543e+02  1.0483242621766918e+02  1.2256237650098183e+02  1.2162887961539309e+02  1.3932434417107291e+02  1.3815029677461010e+02  1.5580488619750670e+02  1.5435149385414508e+02  1.7196953224170593e+02  1.7024627276657634e+02  1.8776136368566125e+02  1.8575788282498937e+02  1.8957740918996865e+02  2.0323087630480191e+02  2.0086664313574633e+02  2.1830112544691448e+02  2.1557640731773671e+02  2.3288099663130455e+02  2.2981266552197721e+02  2.4700727601717321e+02  2.4356523280050681e+02  2.6061807405456477e+02  2.5680338320789542e+02  2.6415683482484707e+02  2.7368269742637517e+02  2.6950114162447011e+02  2.8624367265646754e+02  2.8164538689475262e+02  2.9825398187624972e+02  2.9320089144431427e+02  3.0963217342589388e+02  3.0417261296080761e+02  3.2038920891660871e+02  3.1451348134034225e+02  3.2593950534888154e+02  3.3050877141897331e+02  3.2422176126198013e+02  3.3998028579898084e+02  3.3326711093417794e+02  3.1749562685903248e+02  3.2617700800932204e+02  3.4166636137645139e+02  3.3424411321206196e+02  3.1887075770800226e+02  3.2654290948656211e+02  3.1135268585177283e+02  3.1859677877283809e+02  3.3353557604324016e+02  3.2519738802357341e+02  3.1040534994177608e+02  3.1662741569614315e+02  3.0200125327350020e+02  3.0784779134773305e+02  3.2222919813708046e+02  3.1308299909080876e+02  2.9887839736485029e+02  3.0375030523871493e+02  3.1771100572086783e+02  3.0802536767562310e+02  2.9424857688239769e+02  2.9817283562839032e+02  3.1170937650315159e+02  3.0151678731222586e+02  3.1481028016230545e+02  2.8459424698496014e+02  3.0428804437058221e+02  3.1733642824381104e+02  3.0649573017838497e+02  3.1929863612459860e+02  3.0815017863910856e+02  3.2070858263636984e+02  3.0926320510299831e+02  3.2157707371701179e+02  2.9685867259669311e+02  3.0984606367335874e+02  3.2191824641334324e+02  3.0991194263464871e+02  3.2174587819557627e+02  3.0947511999783092e+02  3.2107425058715552e+02  3.0854903798671359e+02  3.1991868957138473e+02  3.0714910089137823e+02  3.1829374633443047e+02  3.0528968673508501e+02  3.1621561626820352e+02  2.9588252610748089e+02  3.3199929361407402e+02  5.4528151841045815e+02  3.0298507104409128e+02  3.1369989410200611e+02  3.0025335843424398e+02  3.1076231538595266e+02  5.3360292400337084e+02  2.9710887151867757e+02  3.0741898871580923e+02  5.2367568746537302e+02  2.9356744932107256e+02  3.0368578601042248e+02  3.1757896986920008e+02  3.1365358041295542e+02  2.9957803386712766e+02  3.0936119912709921e+02  3.3253787236161145e+02  2.8331977254130857e+02  2.9511274398699373e+02  3.0471895506707392e+02  3.1897530355368713e+02  3.1415510627194192e+02  2.9973883329226618e+02  3.0900551829884790e+02  3.2340605105947299e+02  3.1808849445568615e+02  3.0353958184239718e+02  3.1246269182477869e+02  3.2697372008775221e+02  3.2119027155765326e+02  3.0654073159138568e+02  3.1511437989547483e+02  3.2973243668287733e+02  3.2349512116328293e+02  3.0876326922216947e+02  3.1698378387546495e+02  3.3163890031007531e+02  3.2498478597884110e+02  3.1021951098417190e+02  3.1808087452248071e+02  3.3275530731595126e+02  3.2571375504591856e+02  3.4028663337578195e+02  3.3310742324491468e+02  3.1842345573509698e+02  3.2567903584075083e+02  3.4025124747654382e+02  3.3268504868249107e+02  3.1801137097794782e+02  3.2487786028653164e+02  3.3943153956672165e+02  3.3148225414781211e+02  3.4590738177544182e+02  3.3781317125338029e+02  3.5210275833758919e+02  3.4386027970338620e+02  3.2948219647567680e+02  3.3537640542593033e+02  3.4961227711128180e+02  3.4097001250527757e+02  3.5505739332849583e+02  3.4625044516216383e+02  3.6018351965533924e+02  3.5120445661957024e+02  3.6497780431620754e+02  3.5581860122177153e+02  3.4198095379864475e+02  3.4640970841857228e+02  3.6007911759152324e+02  3.5048137831738808e+02  3.6396483040737189e+02  3.5416884756452140e+02  3.6747019114830056e+02  3.5746060741925822e+02  3.7059766268209188e+02  3.6034092810511908e+02  3.7328704386625594e+02  3.6279937391298881e+02  3.7552083316798041e+02  3.6480488829583987e+02  3.7731327567107388e+02  3.6634844267502200e+02  3.7869657871260739e+02  3.6742195015183086e+02  3.7954108891888700e+02  3.6799215941661748e+02  3.7980025308772719e+02  3.6802751539660517e+02  3.7958515786832038e+02  3.6753951006648879e+02  3.7884394122589072e+02  3.5601361534777948e+02  3.5525562653067954e+02  3.4379510846159138e+02  3.4276670677229089e+02  3.3140374564894574e+02  3.3011348136871374e+02  3.1887237773742527e+02  3.1732719268313218e+02  3.0623225977091374e+02  3.0444144311181589e+02  3.1522481994145465e+02  2.9351591415883996e+02  3.4412171013153534e+02  3.0209239158139741e+02  3.1255365656368997e+02  2.9917923673681724e+02  3.0930420701457149e+02  2.9568594830116240e+02  3.0546676052711763e+02  2.9160327520273580e+02  3.0103347000750790e+02  2.8693318979223983e+02  2.7771476558794473e+02  2.9600009282513957e+02  2.7282120957195554e+02  2.6383512657473216e+02  2.5872975866129514e+02  2.4999499525986261e