<?xml version="1.0"?>
<VTKFile type="UnstructuredGrid"  version="0.1"  >
<UnstructuredGrid>
<Piece  NumberOfPoints="11902" NumberOfCells="23402">
<Points>
<DataArray  type="Float64"  NumberOfComponents="3"  format="ascii">-5 -5 0  5 -5 0  5 5 0  -5 5 0  1.453987905169492 -5.585986383079976e-06 0  -4.9 -5 0  -4.8 -5 0  -4.7 -5 0  -4.6 -5 0  -4.5 -5 0  -4.4 -5 0  -4.3 -5 0  -4.2 -5 0  -4.1 -5 0  -4 -5 0  -3.9 -5 0  -3.8 -5 0  -3.7 -5 0  -3.6 -5 0  -3.5 -5 0  -3.4 -5 0  -3.3 -5 0  -3.2 -5 0  -3.1 -5 0  -3 -5 0  -2.9 -5 0  -2.8 -5 0  -2.7 -5 0  -2.6 -5 0  -2.5 -5 0  -2.4 -5 0  -2.3 -5 0  -2.2 -5 0  -2.1 -5 0  -2 -5 0  -1.9 -5 0  -1.8 -5 0  -1.7 -5 0  -1.6 -5 0  -1.5 -5 0  -1.4 -5 0  -1.3 -5 0  -1.2 -5 0  -1.1 -5 0  -1 -5 0  -0.9000000000000004 -5 0  -0.7999999999999998 -5 0  -0.7000000000000002 -5 0  -0.5999999999999996 -5 0  -0.5 -5 0  -0.4000000000000004 -5 0  -0.2999999999999998 -5 0  -0.2000000000000002 -5 0  -0.09999999999999964 -5 0  0 -5 0  0.09999999999999964 -5 0  0.2000000000000002 -5 0  0.2999999999999998 -5 0  0.4000000000000004 -5 0  0.5 -5 0  0.5999999999999996 -5 0  0.7000000000000002 -5 0  0.7999999999999998 -5 0  0.9000000000000004 -5 0  1 -5 0  1.1 -5 0  1.2 -5 0  1.3 -5 0  1.4 -5 0  1.5 -5 0  1.6 -5 0  1.7 -5 0  1.8 -5 0  1.9 -5 0  2 -5 0  2.1 -5 0  2.2 -5 0  2.3 -5 0  2.4 -5 0  2.5 -5 0  2.6 -5 0  2.7 -5 0  2.8 -5 0  2.9 -5 0  3 -5 0  3.1 -5 0  3.199999999999999 -5 0  3.300000000000001 -5 0  3.4 -5 0  3.5 -5 0  3.6 -5 0  3.699999999999999 -5 0  3.800000000000001 -5 0  3.9 -5 0  4 -5 0  4.1 -5 0  4.199999999999999 -5 0  4.300000000000001 -5 0  4.4 -5 0  4.5 -5 0  4.6 -5 0  4.699999999999999 -5 0  4.800000000000001 -5 0  4.9 -5 0  5 -4.9 0  5 -4.8 0  5 -4.7 0  5 -4.6 0  5 -4.5 0  5 -4.4 0  5 -4.3 0  5 -4.2 0  5 -4.1 0  5 -4 0  5 -3.9 0  5 -3.8 0  5 -3.7 0  5 -3.6 0  5 -3.5 0  5 -3.4 0  5 -3.3 0  5 -3.2 0  5 -3.1 0  5 -3 0  5 -2.9 0  5 -2.8 0  5 -2.7 0  5 -2.6 0  5 -2.5 0  5 -2.4 0  5 -2.3 0  5 -2.2 0  5 -2.1 0  5 -2 0  5 -1.9 0  5 -1.8 0  5 -1.7 0  5 -1.6 0  5 -1.5 0  5 -1.4 0  5 -1.3 0  5 -1.2 0  5 -1.1 0  5 -1 0  5 -0.9000000000000004 0  5 -0.7999999999999998 0  5 -0.7000000000000002 0  5 -0.5999999999999996 0  5 -0.5 0  5 -0.4000000000000004 0  5 -0.2999999999999998 0  5 -0.2000000000000002 0  5 -0.09999999999999964 0  5 0 0  5 0.09999999999999964 0  5 0.2000000000000002 0  5 0.2999999999999998 0  5 0.4000000000000004 0  5 0.5 0  5 0.5999999999999996 0  5 0.7000000000000002 0  5 0.7999999999999998 0  5 0.9000000000000004 0  5 1 0  5 1.1 0  5 1.2 0  5 1.3 0  5 1.4 0  5 1.5 0  5 1.6 0  5 1.7 0  5 1.8 0  5 1.9 0  5 2 0  5 2.1 0  5 2.2 0  5 2.3 0  5 2.4 0  5 2.5 0  5 2.6 0  5 2.7 0  5 2.8 0  5 2.9 0  5 3 0  5 3.1 0  5 3.199999999999999 0  5 3.300000000000001 0  5 3.4 0  5 3.5 0  5 3.6 0  5 3.699999999999999 0  5 3.800000000000001 0  5 3.9 0  5 4 0  5 4.1 0  5 4.199999999999999 0  5 4.300000000000001 0  5 4.4 0  5 4.5 0  5 4.6 0  5 4.699999999999999 0  5 4.800000000000001 0  5 4.9 0  4.9 5 0  4.8 5 0  4.7 5 0  4.6 5 0  4.5 5 0  4.4 5 0  4.3 5 0  4.2 5 0  4.1 5 0  4 5 0  3.9 5 0  3.8 5 0  3.7 5 0  3.6 5 0  3.5 5 0  3.4 5 0  3.3 5 0  3.2 5 0  3.1 5 0  3 5 0  2.9 5 0  2.8 5 0  2.7 5 0  2.6 5 0  2.5 5 0  2.4 5 0  2.3 5 0  2.2 5 0  2.1 5 0  2 5 0  1.9 5 0  1.8 5 0  1.7 5 0  1.6 5 0  1.5 5 0  1.4 5 0  1.3 5 0  1.2 5 0  1.1 5 0  1 5 0  0.9000000000000004 5 0  0.7999999999999998 5 0  0.7000000000000002 5 0  0.5999999999999996 5 0  0.5 5 0  0.4000000000000004 5 0  0.2999999999999998 5 0  0.2000000000000002 5 0  0.09999999999999964 5 0  0 5 0  -0.09999999999999964 5 0  -0.2000000000000002 5 0  -0.2999999999999998 5 0  -0.4000000000000004 5 0  -0.5 5 0  -0.5999999999999996 5 0  -0.7000000000000002 5 0  -0.7999999999999998 5 0  -0.9000000000000004 5 0  -1 5 0  -1.1 5 0  -1.2 5 0  -1.3 5 0  -1.4 5 0  -1.5 5 0  -1.6 5 0  -1.7 5 0  -1.8 5 0  -1.9 5 0  -2 5 0  -2.1 5 0  -2.2 5 0  -2.3 5 0  -2.4 5 0  -2.5 5 0  -2.6 5 0  -2.7 5 0  -2.8 5 0  -2.9 5 0  -3 5 0  -3.1 5 0  -3.199999999999999 5 0  -3.300000000000001 5 0  -3.4 5 0  -3.5 5 0  -3.6 5 0  -3.699999999999999 5 0  -3.800000000000001 5 0  -3.9 5 0  -4 5 0  -4.1 5 0  -4.199999999999999 5 0  -4.300000000000001 5 0  -4.4 5 0  -4.5 5 0  -4.6 5 0  -4.699999999999999 5 0  -4.800000000000001 5 0  -4.9 5 0  -5 4.9 0  -5 4.8 0  -5 4.7 0  -5 4.6 0  -5 4.5 0  -5 4.4 0  -5 4.3 0  -5 4.2 0  -5 4.1 0  -5 4 0  -5 3.9 0  -5 3.8 0  -5 3.7 0  -5 3.6 0  -5 3.5 0  -5 3.4 0  -5 3.3 0  -5 3.2 0  -5 3.1 0  -5 3 0  -5 2.9 0  -5 2.8 0  -5 2.7 0  -5 2.6 0  -5 2.5 0  -5 2.4 0  -5 2.3 0  -5 2.2 0  -5 2.1 0  -5 2 0  -5 1.9 0  -5 1.8 0  -5 1.7 0  -5 1.6 0  -5 1.5 0  -5 1.4 0  -5 1.3 0  -5 1.2 0  -5 1.1 0  -5 1 0  -5 0.9000000000000004 0  -5 0.7999999999999998 0  -5 0.7000000000000002 0  -5 0.5999999999999996 0  -5 0.5 0  -5 0.4000000000000004 0  -5 0.2999999999999998 0  -5 0.2000000000000002 0  -5 0.09999999999999964 0  -5 0 0  -5 -0.09999999999999964 0  -5 -0.2000000000000002 0  -5 -0.2999999999999998 0  -5 -0.4000000000000004 0  -5 -0.5 0  -5 -0.5999999999999996 0  -5 -0.7000000000000002 0  -5 -0.7999999999999998 0  -5 -0.9000000000000004 0  -5 -1 0  -5 -1.1 0  -5 -1.2 0  -5 -1.3 0  -5 -1.4 0  -5 -1.5 0  -5 -1.6 0  -5 -1.7 0  -5 -1.8 0  -5 -1.9 0  -5 -2 0  -5 -2.1 0  -5 -2.2 0  -5 -2.3 0  -5 -2.4 0  -5 -2.5 0  -5 -2.6 0  -5 -2.7 0  -5 -2.8 0  -5 -2.9 0  -5 -3 0  -5 -3.1 0  -5 -3.199999999999999 0  -5 -3.300000000000001 0  -5 -3.4 0  -5 -3.5 0  -5 -3.6 0  -5 -3.699999999999999 0  -5 -3.800000000000001 0  -5 -3.9 0  -5 -4 0  -5 -4.1 0  -5 -4.199999999999999 0  -5 -4.300000000000001 0  -5 -4.4 0  -5 -4.5 0  -5 -4.6 0  -5 -4.699999999999999 0  -5 -4.800000000000001 0  -5 -4.9 0  1.446785348593846 0.1396582229927972 0  1.425293922207573 0.277571761269591 0  1.393694668305198 0.4157093597306042 0  1.348140990775113 0.5504103170287736 0  1.286109277487161 0.6800381977886982 0  1.212032667577468 0.8057461521339611 0  1.124790021409593 0.9234340574044577 0  1.027872514771944 1.03411371931984 0  0.9202591774363733 1.135075633686675 0  0.802956118189684 1.225468099251732 0  0.6761322647091004 1.30286696755445 0  0.5424419972332583 1.36762802444029 0  0.4030504963480042 1.418133823684477 0  0.2592192975666051 1.45367300336617 0  0.1123218085501591 1.473223921330936 0  -0.03574315941049465 1.476324843757086 0  -0.1832819048351189 1.464122378219146 0  -0.3290906438269025 1.436581090711057 0  -0.4708490479588763 1.393072378958944 0  -0.6075608647385582 1.335598557748408 0  -0.737876070857227 1.264629633319458 0  -0.860045361882871 1.181407524968034 0  -0.9723035496438219 1.085882661182343 0  -1.075091729446036 0.97965262158105 0  -1.168071022852166 0.8657214075732278 0  -1.247504868297152 0.7435784147307027 0  -1.31413745504206 0.6151914343720858 0  -1.370308229871327 0.4831126466809607 0  -1.409853377481819 0.3471054872027599 0  -1.436273268906045 0.2095021749516474 0  -1.449207035137869 0.07011485515897131 0  -1.447982939134409 -0.06932297557780451 0  -1.434179212456914 -0.2084427279050562 0  -1.407222991493782 -0.347232347237402 0  -1.367049286739091 -0.4839469718232471 0  -1.314057161566513 -0.6165932750519163 0  -1.247846074350971 -0.7447038926789639 0  -1.169046296375112 -0.8670138390154243 0  -1.076267020639531 -0.9808631512881747 0  -0.9735115361800633 -1.086478274907479 0  -0.8613776680514226 -1.182381683804217 0  -0.7386352328431103 -1.266318784603653 0  -0.6074637161047168 -1.337242228246795 0  -0.4707104974103491 -1.394019360465597 0  -0.3295169318140629 -1.438461359849437 0  -0.183762363781345 -1.46575908209073 0  -0.03601691327329831 -1.477261381755271 0  0.1120820121680952 -1.473526407190032 0  0.2590576134644658 -1.45360219530796 0  0.4031820696993459 -1.417888983619655 0  0.5428425536617625 -1.367746755759745 0  0.6759149563439549 -1.302725609431162 0  0.8013534006877869 -1.224348035096503 0  0.9193779438530669 -1.135284347298625 0  1.028265104621638 -1.034600180487998 0  1.126572150519735 -0.9245683773082667 0  1.211946009642314 -0.8059185643841379 0  1.286045082634577 -0.6806002595089808 0  1.346846361096633 -0.5502463439922048 0  1.392811344670831 -0.4155534509278352 0  1.426436356586598 -0.2786482267222157 0  1.445579023490804 -0.1398678604010088 0  -2.44789722013742 4.918719402665316 0  -2.447707652396015 -4.911114333838527 0  4.907402550017116 2.447273311221343 0  4.915809303674077 -2.448791838545648 0  2.44529460049435 -4.896440463205828 0  2.439779465137657 4.900201663146398 0  -4.907458754212239 -2.447316020680131 0  -4.907480072644862 2.447327642583198 0  -1.748008563132024 4.91230654253314 0  -1.743808474278081 -4.91568478694767 0  4.916292069744141 1.743285977482389 0  4.904179618480032 -1.746938145864903 0  -4.904548531043626 -1.746693045762939 0  -4.905443371448824 1.746450102705868 0  1.745238518073509 4.906265553197767 0  1.746560087549753 -4.89451738449343 0  -1.148513024052062 4.910729418321003 0  -1.129373919019248 -4.918443122232915 0  -4.902454839652917 -1.147013600382162 0  -4.902284237504292 1.146813836221597 0  1.143496645953649 -4.914686674752132 0  1.148504783676438 4.910687974959858 0  4.902537659369963 1.145269714718877 0  4.914201902284558 -1.151168069232726 0  -0.5465423113516614 -4.912283601599515 0  -0.5462925168988881 4.920790627837042 0  -4.899615973533593 -0.5481359248099524 0  -4.899655771071415 0.5466920363304417 0  4.898786904731296 -0.5484358868674457 0  4.91152172736358 0.545268083859342 0  0.5422720401594953 -4.899487943135847 0  0.551022613432581 4.917676475860179 0  -4.910071335204602 -3.047933425048216 0  4.916769385203245 3.045960754741726 0  4.909543662462887 -3.047891033817643 0  -4.910951566366365 3.045031370388274 0  3.054579643903795 -4.917568654957964 0  -3.047852107664052 -4.911556478369536 0  3.05143925997978 4.913604283246092 0  -3.047333684281637 4.91242841552706 0  -4.898128667113342 -0.04985161849074631 0  0.04511221052651588 -4.914335924451282 0  0.04954758906120501 4.92120399957113 0  4.905781616679236 -0.05123811900110779 0  3.544941796184753 -4.91905735412223 0  -3.548206096592399 4.911979183255422 0  -3.548194065043733 -4.9119
[...]
<PointData  Scalars="f_26"> 
<DataArray  type="Float64"  Name="f_26"  format="ascii">0.0000000000000000e+00  0.0000000000000000e+00  0.0000000000000000e+00  0.0000000000000000e+00  6.0837781791391399e+02  0.0000000000000000e+00  0.0000000000000000e+00  0.0000000000000000e+00  0.0000000000000000e+00  0.0000000000000000e+00  0.0000000000000000e+00  0.0000000000000000e+00  0.0000000000000000e+00  0.0000000000000000e+00  0.0000000000000000e+00  0.0000000000000000e+00  0.0000000000000000e+00  0.0000000000000000e+00  0.0000000000000000e+00  0.0000000000000000e+00  0.0000000000000000e+00  0.0000000000000000e+00  0.0000000000000000e+00  0.0000000000000000e+00  0.0000000000000000e+00  0.0000000000000000e+00  0.0000000000000000e+00  0.0000000000000000e+00  0.0000000000000000e+00  0.0000000000000000e+00  0.0000000000000000e+00  0.0000000000000000e+00  0.0000000000000000e+00  0.0000000000000000e+00  0.0000000000000000e+00  0.0000000000000000e+00  0.0000000000000000e+00  0.0000000000000000e+00  0.0000000000000000e+00  0.0000000000000000e+00  0.0000000000000000e+00  0.0000000000000000e+00  0.0000000000000000e+00  0.0000000000000000e+00  0.0000000000000000e+00  0.0000000000000000e+00  0.0000000000000000e+00  0.0000000000000000e+00  0.0000000000000000e+00  0.0000000000000000e+00  0.0000000000000000e+00  0.0000000000000000e+00  0.0000000000000000e+00  0.0000000000000000e+00  0.0000000000000000e+00  0.0000000000000000e+00  0.0000000000000000e+00  0.0000000000000000e+00  0.0000000000000000e+00  0.0000000000000000e+00  0.0000000000000000e+00  0.0000000000000000e+00  0.0000000000000000e+00  0.0000000000000000e+00  0.0000000000000000e+00  0.0000000000000000e+00  0.0000000000000000e+00  0.0000000000000000e+00  0.0000000000000000e+00  0.0000000000000000e+00  0.0000000000000000e+00  0.0000000000000000e+00  0.0000000000000000e+00  0.0000000000000000e+00  0.0000000000000000e+00  0.0000000000000000e+00  0.0000000000000000e+00  0.0000000000000000e+00  0.0000000000000000e+00  0.0000000000000000e+00  0.0000000000000000e+00  0.0000000000000000e+00  0.0000000000000000e+00  0.0000000000000000e+00  0.0000000000000000e+00  0.0000000000000000e+00  0.0000000000000000e+00  0.0000000000000000e+00  0.0000000000000000e+00  0.0000000000000000e+00  0.0000000000000000e+00  0.0000000000000000e+00  0.0000000000000000e+00  0.0000000000000000e+00  0.0000000000000000e+00  0.0000000000000000e+00  0.0000000000000000e+00  0.0000000000000000e+00  0.0000000000000000e+00  0.0000000000000000e+00  0.0000000000000000e+00  0.0000000000000000e+00  0.0000000000000000e+00  0.0000000000000000e+00  0.0000000000000000e+00  0.0000000000000000e+00  0.0000000000000000e+00  0.0000000000000000e+00  0.0000000000000000e+00  0.0000000000000000e+00  0.0000000000000000e+00  0.0000000000000000e+00  0.0000000000000000e+00  0.0000000000000000e+00  0.0000000000000000e+00  0.0000000000000000e+00  0.0000000000000000e+00  0.0000000000000000e+00  0.0000000000000000e+00  0.0000000000000000e+00  0.0000000000000000e+00  0.0000000000000000e+00  0.0000000000000000e+00  0.0000000000000000e+00  0.0000000000000000e+00  0.0000000000000000e+00  0.0000000000000000e+00  0.0000000000000000e+00  0.0000000000000000e+00  0.0000000000000000e+00  0.0000000000000000e+00  0.0000000000000000e+00  0.0000000000000000e+00  0.0000000000000000e+00  0.0000000000000000e+00  0.0000000000000000e+00  0.0000000000000000e+00  0.0000000000000000e+00  0.0000000000000000e+00  0.0000000000000000e+00  0.0000000000000000e+00  0.0000000000000000e+00  0.0000000000000000e+00  0.0000000000000000e+00  0.0000000000000000e+00  0.0000000000000000e+00  0.0000000000000000e+00  0.0000000000000000e+00  0.0000000000000000e+00  0.0000000000000000e+00  0.0000000000000000e+00  0.0000000000000000e+00  0.0000000000000000e+00  0.0000000000000000e+00  0.0000000000000000e+00  0.0000000000000000e+00  0.0000000000000000e+00  0.0000000000000000e+00  0.0000000000000000e+00  0.0000000000000000e+00  0.0000000000000000e+00  0.0000000000000000e+00  0.0000000000000000e+00  0.0000000000000000e+00  0.0000000000000000e+00  0.0000000000000000e+00  0.0000000000000000e+00  0.0000000000000000e+00  0.0000000000000000e+00  0.0000000000000000e+00  0.0000000000000000e+00  0.0000000000000000e+00  0.0000000000000000e+00  0.0000000000000000e+00  0.0000000000000000e+00  0.0000000000000000e+00  0.0000000000000000e+00  0.0000000000000000e+00  0.0000000000000000e+00  0.0000000000000000e+00  0.0000000000000000e+00  0.0000000000000000e+00  0.0000000000000000e+00  0.0000000000000000e+00  0.0000000000000000e+00  0.0000000000000000e+00  0.0000000000000000e+00  0.0000000000000000e+00  0.0000000000000000e+00  0.0000000000000000e+00  0.0000000000000000e+00  0.0000000000000000e+00  0.0000000000000000e+00  0.0000000000000000e+00  0.0000000000000000e+00  0.0000000000000000e+00  0.0000000000000000e+00  0.0000000000000000e+00  0.0000000000000000e+00  0.0000000000000000e+00  0.0000000000000000e+00  0.0000000000000000e+00  0.0000000000000000e+00  0.0000000000000000e+00  0.0000000000000000e+00  0.0000000000000000e+00  0.0000000000000000e+00  0.0000000000000000e+00  0.0000000000000000e+00  0.0000000000000000e+00  0.0000000000000000e+00  0.0000000000000000e+00  0.0000000000000000e+00  0.0000000000000000e+00  0.0000000000000000e+00  0.0000000000000000e+00  0.0000000000000000e+00  0.0000000000000000e+00  0.0000000000000000e+00  0.0000000000000000e+00  0.0000000000000000e+00  0.0000000000000000e+00  0.0000000000000000e+00  0.0000000000000000e+00  0.0000000000000000e+00  0.0000000000000000e+00  0.0000000000000000e+00  0.0000000000000000e+00  0.0000000000000000e+00  0.0000000000000000e+00  0.0000000000000000e+00  0.0000000000000000e+00  0.0000000000000000e+00  0.0000000000000000e+00  0.0000000000000000e+00  0.0000000000000000e+00  0.0000000000000000e+00  0.0000000000000000e+00  0.0000000000000000e+00  0.0000000000000000e+00  0.0000000000000000e+00  0.0000000000000000e+00  0.0000000000000000e+00  0.0000000000000000e+00  0.0000000000000000e+00  0.0000000000000000e+00  0.0000000000000000e+00  0.0000000000000000e+00  0.0000000000000000e+00  0.0000000000000000e+00  0.0000000000000000e+00  0.0000000000000000e+00  0.0000000000000000e+00  0.0000000000000000e+00  0.0000000000000000e+00  0.0000000000000000e+00  0.0000000000000000e+00  0.0000000000000000e+00  0.0000000000000000e+00  0.0000000000000000e+00  0.0000000000000000e+00  0.0000000000000000e+00  0.0000000000000000e+00  0.0000000000000000e+00  0.0000000000000000e+00  0.0000000000000000e+00  0.0000000000000000e+00  0.0000000000000000e+00  0.0000000000000000e+00  0.0000000000000000e+00  0.0000000000000000e+00  0.0000000000000000e+00  0.0000000000000000e+00  0.0000000000000000e+00  0.0000000000000000e+00  0.0000000000000000e+00  0.0000000000000000e+00  0.0000000000000000e+00  0.0000000000000000e+00  0.0000000000000000e+00  0.0000000000000000e+00  0.0000000000000000e+00  0.0000000000000000e+00  0.0000000000000000e+00  0.0000000000000000e+00  0.0000000000000000e+00  0.0000000000000000e+00  0.0000000000000000e+00  0.0000000000000000e+00  0.0000000000000000e+00  0.0000000000000000e+00  0.0000000000000000e+00  0.0000000000000000e+00  0.0000000000000000e+00  0.0000000000000000e+00  0.0000000000000000e+00  0.0000000000000000e+00  0.0000000000000000e+00  0.0000000000000000e+00  0.0000000000000000e+00  0.0000000000000000e+00  0.0000000000000000e+00  0.0000000000000000e+00  0.0000000000000000e+00  0.0000000000000000e+00  0.0000000000000000e+00  0.0000000000000000e+00  0.0000000000000000e+00  0.0000000000000000e+00  0.0000000000000000e+00  0.0000000000000000e+00  0.0000000000000000e+00  0.0000000000000000e+00  0.0000000000000000e+00  0.0000000000000000e+00  0.0000000000000000e+00  0.0000000000000000e+00  0.0000000000000000e+00  0.0000000000000000e+00  0.0000000000000000e+00  0.0000000000000000e+00  0.0000000000000000e+00  0.0000000000000000e+00  0.0000000000000000e+00  0.0000000000000000e+00  0.0000000000000000e+00  0.0000000000000000e+00  0.0000000000000000e+00  0.0000000000000000e+00  0.0000000000000000e+00  0.0000000000000000e+00  0.0000000000000000e+00  0.0000000000000000e+00  0.0000000000000000e+00  0.0000000000000000e+00  0.0000000000000000e+00  0.0000000000000000e+00  0.0000000000000000e+00  0.0000000000000000e+00  0.0000000000000000e+00  0.0000000000000000e+00  0.0000000000000000e+00  0.0000000000000000e+00  0.0000000000000000e+00  0.0000000000000000e+00  0.0000000000000000e+00  0.0000000000000000e+00  0.0000000000000000e+00  0.0000000000000000e+00  0.0000000000000000e+00  0.0000000000000000e+00  0.0000000000000000e+00  0.0000000000000000e+00  0.0000000000000000e+00  0.0000000000000000e+00  0.0000000000000000e+00  0.0000000000000000e+00  0.0000000000000000e+00  0.0000000000000000e+00  0.0000000000000000e+00  0.0000000000000000e+00  0.0000000000000000e+00  0.0000000000000000e+00  0.0000000000000000e+00  0.0000000000000000e+00  0.0000000000000000e+00  0.0000000000000000e+00  0.0000000000000000e+00  0.0000000000000000e+00  0.0000000000000000e+00  0.0000000000000000e+00  0.0000000000000000e+00  0.0000000000000000e+00  0.0000000000000000e+00  0.0000000000000000e+00  0.0000000000000000e+00  0.0000000000000000e+00  0.0000000000000000e+00  0.0000000000000000e+00  0.0000000000000000e+00  0.0000000000000000e+00  0.0000000000000000e+00  0.0000000000000000e+00  0.0000000000000000e+00  0.0000000000000000e+00  0.0000000000000000e+00  0.0000000000000000e+00  0.0000000000000000e+00  0.0000000000000000e+00  0.0000000000000000e+00  0.0000000000000000e+00  0.0000000000000000e+00  0.0000000000000000e+00  0.0000000000000000e+00  0.0000000000000000e+00  0.0000000000000000e+00  0.0000000000000000e+00  0.0000000000000000e+00  0.0000000000000000e+00  0.0000000000000000e+00  0.0000000000000000e+00  6.0813032534777290e+02  6.0737432437324298e+02  6.0618214896013546e+02  6.0451517314382124e+02  6.0219935859044176e+02  5.9980396323839432e+02  5.9728532483912238e+02  5.9436601043652570e+02  5.9141958875182127e+02  5.8847534071448422e+02  5.8583174267862296e+02  5.8347927445495225e+02  5.8148173379273783e+02  5.8002877040672274e+02  5.7923412824750903e+02  5.7914043426007015e+02  5.7967237226788188e+02  5.8073706876870699e+02  5.8239593327509886e+02  5.8447963560404571e+02  5.8699846994928384e+02  5.8961821596985840e+02  5.9247030713909487e+02  5.9544431599078689e+02  5.9815510347887732e+02  6.0082568127450816e+02  6.0310329430017532e+02  6.0474400327943863e+02  6.0609296940544732e+02  6.0712764105237795e+02  6.0796143381027866e+02  6.0809982526698525e+02  6.0757776419031995e+02  6.0676423587058605e+02  6.0506958566281185e+02  6.0298006073143654e+02  6.0075490837443363e+02  5.9810904135841520e+02  5.9538643315585261e+02  5.9247509638372514e+02  5.8966921357574574e+02  5.8708597963848251e+02  5.8462219563582164e+02  5.8252309267073167e+02  5.8073566788785661e+02  5.7973316362940898e+02  5.7925751929779699e+02  5.7946021933931968e+02  5.8035223666993591e+02  5.8177560630726452e+02  5.8366612227180519e+02  5.8607006528598515e+02  5.8872682191479475e+02  5.9151652316038292e+02  5.9449746735193423e+02  5.9729633420242737e+02  6.0008804725958760e+02  6.0247992532223680e+02  6.0442892231326368e+02  6.0611572057430692e+02  6.0726557197133081e+02  6.0818963666933769e+02  1.0533472156296567e+01  1.1511696757049311e+01  1.2639673503358697e+01  1.1490310145132849e+01  1.3449455122883915e+01  1.2966013030257766e+01  1.2608145848871047e+01  1.2602134774575676e+01  1.3438777363426064e+01  1.2937823465846423e+01  1.3849765021350512e+01  1.5842088876079007e+01  1.5749649407987258e+01  1.5601712759971738e+01  1.4384581693381758e+01  1.6190357106281862e+01  1.4972135952957320e+01  1.3703600329161384e+01  1.7924983426301761e+01  1.7954789048301858e+01  1.4327914197842707e+01  1.4983439583130112e+01  1.7950077257351072e+01  1.5791062535747955e+01  1.5470134910255151e+01  1.3963369964372886e+01  1.9625676162390540e+01  1.9619048526196227e+01  1.9829329153314760e+01  1.7338379541304089e+01  1.7735178452689642e+01  1.4513955066877886e+01  9.6545738295294257e+00  8.9594633161515507e+00  9.7305569250952413e+00  9.5698692714076241e+00  8.5641471851617208e+00  9.2187318677513819e+00  8.9957143741999257e+00  9.1130252138671484e+00  2.0280271302761296e+01  1.5327000353931979e+01  1.4090108433833786e+01  1.8797453423663200e+01  6.4905381656449572e+00  7.0308311839142128e+00  7.0273276773747968e+00  6.6715614025312693e+00  7.2376792273196591e+00  7.0656442407330093e+00  7.1159238608763973e+00  6.8851581622308995e+00  5.1173340206205227e+00  5.7607204235414979e+00  5.1740219974024999e+00  5.2429840442847357e+00  4.7943073415219155e+00  5.2509304258622169e+00  5.0730975713362358e+00  5.1741488222950700e+00  3.7805709412313311e+00  2.9667403258555316e+00  2.7241343346894675e+00  3.2470948508196495e+00  3.1955889566527524e+00  3.1968759613274731e+00  3.1594781234641487e+00  3.3498406841740516e+00  2.0173065453878078e+01  1.5938110654822514e+01  1.4838631150578138e+01  1.7692728844161582e+01  1.5967035081920796e+01  1.6887959090186801e+01  1.8981335337395052e+01  1.9061819783400587e+01  1.7056764426909858e+01  1.2675761551452728e+01  1.7799738299737459e+01  1.5148637120215797e+01  1.4393712222041804e+01  1.6312071337594695e+01  1.9130617539580236e+01  1.6995907105292019e+01  1.7082977736603823e+01  1.4382321340437350e+01  1.7065901052409263e+01  1.4392972768617151e+01  1.4993297363515492e+01  1.3478136295178134e+01  1.4466803822427533e+01  1.4240032920315244e+01  1.0737515428538821e+01  1.2744107107047842e+01  1.3341785384445084e+01  1.4510008594434057e+01  1.1194998423307558e+01  1.0971016168732952e+01  1.0733111259755193e+01  1.1051251520659903e+01  1.1794760672520379e+01  1.1170939585779845e+01  1.0701610505908132e+01  9.1497559768379038e+00  1.7309209235078142e+00  1.7146631677731621e+00  1.6646630675614156e+00  1.8485338596060839e+00  1.7422517530010935e+00  1.8057664011409251e+00  1.7157091949357777e+00  1.4284220509627645e+00  2.0174114543773292e+01  1.7175348081205257e+01  1.8824043711544025e+01  1.7953775262104141e+01  1.2193529845302630e+01  1.3579626648926929e+01  1.3587222635239113e+01  1.3696356340621820e+01  1.3547485673802266e+01  1.2217168428400255e+01  1.3097237629863150e+01  1.3389299097384287e+01  8.6166253516370155e+00  9.6142394655256336e+00  9.4969333232417767e+00  8.7236957121749459e+00  8.2456634253043113e+00  8.7027714266483116e+00  8.2180455710242608e+00  8.6213664596771551e+00  6.1614130447615452e+00  4.1819869859838272e+00  6.1743651698871611e+00  4.5314880752309241e+00  5.6442392115938365e+00  4.2528176471132744e+00  6.2418323835827128e+00  4.2425616578540666e+00  6.1079664405525973e+00  5.0421358022792404e+00  6.2511699607629758e+00  4.2508947127833974e+00  6.2387899732961491e+00  4.1889690681734510e+00  6.3886579599372766e+00  4.3370122809593790e+00  8.1932964759708138e-01  7.4312234772222874e-01  7.4449223138486798e-01  8.0502362278843542e-01  2.0244461434258518e+01  4.0420204473959522e+01  4.0244739840289498e+01  6.0493047236611723e+01  6.0178854290585299e+01  8.0430599916591945e+01  7.9973038769516322e+01  1.0020494635816783e+02  9.9543397479103447e+01  1.1977443699380552e+02  1.1887462829152314e+02  1.3910641494053277e+02  1.3793848708204669e+02  1.5816789559573354e+02  1.5669989627588561e+02  1.7692322773125107e+02  1.7510805500621356e+02  1.9533328468770026e+02  1.9317943359094443e+02  2.1333246314347906e+02  2.1082554785813895e+02  2.1560884243639109e+02  2.3097699088504902e+02  2.2802291873602454e+02  2.4817820284018222e+02  2.4477532904634131e+02  2.6482960539960175e+02  2.6099533484561005e+02  2.8096953441943168e+02  2.7666935733715349e+02  2.9652432440105105e+02  2.9175994515498502e+02  3.0097208244631253e+02  3.1145476504539033e+02  3.0623528266003058e+02  3.2580925142480231e+02  3.2007865799804586e+02  3.3953179966789099e+02  3.3324813005700372e+02  3.5252425662161335e+02  3.4574937280977053e+02  3.6479921589341325e+02  3.5752702089945228e+02  3.7172617646207772e+02  3.7633787696134038e+02  3.6858025276836071e+02  3.8712910886320009e+02  3.7887465875296147e+02  3.6035819578882700e+02  3.7023132679021364e+02  3.8843305526069696e+02  3.7941170734050280e+02  3.6139074839522550e+02  3.7012264228709353e+02  3.5236221143446664e+02  3.6060892095838534e+02  3.7809203280297203e+02  3.6813815780467144e+02  3.5087194752363843e+02  3.5797718913924979e+02  3.4095034298706548e+02  3.4763516704629961e+02  3.6439547429805634e+02  3.5364456571442878e+02  3.3713435276565593e+02  3.4273791610144411e+02  3.5898365772982868e+02  3.4768320222642649e+02  3.3169391067654010e+02  3.3624657032474818e+02  3.5197630673149973e+02  3.4015864816342565e+02  3.5562531994418396e+02  3.2052894896438704e+02  3.4343749755693398e+02  3.5863835699920787e+02  3.4609177693275359e+02  3.6102580590388828e+02  3.4813111196507037e+02  3.6279864878550541e+02  3.4956648432886601e+02  3.6396645059707146e+02  3.3511850551747506e+02  3.5040787525065605e+02  3.6454223222277631e+02  3.5066728496357575e+02  3.6453841166953003e+02  3.5035779947975612e+02  3.6396781103495994e+02  3.4949148994012262e+02  3.6284444258707117e+02  3.4808271422217484e+02  3.6118149720634733e+02  3.4614479179006349e+02  3.5899420844987725e+02  3.3489283273124653e+02  3.7589875201445005e+02  5.9947520856687026e+02  3.4369110145571869e+02  3.5629742133447502e+02  3.4073977918912516e+02  3.5310643540071339e+02  5.9079417096254167e+02  3.3730487496994971e+02  3.4943736981144752e+02  5.8287071362436905e+02  3.3340257583743386e+02  3.4530650614648579e+02  3.6143429954890337e+02  3.5707195403541039e+02  3.4072996894223002e+02  3.5227015485882254e+02  3.7747166705886889e+02  3.2138775563766853e+02  3.3572629513277712e+02  3.4704773367385218e+02  3.6364375371961518e+02  3.5819903455904017e+02  3.4141805771913613e+02  3.5235473080882690e+02  3.6915766162365651e+02  3.6309827853053235e+02  3.4612619267031477e+02  3.5666206206534417e+02  3.7362693453757834e+02  3.6698382457914596e+02  3.4986411727362093e+02  3.5998163882194797e+02  3.7709825639360190e+02  3.6988141631004572e+02  3.5264230268259837e+02  3.6232743850473304e+02  3.7950575227022551e+02  3.7175683150988630e+02  3.5446378728098904e+02  3.6370101651770824e+02  3.8091227426104945e+02  3.7266629219104976e+02  3.8977821117318859e+02  3.8134223743176693e+02  3.6411758799182036e+02  3.7260257416646590e+02  3.8971174788171260e+02  3.8078219018213929e+02  3.6357564998858993e+02  3.7156339574112963e+02  3.8864103083337272e+02  3.7922857997700169e+02  3.9616278942493329e+02  3.8655504537801988e+02  4.0333329679103605e+02  3.9352844146531891e+02  3.7666941552963499e+02  3.8344059904663442e+02  4.0013404504561038e+02  3.8983991925500470e+02  4.0635731650730236e+02  3.9585215969492737e+02  4.1218409695630442e+02  4.0146197998385355e+02  4.1760009201306781e+02  4.0665446292093941e+02  3.9046223445463005e+02  3.9542542367159632e+02  4.1141498444132299e+02  3.9995548983082801e+02  4.1572093332857230e+02  4.0402270177455858e+02  4.1956820857338164e+02  4.0761620897385961e+02  4.2296302917428380e+02  4.1072070613507128e+02  4.2583843976370207e+02  4.1332796689538225e+02  4.2817823966966972e+02  4.1540581088728663e+02  4.3000446941706008e+02  4.1694848149217762e+02  4.3136060026253114e+02  4.1795175274433740e+02  4.3209958237449075e+02  4.1838182967277345e+02  4.3217233311141530e+02  4.1820673834152632e+02  4.3171522796613550e+02  4.1744506133648161e+02  4.3067250385137550e+02  4.0398916283866600e+02  4.0292741620468172e+02  3.8957383282584732e+02  3.8821290708238399e+02  3.7500625799237167e+02  3.7335755966310438e+02  3.6033055819398589e+02  3.5840332508669132e+02  3.4558638336005902e+02  3.4339235157628542e+02  3.5585736589520229e+02  3.3081261690699449e+02  3.9205147376477140e+02  3.4057914841005072e+02  3.5268172955163112e+02  3.3714221747643529e+02  3.4886744812768268e+02  3.3306489281830210e+02  3.4440481677363925e+02  3.2833786582248280e+02  3.3928578181506452e+02  3.2296438805290944e+02  3.1230384936295468e+02  3.3350598444775301e+02  3.0669179731419149e+02  2.9633995801694823e+02  2.9050293931448425e+02  2.8047839406290569e