<?xml version="1.0"?>
<VTKFile type="UnstructuredGrid"  version="0.1"  >
<UnstructuredGrid>
<Piece  NumberOfPoints="11902" NumberOfCells="23402">
<Points>
<DataArray  type="Float64"  NumberOfComponents="3"  format="ascii">-5 -5 0  5 -5 0  5 5 0  -5 5 0  1.434417045319396 5.265737592999093e-06 0  -4.9 -5 0  -4.8 -5 0  -4.7 -5 0  -4.6 -5 0  -4.5 -5 0  -4.4 -5 0  -4.3 -5 0  -4.2 -5 0  -4.1 -5 0  -4 -5 0  -3.9 -5 0  -3.8 -5 0  -3.7 -5 0  -3.6 -5 0  -3.5 -5 0  -3.4 -5 0  -3.3 -5 0  -3.2 -5 0  -3.1 -5 0  -3 -5 0  -2.9 -5 0  -2.8 -5 0  -2.7 -5 0  -2.6 -5 0  -2.5 -5 0  -2.4 -5 0  -2.3 -5 0  -2.2 -5 0  -2.1 -5 0  -2 -5 0  -1.9 -5 0  -1.8 -5 0  -1.7 -5 0  -1.6 -5 0  -1.5 -5 0  -1.4 -5 0  -1.3 -5 0  -1.2 -5 0  -1.1 -5 0  -1 -5 0  -0.9000000000000004 -5 0  -0.7999999999999998 -5 0  -0.7000000000000002 -5 0  -0.5999999999999996 -5 0  -0.5 -5 0  -0.4000000000000004 -5 0  -0.2999999999999998 -5 0  -0.2000000000000002 -5 0  -0.09999999999999964 -5 0  0 -5 0  0.09999999999999964 -5 0  0.2000000000000002 -5 0  0.2999999999999998 -5 0  0.4000000000000004 -5 0  0.5 -5 0  0.5999999999999996 -5 0  0.7000000000000002 -5 0  0.7999999999999998 -5 0  0.9000000000000004 -5 0  1 -5 0  1.1 -5 0  1.2 -5 0  1.3 -5 0  1.4 -5 0  1.5 -5 0  1.6 -5 0  1.7 -5 0  1.8 -5 0  1.9 -5 0  2 -5 0  2.1 -5 0  2.2 -5 0  2.3 -5 0  2.4 -5 0  2.5 -5 0  2.6 -5 0  2.7 -5 0  2.8 -5 0  2.9 -5 0  3 -5 0  3.1 -5 0  3.199999999999999 -5 0  3.300000000000001 -5 0  3.4 -5 0  3.5 -5 0  3.6 -5 0  3.699999999999999 -5 0  3.800000000000001 -5 0  3.9 -5 0  4 -5 0  4.1 -5 0  4.199999999999999 -5 0  4.300000000000001 -5 0  4.4 -5 0  4.5 -5 0  4.6 -5 0  4.699999999999999 -5 0  4.800000000000001 -5 0  4.9 -5 0  5 -4.9 0  5 -4.8 0  5 -4.7 0  5 -4.6 0  5 -4.5 0  5 -4.4 0  5 -4.3 0  5 -4.2 0  5 -4.1 0  5 -4 0  5 -3.9 0  5 -3.8 0  5 -3.7 0  5 -3.6 0  5 -3.5 0  5 -3.4 0  5 -3.3 0  5 -3.2 0  5 -3.1 0  5 -3 0  5 -2.9 0  5 -2.8 0  5 -2.7 0  5 -2.6 0  5 -2.5 0  5 -2.4 0  5 -2.3 0  5 -2.2 0  5 -2.1 0  5 -2 0  5 -1.9 0  5 -1.8 0  5 -1.7 0  5 -1.6 0  5 -1.5 0  5 -1.4 0  5 -1.3 0  5 -1.2 0  5 -1.1 0  5 -1 0  5 -0.9000000000000004 0  5 -0.7999999999999998 0  5 -0.7000000000000002 0  5 -0.5999999999999996 0  5 -0.5 0  5 -0.4000000000000004 0  5 -0.2999999999999998 0  5 -0.2000000000000002 0  5 -0.09999999999999964 0  5 0 0  5 0.09999999999999964 0  5 0.2000000000000002 0  5 0.2999999999999998 0  5 0.4000000000000004 0  5 0.5 0  5 0.5999999999999996 0  5 0.7000000000000002 0  5 0.7999999999999998 0  5 0.9000000000000004 0  5 1 0  5 1.1 0  5 1.2 0  5 1.3 0  5 1.4 0  5 1.5 0  5 1.6 0  5 1.7 0  5 1.8 0  5 1.9 0  5 2 0  5 2.1 0  5 2.2 0  5 2.3 0  5 2.4 0  5 2.5 0  5 2.6 0  5 2.7 0  5 2.8 0  5 2.9 0  5 3 0  5 3.1 0  5 3.199999999999999 0  5 3.300000000000001 0  5 3.4 0  5 3.5 0  5 3.6 0  5 3.699999999999999 0  5 3.800000000000001 0  5 3.9 0  5 4 0  5 4.1 0  5 4.199999999999999 0  5 4.300000000000001 0  5 4.4 0  5 4.5 0  5 4.6 0  5 4.699999999999999 0  5 4.800000000000001 0  5 4.9 0  4.9 5 0  4.8 5 0  4.7 5 0  4.6 5 0  4.5 5 0  4.4 5 0  4.3 5 0  4.2 5 0  4.1 5 0  4 5 0  3.9 5 0  3.8 5 0  3.7 5 0  3.6 5 0  3.5 5 0  3.4 5 0  3.3 5 0  3.2 5 0  3.1 5 0  3 5 0  2.9 5 0  2.8 5 0  2.7 5 0  2.6 5 0  2.5 5 0  2.4 5 0  2.3 5 0  2.2 5 0  2.1 5 0  2 5 0  1.9 5 0  1.8 5 0  1.7 5 0  1.6 5 0  1.5 5 0  1.4 5 0  1.3 5 0  1.2 5 0  1.1 5 0  1 5 0  0.9000000000000004 5 0  0.7999999999999998 5 0  0.7000000000000002 5 0  0.5999999999999996 5 0  0.5 5 0  0.4000000000000004 5 0  0.2999999999999998 5 0  0.2000000000000002 5 0  0.09999999999999964 5 0  0 5 0  -0.09999999999999964 5 0  -0.2000000000000002 5 0  -0.2999999999999998 5 0  -0.4000000000000004 5 0  -0.5 5 0  -0.5999999999999996 5 0  -0.7000000000000002 5 0  -0.7999999999999998 5 0  -0.9000000000000004 5 0  -1 5 0  -1.1 5 0  -1.2 5 0  -1.3 5 0  -1.4 5 0  -1.5 5 0  -1.6 5 0  -1.7 5 0  -1.8 5 0  -1.9 5 0  -2 5 0  -2.1 5 0  -2.2 5 0  -2.3 5 0  -2.4 5 0  -2.5 5 0  -2.6 5 0  -2.7 5 0  -2.8 5 0  -2.9 5 0  -3 5 0  -3.1 5 0  -3.199999999999999 5 0  -3.300000000000001 5 0  -3.4 5 0  -3.5 5 0  -3.6 5 0  -3.699999999999999 5 0  -3.800000000000001 5 0  -3.9 5 0  -4 5 0  -4.1 5 0  -4.199999999999999 5 0  -4.300000000000001 5 0  -4.4 5 0  -4.5 5 0  -4.6 5 0  -4.699999999999999 5 0  -4.800000000000001 5 0  -4.9 5 0  -5 4.9 0  -5 4.8 0  -5 4.7 0  -5 4.6 0  -5 4.5 0  -5 4.4 0  -5 4.3 0  -5 4.2 0  -5 4.1 0  -5 4 0  -5 3.9 0  -5 3.8 0  -5 3.7 0  -5 3.6 0  -5 3.5 0  -5 3.4 0  -5 3.3 0  -5 3.2 0  -5 3.1 0  -5 3 0  -5 2.9 0  -5 2.8 0  -5 2.7 0  -5 2.6 0  -5 2.5 0  -5 2.4 0  -5 2.3 0  -5 2.2 0  -5 2.1 0  -5 2 0  -5 1.9 0  -5 1.8 0  -5 1.7 0  -5 1.6 0  -5 1.5 0  -5 1.4 0  -5 1.3 0  -5 1.2 0  -5 1.1 0  -5 1 0  -5 0.9000000000000004 0  -5 0.7999999999999998 0  -5 0.7000000000000002 0  -5 0.5999999999999996 0  -5 0.5 0  -5 0.4000000000000004 0  -5 0.2999999999999998 0  -5 0.2000000000000002 0  -5 0.09999999999999964 0  -5 0 0  -5 -0.09999999999999964 0  -5 -0.2000000000000002 0  -5 -0.2999999999999998 0  -5 -0.4000000000000004 0  -5 -0.5 0  -5 -0.5999999999999996 0  -5 -0.7000000000000002 0  -5 -0.7999999999999998 0  -5 -0.9000000000000004 0  -5 -1 0  -5 -1.1 0  -5 -1.2 0  -5 -1.3 0  -5 -1.4 0  -5 -1.5 0  -5 -1.6 0  -5 -1.7 0  -5 -1.8 0  -5 -1.9 0  -5 -2 0  -5 -2.1 0  -5 -2.2 0  -5 -2.3 0  -5 -2.4 0  -5 -2.5 0  -5 -2.6 0  -5 -2.7 0  -5 -2.8 0  -5 -2.9 0  -5 -3 0  -5 -3.1 0  -5 -3.199999999999999 0  -5 -3.300000000000001 0  -5 -3.4 0  -5 -3.5 0  -5 -3.6 0  -5 -3.699999999999999 0  -5 -3.800000000000001 0  -5 -3.9 0  -5 -4 0  -5 -4.1 0  -5 -4.199999999999999 0  -5 -4.300000000000001 0  -5 -4.4 0  -5 -4.5 0  -5 -4.6 0  -5 -4.699999999999999 0  -5 -4.800000000000001 0  -5 -4.9 0  1.427259640795149 0.1379280571003444 0  1.406021552166867 0.2741562702903965 0  1.374905148095895 0.4106098372325966 0  1.329935137154674 0.543579952641016 0  1.268696732505769 0.6715252666625684 0  1.195578294300919 0.7956179562319684 0  1.109433424512547 0.9117644393364461 0  1.013791511448742 1.021026139196852 0  0.9076118237356353 1.12066899685296 0  0.7919010249740975 1.20987527165226 0  0.6667930970748006 1.286225852571399 0  0.5349325802090187 1.35013578702356 0  0.3974657765257878 1.399971526523582 0  0.255637390725355 1.435037614984261 0  0.1107916711691062 1.45432139354426 0  -0.03520902518398044 1.457361525062144 0  -0.18070164920438 1.445319680967718 0  -0.3244885357394682 1.418155197155156 0  -0.46428113152828 1.375206848410955 0  -0.5991226319263314 1.318491829681208 0  -0.7276729973195244 1.24847661414504 0  -0.8481915963485792 1.16637094296366 0  -0.9589306193618511 1.072092973498346 0  -1.060363502555726 0.9672386726310626 0  -1.15216098911655 0.8548199903004581 0  -1.230554286662208 0.7342625394928277 0  -1.296316583893903 0.6074908571096804 0  -1.351822818981498 0.4771153608897196 0  -1.390808320021163 0.3428247724520883 0  -1.416883087547465 0.2069355946228298 0  -1.429657959440487 0.06927812261798202 0  -1.428429544748045 -0.06844646969636714 0  -1.414793409609959 -0.2058625879389232 0  -1.388197703248795 -0.3429440771993892 0  -1.348525378658516 -0.4779545418245669 0  -1.296216279465146 -0.6089301559875171 0  -1.230877754843436 -0.7354110255746857 0  -1.153129427244557 -0.8561379096003657 0  -1.06153501851069 -0.9684652413452497 0  -0.9601254765395502 -1.072702923355901 0  -0.8495183514796213 -1.167371620447296 0  -0.7284502418137492 -1.250186973933975 0  -0.5990572802701375 -1.32014362101382 0  -0.4641539194645851 -1.376148482321745 0  -0.3249240073136086 -1.420046095139269 0  -0.1812049670732676 -1.446966982230036 0  -0.03551150347799056 -1.458300911867082 0  0.1105266527546706 -1.454627614699755 0  0.2554557060045924 -1.4349733127349 0  0.3975824759008018 -1.399727081485454 0  0.5353160638506359 -1.350261150073317 0  0.6665553572906138 -1.286093751276209 0  0.7902856845350301 -1.208717891567344 0  0.9067528894523263 -1.12083908415106 0  1.014207766081008 -1.021490821397454 0  1.111234029189718 -0.9129202215365623 0  1.195484255447417 -0.7958070401836466 0  1.2686400321212 -0.6721058955370594 0  1.328656714932863 -0.5434274034690505 0  1.373991473081988 -0.4104213380566862 0  1.40717041135234 -0.2752134207010596 0  1.42606156336746 -0.1381329866722394 0  -2.447890124653628 4.918717157961946 0  -2.447699792117211 -4.911111510572268 0  4.907417084046637 2.447274561958129 0  4.915822492670545 -2.448792974015124 0  2.445285597299487 -4.896437744638503 0  2.439770656249547 4.900198435374526 0  -4.907472931501035 -2.447317101513233 0  -4.907494227582441 2.44732869090381 0  -1.747995959930736 4.912292911244498 0  -1.743796324568099 -4.91567159353298 0  4.916309413248316 1.743285988693065 0  4.904199586761725 -1.746938136833985 0  -4.904567912246269 -1.746692880594002 0  -4.905462617631848 1.746449916413226 0  1.745225079376055 4.90625077173987 0  1.746545040281951 -4.894501106249563 0  -1.148500121750941 4.910703543884942 0  -1.129362432934748 -4.918418587166717 0  -4.902478190051667 -1.1470129952189 0  -4.90230763118961 1.146813203089904 0  1.143484464517411 -4.914661852574455 0  1.1484920329548 4.910661977653472 0  4.902561558327012 1.145269262877162 0  4.914222870330587 -1.151167632327788 0  -0.5465345473778098 -4.912248135582625 0  -0.5462858790430173 4.920758553856047 0  -4.899642637757053 -0.5481355100896276 0  -4.899682435444228 0.5466916068273823 0  4.898814455185929 -0.5484355635504923 0  4.911545756741153 0.5452678071207564 0  0.5422634012622778 -4.899447187107864 0  0.5510156174692782 4.917643373382047 0  -4.910080917672328 -3.047935511763159 0  4.916778387588515 3.045962845849941 0  4.909553540444157 -3.047893299269786 0  -4.910961028924077 3.045033429552151 0  3.054576974321843 -4.91757089473462 0  -3.047849256759111 -4.911559039378268 0  3.051436521881079 4.913606923163211 0  -3.047330676977702 4.912430734909469 0  -4.898156640138025 -0.04985159557535235 0  0.04511147046765296 -4.91429796451405 0  0.04954702060475941 4.921169060330055 0  4.90580810120296 -0.05123806590381012 0  3.544942175304052 -4.919060594271567 0  -3.54820623516529 4.911982606510296 0  -3.548194254266504 -4.911974000970
[...]
<PointData  Scalars="f_26"> 
<DataArray  type="Float64"  Name="f_26"  format="ascii">0.0000000000000000e+00  0.0000000000000000e+00  0.0000000000000000e+00  0.0000000000000000e+00  6.3357146110232293e+02  0.0000000000000000e+00  0.0000000000000000e+00  0.0000000000000000e+00  0.0000000000000000e+00  0.0000000000000000e+00  0.0000000000000000e+00  0.0000000000000000e+00  0.0000000000000000e+00  0.0000000000000000e+00  0.0000000000000000e+00  0.0000000000000000e+00  0.0000000000000000e+00  0.0000000000000000e+00  0.0000000000000000e+00  0.0000000000000000e+00  0.0000000000000000e+00  0.0000000000000000e+00  0.0000000000000000e+00  0.0000000000000000e+00  0.0000000000000000e+00  0.0000000000000000e+00  0.0000000000000000e+00  0.0000000000000000e+00  0.0000000000000000e+00  0.0000000000000000e+00  0.0000000000000000e+00  0.0000000000000000e+00  0.0000000000000000e+00  0.0000000000000000e+00  0.0000000000000000e+00  0.0000000000000000e+00  0.0000000000000000e+00  0.0000000000000000e+00  0.0000000000000000e+00  0.0000000000000000e+00  0.0000000000000000e+00  0.0000000000000000e+00  0.0000000000000000e+00  0.0000000000000000e+00  0.0000000000000000e+00  0.0000000000000000e+00  0.0000000000000000e+00  0.0000000000000000e+00  0.0000000000000000e+00  0.0000000000000000e+00  0.0000000000000000e+00  0.0000000000000000e+00  0.0000000000000000e+00  0.0000000000000000e+00  0.0000000000000000e+00  0.0000000000000000e+00  0.0000000000000000e+00  0.0000000000000000e+00  0.0000000000000000e+00  0.0000000000000000e+00  0.0000000000000000e+00  0.0000000000000000e+00  0.0000000000000000e+00  0.0000000000000000e+00  0.0000000000000000e+00  0.0000000000000000e+00  0.0000000000000000e+00  0.0000000000000000e+00  0.0000000000000000e+00  0.0000000000000000e+00  0.0000000000000000e+00  0.0000000000000000e+00  0.0000000000000000e+00  0.0000000000000000e+00  0.0000000000000000e+00  0.0000000000000000e+00  0.0000000000000000e+00  0.0000000000000000e+00  0.0000000000000000e+00  0.0000000000000000e+00  0.0000000000000000e+00  0.0000000000000000e+00  0.0000000000000000e+00  0.0000000000000000e+00  0.0000000000000000e+00  0.0000000000000000e+00  0.0000000000000000e+00  0.0000000000000000e+00  0.0000000000000000e+00  0.0000000000000000e+00  0.0000000000000000e+00  0.0000000000000000e+00  0.0000000000000000e+00  0.0000000000000000e+00  0.0000000000000000e+00  0.0000000000000000e+00  0.0000000000000000e+00  0.0000000000000000e+00  0.0000000000000000e+00  0.0000000000000000e+00  0.0000000000000000e+00  0.0000000000000000e+00  0.0000000000000000e+00  0.0000000000000000e+00  0.0000000000000000e+00  0.0000000000000000e+00  0.0000000000000000e+00  0.0000000000000000e+00  0.0000000000000000e+00  0.0000000000000000e+00  0.0000000000000000e+00  0.0000000000000000e+00  0.0000000000000000e+00  0.0000000000000000e+00  0.0000000000000000e+00  0.0000000000000000e+00  0.0000000000000000e+00  0.0000000000000000e+00  0.0000000000000000e+00  0.0000000000000000e+00  0.0000000000000000e+00  0.0000000000000000e+00  0.0000000000000000e+00  0.0000000000000000e+00  0.0000000000000000e+00  0.0000000000000000e+00  0.0000000000000000e+00  0.0000000000000000e+00  0.0000000000000000e+00  0.0000000000000000e+00  0.0000000000000000e+00  0.0000000000000000e+00  0.0000000000000000e+00  0.0000000000000000e+00  0.0000000000000000e+00  0.0000000000000000e+00  0.0000000000000000e+00  0.0000000000000000e+00  0.0000000000000000e+00  0.0000000000000000e+00  0.0000000000000000e+00  0.0000000000000000e+00  0.0000000000000000e+00  0.0000000000000000e+00  0.0000000000000000e+00  0.0000000000000000e+00  0.0000000000000000e+00  0.0000000000000000e+00  0.0000000000000000e+00  0.0000000000000000e+00  0.0000000000000000e+00  0.0000000000000000e+00  0.0000000000000000e+00  0.0000000000000000e+00  0.0000000000000000e+00  0.0000000000000000e+00  0.0000000000000000e+00  0.0000000000000000e+00  0.0000000000000000e+00  0.0000000000000000e+00  0.0000000000000000e+00  0.0000000000000000e+00  0.0000000000000000e+00  0.0000000000000000e+00  0.0000000000000000e+00  0.0000000000000000e+00  0.0000000000000000e+00  0.0000000000000000e+00  0.0000000000000000e+00  0.0000000000000000e+00  0.0000000000000000e+00  0.0000000000000000e+00  0.0000000000000000e+00  0.0000000000000000e+00  0.0000000000000000e+00  0.0000000000000000e+00  0.0000000000000000e+00  0.0000000000000000e+00  0.0000000000000000e+00  0.0000000000000000e+00  0.0000000000000000e+00  0.0000000000000000e+00  0.0000000000000000e+00  0.0000000000000000e+00  0.0000000000000000e+00  0.0000000000000000e+00  0.0000000000000000e+00  0.0000000000000000e+00  0.0000000000000000e+00  0.0000000000000000e+00  0.0000000000000000e+00  0.0000000000000000e+00  0.0000000000000000e+00  0.0000000000000000e+00  0.0000000000000000e+00  0.0000000000000000e+00  0.0000000000000000e+00  0.0000000000000000e+00  0.0000000000000000e+00  0.0000000000000000e+00  0.0000000000000000e+00  0.0000000000000000e+00  0.0000000000000000e+00  0.0000000000000000e+00  0.0000000000000000e+00  0.0000000000000000e+00  0.0000000000000000e+00  0.0000000000000000e+00  0.0000000000000000e+00  0.0000000000000000e+00  0.0000000000000000e+00  0.0000000000000000e+00  0.0000000000000000e+00  0.0000000000000000e+00  0.0000000000000000e+00  0.0000000000000000e+00  0.0000000000000000e+00  0.0000000000000000e+00  0.0000000000000000e+00  0.0000000000000000e+00  0.0000000000000000e+00  0.0000000000000000e+00  0.0000000000000000e+00  0.0000000000000000e+00  0.0000000000000000e+00  0.0000000000000000e+00  0.0000000000000000e+00  0.0000000000000000e+00  0.0000000000000000e+00  0.0000000000000000e+00  0.0000000000000000e+00  0.0000000000000000e+00  0.0000000000000000e+00  0.0000000000000000e+00  0.0000000000000000e+00  0.0000000000000000e+00  0.0000000000000000e+00  0.0000000000000000e+00  0.0000000000000000e+00  0.0000000000000000e+00  0.0000000000000000e+00  0.0000000000000000e+00  0.0000000000000000e+00  0.0000000000000000e+00  0.0000000000000000e+00  0.0000000000000000e+00  0.0000000000000000e+00  0.0000000000000000e+00  0.0000000000000000e+00  0.0000000000000000e+00  0.0000000000000000e+00  0.0000000000000000e+00  0.0000000000000000e+00  0.0000000000000000e+00  0.0000000000000000e+00  0.0000000000000000e+00  0.0000000000000000e+00  0.0000000000000000e+00  0.0000000000000000e+00  0.0000000000000000e+00  0.0000000000000000e+00  0.0000000000000000e+00  0.0000000000000000e+00  0.0000000000000000e+00  0.0000000000000000e+00  0.0000000000000000e+00  0.0000000000000000e+00  0.0000000000000000e+00  0.0000000000000000e+00  0.0000000000000000e+00  0.0000000000000000e+00  0.0000000000000000e+00  0.0000000000000000e+00  0.0000000000000000e+00  0.0000000000000000e+00  0.0000000000000000e+00  0.0000000000000000e+00  0.0000000000000000e+00  0.0000000000000000e+00  0.0000000000000000e+00  0.0000000000000000e+00  0.0000000000000000e+00  0.0000000000000000e+00  0.0000000000000000e+00  0.0000000000000000e+00  0.0000000000000000e+00  0.0000000000000000e+00  0.0000000000000000e+00  0.0000000000000000e+00  0.0000000000000000e+00  0.0000000000000000e+00  0.0000000000000000e+00  0.0000000000000000e+00  0.0000000000000000e+00  0.0000000000000000e+00  0.0000000000000000e+00  0.0000000000000000e+00  0.0000000000000000e+00  0.0000000000000000e+00  0.0000000000000000e+00  0.0000000000000000e+00  0.0000000000000000e+00  0.0000000000000000e+00  0.0000000000000000e+00  0.0000000000000000e+00  0.0000000000000000e+00  0.0000000000000000e+00  0.0000000000000000e+00  0.0000000000000000e+00  0.0000000000000000e+00  0.0000000000000000e+00  0.0000000000000000e+00  0.0000000000000000e+00  0.0000000000000000e+00  0.0000000000000000e+00  0.0000000000000000e+00  0.0000000000000000e+00  0.0000000000000000e+00  0.0000000000000000e+00  0.0000000000000000e+00  0.0000000000000000e+00  0.0000000000000000e+00  0.0000000000000000e+00  0.0000000000000000e+00  0.0000000000000000e+00  0.0000000000000000e+00  0.0000000000000000e+00  0.0000000000000000e+00  0.0000000000000000e+00  0.0000000000000000e+00  0.0000000000000000e+00  0.0000000000000000e+00  0.0000000000000000e+00  0.0000000000000000e+00  0.0000000000000000e+00  0.0000000000000000e+00  0.0000000000000000e+00  0.0000000000000000e+00  0.0000000000000000e+00  0.0000000000000000e+00  0.0000000000000000e+00  0.0000000000000000e+00  0.0000000000000000e+00  0.0000000000000000e+00  0.0000000000000000e+00  0.0000000000000000e+00  0.0000000000000000e+00  0.0000000000000000e+00  0.0000000000000000e+00  0.0000000000000000e+00  0.0000000000000000e+00  0.0000000000000000e+00  0.0000000000000000e+00  0.0000000000000000e+00  0.0000000000000000e+00  0.0000000000000000e+00  0.0000000000000000e+00  0.0000000000000000e+00  0.0000000000000000e+00  0.0000000000000000e+00  0.0000000000000000e+00  0.0000000000000000e+00  0.0000000000000000e+00  0.0000000000000000e+00  0.0000000000000000e+00  0.0000000000000000e+00  0.0000000000000000e+00  0.0000000000000000e+00  0.0000000000000000e+00  0.0000000000000000e+00  0.0000000000000000e+00  0.0000000000000000e+00  0.0000000000000000e+00  0.0000000000000000e+00  0.0000000000000000e+00  0.0000000000000000e+00  0.0000000000000000e+00  0.0000000000000000e+00  0.0000000000000000e+00  0.0000000000000000e+00  0.0000000000000000e+00  0.0000000000000000e+00  0.0000000000000000e+00  0.0000000000000000e+00  0.0000000000000000e+00  0.0000000000000000e+00  0.0000000000000000e+00  0.0000000000000000e+00  0.0000000000000000e+00  0.0000000000000000e+00  0.0000000000000000e+00  0.0000000000000000e+00  0.0000000000000000e+00  0.0000000000000000e+00  0.0000000000000000e+00  0.0000000000000000e+00  0.0000000000000000e+00  0.0000000000000000e+00  0.0000000000000000e+00  0.0000000000000000e+00  0.0000000000000000e+00  6.3333207100030131e+02  6.3263532816813915e+02  6.3143930290218748e+02  6.2972977265885902e+02  6.2747233951538226e+02  6.2510104343454577e+02  6.2260004952150211e+02  6.1968720355377229e+02  6.1674659466117646e+02  6.1380655547157539e+02  6.1117097493992640e+02  6.0882003734113584e+02  6.0682329376740518e+02  6.0537094885080000e+02  6.0457796013467612e+02  6.0448835997479603e+02  6.0502135728365818e+02  6.0608544701602398e+02  6.0774727481567334e+02  6.0982957705368938e+02  6.1234328568408705e+02  6.1495590504787071e+02  6.1780215264350568e+02  6.2076620083076978e+02  6.2345662336626731e+02  6.2611098470795673e+02  6.2837895599830813e+02  6.3000400729335365e+02  6.3135156723250088e+02  6.3238292240506178e+02  6.3321067489819586e+02  6.3334740425010796e+02  6.3282800048906859e+02  6.3201783137214568e+02  6.3033516063236425e+02  6.2825694978531169e+02  6.2604108451190370e+02  6.2340682553057820e+02  6.2070372898214055e+02  6.1780313804850493e+02  6.1499795087155940e+02  6.1241887790164935e+02  6.0996323773342215e+02  6.0786995163670088e+02  6.0607551150221127e+02  6.0507409205675026e+02  6.0460055300478609e+02  6.0480134894466539e+02  6.0569221477288806e+02  6.0711687683692878e+02  6.0900595889226031e+02  6.1141090339875427e+02  6.1406954904709960e+02  6.1684825299156410e+02  6.1981484500903275e+02  6.2259633971507321e+02  6.2537472711580676e+02  6.2775536248682954e+02  6.2969784368181183e+02  6.3137882055869079e+02  6.3247832857987805e+02  6.3344116655902019e+02  1.0988492122395424e+01  1.2008794157170538e+01  1.3157790039299453e+01  1.1961203956724523e+01  1.4029567534073159e+01  1.3525621335940208e+01  1.3125758701122693e+01  1.3119605653482068e+01  1.4026349185148540e+01  1.3503278093100928e+01  1.4409671528639304e+01  1.6482447299046370e+01  1.6387450852055586e+01  1.6233586948443207e+01  1.5013061365285305e+01  1.6897326534933633e+01  1.5632943190267442e+01  1.4308336021443635e+01  1.8643041720401783e+01  1.8674090129068283e+01  1.4959657766513672e+01  1.5644388663447076e+01  1.8667853064585778e+01  1.6422498094378366e+01  1.6157068552302334e+01  1.4583727575088302e+01  2.0405819017910549e+01  2.0398937560468564e+01  2.0616070470434416e+01  1.8026323643653523e+01  1.8522511893896020e+01  1.5158550342828613e+01  1.0055167433142122e+01  9.3306921598840979e+00  1.0133615738479568e+01  9.9670352216270928e+00  8.9300096675583944e+00  9.6130947677237550e+00  9.3801710628954140e+00  9.5030259901083536e+00  2.1084417226715686e+01  1.6008933232021839e+01  1.4717334805540068e+01  1.9541396872607351e+01  6.7660771735560035e+00  7.3298284935727658e+00  7.3260741678856336e+00  6.9500149515201013e+00  7.5401503774804643e+00  7.3604394572894076e+00  7.4133957052206902e+00  7.1775709597050206e+00  5.3317743333855896e+00  6.0046762771691942e+00  5.3928264206333525e+00  5.4630458103766557e+00  4.9974274097105402e+00  5.4710478021924844e+00  5.2877115478491925e+00  5.3913886930631953e+00  3.9400132314535474e+00  3.0920999073618889e+00  2.8392120372579002e+00  3.3836222865722085e+00  3.3298993742927427e+00  3.3314560087823524e+00  3.2925278576908235e+00  3.4911904195641532e+00  2.0973372611296824e+01  1.6646955904102413e+01  1.5498916336583539e+01  1.8393320034517036e+01  1.6674473088939923e+01  1.7567985298789630e+01  1.9738396312095087e+01  1.9822074397288763e+01  1.7743645934960764e+01  1.3232087806922433e+01  1.8587910015977414e+01  1.5819123273565198e+01  1.5025756255180877e+01  1.6967748897821160e+01  1.9892145391650967e+01  1.7672551807592903e+01  1.7769590906617651e+01  1.5014270367598282e+01  1.7821525983572901e+01  1.5025081858064967e+01  1.5645434183205634e+01  1.4064106870848562e+01  1.5056118251275105e+01  1.4820178377812198e+01  1.1204088522250855e+01  1.3297640110312159e+01  1.3884400028855884e+01  1.5099994241763977e+01  1.1656360688372246e+01  1.1442459354563002e+01  1.1193974095362965e+01  1.1507561684702502e+01  1.2301762465519724e+01  1.1632094203994063e+01  1.1142727249415541e+01  9.5424522472833271e+00  1.8038860920312048e+00  1.7868992076359080e+00  1.7347497213192358e+00  1.9265577753787642e+00  1.8155785715581643e+00  1.8819614775268929e+00  1.7880573735600931e+00  1.4886238540746348e+00  2.0974459306560700e+01  1.7938783958794797e+01  1.9661190576912052e+01  1.8664697263560896e+01  1.2722058764762844e+01  1.4134129428110766e+01  1.4141866642997343e+01  1.4289894038403236e+01  1.4101521101538536e+01  1.2745942273357187e+01  1.3664340273387641e+01  1.3936937392527131e+01  8.9746642211571981e+00  1.0024386117877041e+01  9.9022120742917945e+00  9.0867818787650148e+00  8.5883732053461355e+00  9.0735658527708463e+00  8.5683349054206257e+00  8.9802871135716060e+00  6.4190940984817981e+00  4.3575238711848465e+00  6.4363178073711396e+00  4.7231371037487371e+00  5.8833355601521644e+00  4.4323911286851203e+00  6.5032950907294138e+00  4.4209282622710457e+00  6.3671970600839742e+00  5.2554414798064002e+00  6.5126913539337501e+00  4.4293876439818147e+00  6.5002061117382599e+00  4.3651397511263355e+00  6.6593814597213417e+00  4.5201940534596492e+00  8.5389143814434842e-01  7.7443182309852998e-01  7.7584752297151705e-01  8.3899363018855899e-01  2.1047324048314731e+01  4.2023555114258215e+01  4.1841806062225999e+01  6.2893366930529588e+01  6.2567917403353661e+01  8.3623294882934317e+01  8.3149442511851163e+01  1.0418452326276820e+02  1.0349936811907658e+02  1.2453395717673926e+02  1.2360198355038092e+02  1.4463784907487997e+02  1.4342812761380171e+02  1.6446210618368323e+02  1.6294152012111059e+02  1.8396986060087463e+02  1.8208954701617355e+02  2.0312062896525316e+02  2.0088949485663821e+02  2.2184636663091172e+02  2.1924955450528941e+02  2.2420447901857597e+02  2.4020580291520909e+02  2.3714549770620516e+02  2.5810684303386023e+02  2.5458138028644021e+02  2.7543882826590851e+02  2.7146641216967794e+02  2.9224190339782558e+02  2.8778661620087172e+02  3.0843952958335012e+02  3.0350312223011827e+02  3.1304736972987894e+02  3.2399107742617741e+02  3.1858293823813119e+02  3.3894690867177223e+02  3.3300869400811212e+02  3.5324878626473316e+02  3.4673678732034341e+02  3.6679468544237301e+02  3.5977304897988847e+02  3.7959761861878997e+02  3.7205984793637305e+02  3.8677600614365042e+02  3.9163795137576716e+02  3.8359621250020695e+02  4.0290394777047720e+02  3.9434619324291361e+02  3.7507017377629944e+02  3.8538262877167165e+02  4.0433329015111934e+02  3.9497699423073385e+02  3.7621270623449863e+02  3.8534059626317855e+02  3.6684574188987915e+02  3.7546867598843295e+02  3.9367734016500077e+02  3.8334714537447411e+02  3.6536241314729023e+02  3.7279922994683585e+02  3.5506187032662217e+02  3.6206053922228568e+02  3.7952290734125938e+02  3.6835784761983717e+02  3.5115411913457649e+02  3.5702803742047581e+02  3.7395886856137764e+02  3.6221797255896649e+02  3.4555253951430853e+02  3.5033243830473270e+02  3.6673000696961219e+02  3.5444629738329729e+02  3.7057228136966160e+02  3.3394838411982477e+02  3.5790149924724415e+02  3.7375296495077049e+02  3.6070677760165631e+02  3.7628257338726104e+02  3.6287186631367138e+02  3.7817223929269915e+02  3.6440790641281205e+02  3.7943162484469917e+02  3.4933498125391424e+02  3.6532499155497294e+02  3.8007396756287307e+02  3.6563531679593865e+02  3.8011188607115929e+02  3.6535220755881051e+02  3.7955841841441156e+02  3.6448793501144127e+02  3.7842784401526990e+02  3.6305715793502293e+02  3.7673359784752205e+02  3.6107346270019923e+02  3.7449124555839751e+02  3.4928631171328533e+02  3.9179547603704009e+02  6.2473451765604852e+02  3.5855050726216314e+02  3.7171597024373284e+02  3.5550692797478945e+02  3.6842344232975461e+02  6.1609829902199147e+02  3.5195711817372251e+02  3.6463020892774244e+02  6.0817363007570759e+02  3.4791772325239464e+02  3.6035301311865106e+02  3.7716183685714446e+02  3.7264365423812427e+02  3.5560846478964220e+02  3.6766439004797195e+02  3.9365448995734283e+02  3.3536679667695199e+02  3.5041571849926635e+02  3.6224351309237386e+02  3.7954594422711602e+02  3.7389307395098615e+02  3.5639483190815963e+02  3.6782020586075322e+02  3.8534061617646381e+02  3.7904291433428807e+02  3.6134327464949217e+02  3.7234869090966902e+02  3.9003996755046143e+02  3.8312909786745450e+02  3.6527369043639459e+02  3.7584008177141806e+02  3.9369131331742312e+02  3.8617723094643691e+02  3.6819584061576489e+02  3.7830784729227565e+02  3.9622462328958903e+02  3.8815052469543218e+02  3.7011193550151040e+02  3.7975276124419486e+02  3.9770459939113738e+02  3.8910696685998090e+02  4.0695357978896146e+02  3.9815617162410462e+02  3.8019019554496765e+02  3.8903866548101001e+02  4.0688229929732415e+02  3.9756513565175442e+02  3.7961844239645126e+02  3.8794329537963142e+02  4.0575335023165422e+02  3.9592805548603178e+02  4.1358614477338045e+02  4.0355574325843980e+02  4.2104862427372495e+02  4.1081130122555106e+02  3.9323309442520997e+02  4.0027661112546895e+02  4.1767932961515754e+02  4.0692849235490155e+02  4.2414466575979316e+02  4.1317289759553171e+02  4.3019259237981134e+02  4.1899390439818609e+02  4.3580830307456296e+02  4.2437607854260210e+02  4.0750438846834390e+02  4.1264723831962846e+02  4.2930433935777199e+02  4.1733520454890112e+02  4.3375534759251173e+02  4.2153751668070691e+02  4.3772504600401959e+02  4.2524312199653588e+02  4.4122020351282595e+02  4.2843635218953335e+02  4.4417138644495253e+02  4.3110897331528713e+02  4.4656205927938225e+02  4.3322779171916540e+02  4.4841558285969842e+02  4.3478717680598959e+02  4.4977761777607611e+02  4.3578310110150545e+02  4.5049536724615524e+02  4.3618074162866861e+02  4.5051814460454437e+02  4.3594718066114348e+02  4.4998838625915295e+02  4.3510215774260223e+02  4.4884841194072379e+02  4.2111409760427836e+02  4.1995854288753929e+02  4.0607541415368314e+02  4.0461033714206815e+02  3.9087864010184632e+02  3.8911599082146051e+02  3.7556989269852687e+02  3.7351932835529533e+02  3.6019060286116729e+02  3.5786438050863256e+02  3.7082466298735045e+02  3.4478139019384520e+02  4.0903465268483484e+02  3.5489369414383481e+02  3.6747479662235622e+02  3.5127408734855084e+02  3.6346068703363483e+02  3.4698848979980284e+02  3.5877251619137854e+02  3.4202748427652830e+02  3.5340217578606354e+02  3.3639471931445047e+02  3.2531770182212887e+02  3.4734539450890185e+02  3.1943901717588074e+02  3.0868194796412524e+02  3.0257148280925850e+02  2.9215378847959016e