<?xml version="1.0"?>
<VTKFile type="UnstructuredGrid"  version="0.1"  >
<UnstructuredGrid>
<Piece  NumberOfPoints="11902" NumberOfCells="23402">
<Points>
<DataArray  type="Float64"  NumberOfComponents="3"  format="ascii">-5 -5 0  5 -5 0  5 5 0  -5 5 0  1.434417045319396 5.265737592999093e-06 0  -4.9 -5 0  -4.8 -5 0  -4.7 -5 0  -4.6 -5 0  -4.5 -5 0  -4.4 -5 0  -4.3 -5 0  -4.2 -5 0  -4.1 -5 0  -4 -5 0  -3.9 -5 0  -3.8 -5 0  -3.7 -5 0  -3.6 -5 0  -3.5 -5 0  -3.4 -5 0  -3.3 -5 0  -3.2 -5 0  -3.1 -5 0  -3 -5 0  -2.9 -5 0  -2.8 -5 0  -2.7 -5 0  -2.6 -5 0  -2.5 -5 0  -2.4 -5 0  -2.3 -5 0  -2.2 -5 0  -2.1 -5 0  -2 -5 0  -1.9 -5 0  -1.8 -5 0  -1.7 -5 0  -1.6 -5 0  -1.5 -5 0  -1.4 -5 0  -1.3 -5 0  -1.2 -5 0  -1.1 -5 0  -1 -5 0  -0.9000000000000004 -5 0  -0.7999999999999998 -5 0  -0.7000000000000002 -5 0  -0.5999999999999996 -5 0  -0.5 -5 0  -0.4000000000000004 -5 0  -0.2999999999999998 -5 0  -0.2000000000000002 -5 0  -0.09999999999999964 -5 0  0 -5 0  0.09999999999999964 -5 0  0.2000000000000002 -5 0  0.2999999999999998 -5 0  0.4000000000000004 -5 0  0.5 -5 0  0.5999999999999996 -5 0  0.7000000000000002 -5 0  0.7999999999999998 -5 0  0.9000000000000004 -5 0  1 -5 0  1.1 -5 0  1.2 -5 0  1.3 -5 0  1.4 -5 0  1.5 -5 0  1.6 -5 0  1.7 -5 0  1.8 -5 0  1.9 -5 0  2 -5 0  2.1 -5 0  2.2 -5 0  2.3 -5 0  2.4 -5 0  2.5 -5 0  2.6 -5 0  2.7 -5 0  2.8 -5 0  2.9 -5 0  3 -5 0  3.1 -5 0  3.199999999999999 -5 0  3.300000000000001 -5 0  3.4 -5 0  3.5 -5 0  3.6 -5 0  3.699999999999999 -5 0  3.800000000000001 -5 0  3.9 -5 0  4 -5 0  4.1 -5 0  4.199999999999999 -5 0  4.300000000000001 -5 0  4.4 -5 0  4.5 -5 0  4.6 -5 0  4.699999999999999 -5 0  4.800000000000001 -5 0  4.9 -5 0  5 -4.9 0  5 -4.8 0  5 -4.7 0  5 -4.6 0  5 -4.5 0  5 -4.4 0  5 -4.3 0  5 -4.2 0  5 -4.1 0  5 -4 0  5 -3.9 0  5 -3.8 0  5 -3.7 0  5 -3.6 0  5 -3.5 0  5 -3.4 0  5 -3.3 0  5 -3.2 0  5 -3.1 0  5 -3 0  5 -2.9 0  5 -2.8 0  5 -2.7 0  5 -2.6 0  5 -2.5 0  5 -2.4 0  5 -2.3 0  5 -2.2 0  5 -2.1 0  5 -2 0  5 -1.9 0  5 -1.8 0  5 -1.7 0  5 -1.6 0  5 -1.5 0  5 -1.4 0  5 -1.3 0  5 -1.2 0  5 -1.1 0  5 -1 0  5 -0.9000000000000004 0  5 -0.7999999999999998 0  5 -0.7000000000000002 0  5 -0.5999999999999996 0  5 -0.5 0  5 -0.4000000000000004 0  5 -0.2999999999999998 0  5 -0.2000000000000002 0  5 -0.09999999999999964 0  5 0 0  5 0.09999999999999964 0  5 0.2000000000000002 0  5 0.2999999999999998 0  5 0.4000000000000004 0  5 0.5 0  5 0.5999999999999996 0  5 0.7000000000000002 0  5 0.7999999999999998 0  5 0.9000000000000004 0  5 1 0  5 1.1 0  5 1.2 0  5 1.3 0  5 1.4 0  5 1.5 0  5 1.6 0  5 1.7 0  5 1.8 0  5 1.9 0  5 2 0  5 2.1 0  5 2.2 0  5 2.3 0  5 2.4 0  5 2.5 0  5 2.6 0  5 2.7 0  5 2.8 0  5 2.9 0  5 3 0  5 3.1 0  5 3.199999999999999 0  5 3.300000000000001 0  5 3.4 0  5 3.5 0  5 3.6 0  5 3.699999999999999 0  5 3.800000000000001 0  5 3.9 0  5 4 0  5 4.1 0  5 4.199999999999999 0  5 4.300000000000001 0  5 4.4 0  5 4.5 0  5 4.6 0  5 4.699999999999999 0  5 4.800000000000001 0  5 4.9 0  4.9 5 0  4.8 5 0  4.7 5 0  4.6 5 0  4.5 5 0  4.4 5 0  4.3 5 0  4.2 5 0  4.1 5 0  4 5 0  3.9 5 0  3.8 5 0  3.7 5 0  3.6 5 0  3.5 5 0  3.4 5 0  3.3 5 0  3.2 5 0  3.1 5 0  3 5 0  2.9 5 0  2.8 5 0  2.7 5 0  2.6 5 0  2.5 5 0  2.4 5 0  2.3 5 0  2.2 5 0  2.1 5 0  2 5 0  1.9 5 0  1.8 5 0  1.7 5 0  1.6 5 0  1.5 5 0  1.4 5 0  1.3 5 0  1.2 5 0  1.1 5 0  1 5 0  0.9000000000000004 5 0  0.7999999999999998 5 0  0.7000000000000002 5 0  0.5999999999999996 5 0  0.5 5 0  0.4000000000000004 5 0  0.2999999999999998 5 0  0.2000000000000002 5 0  0.09999999999999964 5 0  0 5 0  -0.09999999999999964 5 0  -0.2000000000000002 5 0  -0.2999999999999998 5 0  -0.4000000000000004 5 0  -0.5 5 0  -0.5999999999999996 5 0  -0.7000000000000002 5 0  -0.7999999999999998 5 0  -0.9000000000000004 5 0  -1 5 0  -1.1 5 0  -1.2 5 0  -1.3 5 0  -1.4 5 0  -1.5 5 0  -1.6 5 0  -1.7 5 0  -1.8 5 0  -1.9 5 0  -2 5 0  -2.1 5 0  -2.2 5 0  -2.3 5 0  -2.4 5 0  -2.5 5 0  -2.6 5 0  -2.7 5 0  -2.8 5 0  -2.9 5 0  -3 5 0  -3.1 5 0  -3.199999999999999 5 0  -3.300000000000001 5 0  -3.4 5 0  -3.5 5 0  -3.6 5 0  -3.699999999999999 5 0  -3.800000000000001 5 0  -3.9 5 0  -4 5 0  -4.1 5 0  -4.199999999999999 5 0  -4.300000000000001 5 0  -4.4 5 0  -4.5 5 0  -4.6 5 0  -4.699999999999999 5 0  -4.800000000000001 5 0  -4.9 5 0  -5 4.9 0  -5 4.8 0  -5 4.7 0  -5 4.6 0  -5 4.5 0  -5 4.4 0  -5 4.3 0  -5 4.2 0  -5 4.1 0  -5 4 0  -5 3.9 0  -5 3.8 0  -5 3.7 0  -5 3.6 0  -5 3.5 0  -5 3.4 0  -5 3.3 0  -5 3.2 0  -5 3.1 0  -5 3 0  -5 2.9 0  -5 2.8 0  -5 2.7 0  -5 2.6 0  -5 2.5 0  -5 2.4 0  -5 2.3 0  -5 2.2 0  -5 2.1 0  -5 2 0  -5 1.9 0  -5 1.8 0  -5 1.7 0  -5 1.6 0  -5 1.5 0  -5 1.4 0  -5 1.3 0  -5 1.2 0  -5 1.1 0  -5 1 0  -5 0.9000000000000004 0  -5 0.7999999999999998 0  -5 0.7000000000000002 0  -5 0.5999999999999996 0  -5 0.5 0  -5 0.4000000000000004 0  -5 0.2999999999999998 0  -5 0.2000000000000002 0  -5 0.09999999999999964 0  -5 0 0  -5 -0.09999999999999964 0  -5 -0.2000000000000002 0  -5 -0.2999999999999998 0  -5 -0.4000000000000004 0  -5 -0.5 0  -5 -0.5999999999999996 0  -5 -0.7000000000000002 0  -5 -0.7999999999999998 0  -5 -0.9000000000000004 0  -5 -1 0  -5 -1.1 0  -5 -1.2 0  -5 -1.3 0  -5 -1.4 0  -5 -1.5 0  -5 -1.6 0  -5 -1.7 0  -5 -1.8 0  -5 -1.9 0  -5 -2 0  -5 -2.1 0  -5 -2.2 0  -5 -2.3 0  -5 -2.4 0  -5 -2.5 0  -5 -2.6 0  -5 -2.7 0  -5 -2.8 0  -5 -2.9 0  -5 -3 0  -5 -3.1 0  -5 -3.199999999999999 0  -5 -3.300000000000001 0  -5 -3.4 0  -5 -3.5 0  -5 -3.6 0  -5 -3.699999999999999 0  -5 -3.800000000000001 0  -5 -3.9 0  -5 -4 0  -5 -4.1 0  -5 -4.199999999999999 0  -5 -4.300000000000001 0  -5 -4.4 0  -5 -4.5 0  -5 -4.6 0  -5 -4.699999999999999 0  -5 -4.800000000000001 0  -5 -4.9 0  1.427259640795149 0.1379280571003444 0  1.406021552166867 0.2741562702903965 0  1.374905148095895 0.4106098372325966 0  1.329935137154674 0.543579952641016 0  1.268696732505769 0.6715252666625684 0  1.195578294300919 0.7956179562319684 0  1.109433424512547 0.9117644393364461 0  1.013791511448742 1.021026139196852 0  0.9076118237356353 1.12066899685296 0  0.7919010249740975 1.20987527165226 0  0.6667930970748006 1.286225852571399 0  0.5349325802090187 1.35013578702356 0  0.3974657765257878 1.399971526523582 0  0.255637390725355 1.435037614984261 0  0.1107916711691062 1.45432139354426 0  -0.03520902518398044 1.457361525062144 0  -0.18070164920438 1.445319680967718 0  -0.3244885357394682 1.418155197155156 0  -0.46428113152828 1.375206848410955 0  -0.5991226319263314 1.318491829681208 0  -0.7276729973195244 1.24847661414504 0  -0.8481915963485792 1.16637094296366 0  -0.9589306193618511 1.072092973498346 0  -1.060363502555726 0.9672386726310626 0  -1.15216098911655 0.8548199903004581 0  -1.230554286662208 0.7342625394928277 0  -1.296316583893903 0.6074908571096804 0  -1.351822818981498 0.4771153608897196 0  -1.390808320021163 0.3428247724520883 0  -1.416883087547465 0.2069355946228298 0  -1.429657959440487 0.06927812261798202 0  -1.428429544748045 -0.06844646969636714 0  -1.414793409609959 -0.2058625879389232 0  -1.388197703248795 -0.3429440771993892 0  -1.348525378658516 -0.4779545418245669 0  -1.296216279465146 -0.6089301559875171 0  -1.230877754843436 -0.7354110255746857 0  -1.153129427244557 -0.8561379096003657 0  -1.06153501851069 -0.9684652413452497 0  -0.9601254765395502 -1.072702923355901 0  -0.8495183514796213 -1.167371620447296 0  -0.7284502418137492 -1.250186973933975 0  -0.5990572802701375 -1.32014362101382 0  -0.4641539194645851 -1.376148482321745 0  -0.3249240073136086 -1.420046095139269 0  -0.1812049670732676 -1.446966982230036 0  -0.03551150347799056 -1.458300911867082 0  0.1105266527546706 -1.454627614699755 0  0.2554557060045924 -1.4349733127349 0  0.3975824759008018 -1.399727081485454 0  0.5353160638506359 -1.350261150073317 0  0.6665553572906138 -1.286093751276209 0  0.7902856845350301 -1.208717891567344 0  0.9067528894523263 -1.12083908415106 0  1.014207766081008 -1.021490821397454 0  1.111234029189718 -0.9129202215365623 0  1.195484255447417 -0.7958070401836466 0  1.2686400321212 -0.6721058955370594 0  1.328656714932863 -0.5434274034690505 0  1.373991473081988 -0.4104213380566862 0  1.40717041135234 -0.2752134207010596 0  1.42606156336746 -0.1381329866722394 0  -2.447890124653628 4.918717157961946 0  -2.447699792117211 -4.911111510572268 0  4.907417084046637 2.447274561958129 0  4.915822492670545 -2.448792974015124 0  2.445285597299487 -4.896437744638503 0  2.439770656249547 4.900198435374526 0  -4.907472931501035 -2.447317101513233 0  -4.907494227582441 2.44732869090381 0  -1.747995959930736 4.912292911244498 0  -1.743796324568099 -4.91567159353298 0  4.916309413248316 1.743285988693065 0  4.904199586761725 -1.746938136833985 0  -4.904567912246269 -1.746692880594002 0  -4.905462617631848 1.746449916413226 0  1.745225079376055 4.90625077173987 0  1.746545040281951 -4.894501106249563 0  -1.148500121750941 4.910703543884942 0  -1.129362432934748 -4.918418587166717 0  -4.902478190051667 -1.1470129952189 0  -4.90230763118961 1.146813203089904 0  1.143484464517411 -4.914661852574455 0  1.1484920329548 4.910661977653472 0  4.902561558327012 1.145269262877162 0  4.914222870330587 -1.151167632327788 0  -0.5465345473778098 -4.912248135582625 0  -0.5462858790430173 4.920758553856047 0  -4.899642637757053 -0.5481355100896276 0  -4.899682435444228 0.5466916068273823 0  4.898814455185929 -0.5484355635504923 0  4.911545756741153 0.5452678071207564 0  0.5422634012622778 -4.899447187107864 0  0.5510156174692782 4.917643373382047 0  -4.910080917672328 -3.047935511763159 0  4.916778387588515 3.045962845849941 0  4.909553540444157 -3.047893299269786 0  -4.910961028924077 3.045033429552151 0  3.054576974321843 -4.91757089473462 0  -3.047849256759111 -4.911559039378268 0  3.051436521881079 4.913606923163211 0  -3.047330676977702 4.912430734909469 0  -4.898156640138025 -0.04985159557535235 0  0.04511147046765296 -4.91429796451405 0  0.04954702060475941 4.921169060330055 0  4.90580810120296 -0.05123806590381012 0  3.544942175304052 -4.919060594271567 0  -3.54820623516529 4.911982606510296 0  -3.548194254266504 -4.911974000970
[...]
<PointData  Vectors="f_1354"> 
<DataArray  type="Float64"  Name="f_1354"  NumberOfComponents="3" format="ascii">-9.4580617005190548e-02 -1.1031871441100174e-01 0.0000000000000000e+00  1.0369120413265695e-01 -8.7697734327751312e-02 0.0000000000000000e+00  6.0131938730820643e-02 7.0198696975019625e-02 0.0000000000000000e+00  -9.9403803769740992e-02 1.1344975413635139e-01 0.0000000000000000e+00  6.9439240640760374e+01 -2.6845700394527466e-01 0.0000000000000000e+00  3.6492512743042389e-02 -8.3186770489949191e-01 0.0000000000000000e+00  2.9985780630398667e-02 -1.3509060422672894e+00 0.0000000000000000e+00  3.2533010279715939e-02 -2.2294629097932992e+00 0.0000000000000000e+00  2.4681186487847818e-02 -2.7560383444906380e+00 0.0000000000000000e+00  -6.0575917440318774e-02 -3.5818549700051605e+00 0.0000000000000000e+00  1.2294838987475900e-02 -4.3988716888827044e+00 0.0000000000000000e+00  2.1306848606261843e-02 -5.0169858847236686e+00 0.0000000000000000e+00  -1.0119767790337899e-02 -5.7700295665281196e+00 0.0000000000000000e+00  3.7363377803200898e-02 -6.3607387609835602e+00 0.0000000000000000e+00  3.8513250720879542e-02 -7.2201811239285796e+00 0.0000000000000000e+00  -5.8945164570498735e-03 -7.7935376195870099e+00 0.0000000000000000e+00  -1.0359893694796863e-02 -8.5490156205736056e+00 0.0000000000000000e+00  4.4868916613842015e-03 -9.2850964403825067e+00 0.0000000000000000e+00  3.2156628328814637e-03 -9.9807077498343713e+00 0.0000000000000000e+00  -4.0516506235901530e-03 -1.0688434006855800e+01 0.0000000000000000e+00  2.1083836873728224e-03 -1.1427403836601606e+01 0.0000000000000000e+00  1.4897896769920057e-02 -1.2139047864020151e+01 0.0000000000000000e+00  -9.9822695490712002e-04 -1.2703136643102971e+01 0.0000000000000000e+00  -5.5604237023966939e-03 -1.3486215191816209e+01 0.0000000000000000e+00  -2.0366669717442467e-02 -1.4268317573300360e+01 0.0000000000000000e+00  5.2627244433995288e-02 -1.4821652866701815e+01 0.0000000000000000e+00  2.3164086212562471e-02 -1.5617568284811949e+01 0.0000000000000000e+00  2.7646014901280585e-02 -1.6137873849448034e+01 0.0000000000000000e+00  4.5533239141210886e-02 -1.6908403318123540e+01 0.0000000000000000e+00  -2.0726616105051054e-02 -1.7444766515332809e+01 0.0000000000000000e+00  -7.6902078612004938e-03 -1.8187409167806834e+01 0.0000000000000000e+00  -3.3055145676841378e-03 -1.8878409438039995e+01 0.0000000000000000e+00  3.5254454753607521e-02 -1.9369126860848422e+01 0.0000000000000000e+00  2.4258387586713684e-02 -2.0112513275919191e+01 0.0000000000000000e+00  2.5773404301142430e-02 -2.0554505848671283e+01 0.0000000000000000e+00  -5.5417046437674075e-02 -2.1230583013261565e+01 0.0000000000000000e+00  2.3413968351628883e-02 -2.1863983541298058e+01 0.0000000000000000e+00  3.6814807905406742e-03 -2.2324314870203306e+01 0.0000000000000000e+00  -8.5352708198175697e-04 -2.2842437987257490e+01 0.0000000000000000e+00  -8.5215069114351555e-04 -2.3339849164225978e+01 0.0000000000000000e+00  4.2153890453829916e-03 -2.3815342958502335e+01 0.0000000000000000e+00  -2.5202178435338420e-02 -2.4307653610190492e+01 0.0000000000000000e+00  3.1281686999677691e-02 -2.4681537142605343e+01 0.0000000000000000e+00  1.6320508223981820e-02 -2.5067834164350877e+01 0.0000000000000000e+00  1.2253355616827038e-02 -2.5464563445724181e+01 0.0000000000000000e+00  -7.4144262082265679e-03 -2.5807438916354663e+01 0.0000000000000000e+00  2.9885603881831393e-02 -2.6043095935384770e+01 0.0000000000000000e+00  -2.1575941029612952e-02 -2.6362425695888923e+01 0.0000000000000000e+00  1.1816004246909319e-02 -2.6626046064099071e+01 0.0000000000000000e+00  -2.5064660817647674e-03 -2.6788855283723812e+01 0.0000000000000000e+00  8.9625710624988261e-04 -2.6961953054050142e+01 0.0000000000000000e+00  -5.9378233566401975e-04 -2.7091469855552884e+01 0.0000000000000000e+00  3.1365243476798223e-04 -2.7184884880957846e+01 0.0000000000000000e+00  1.5632140253969484e-04 -2.7241076123974526e+01 0.0000000000000000e+00  1.2943179007481886e-03 -2.7260397036501374e+01 0.0000000000000000e+00  6.1181947258856268e-04 -2.7249503313726368e+01 0.0000000000000000e+00  5.3242962936504937e-03 -2.7189129207098755e+01 0.0000000000000000e+00  -7.7734861532626634e-03 -2.7076295263568934e+01 0.0000000000000000e+00  -3.4015185675930304e-03 -2.6977766198178266e+01 0.0000000000000000e+00  -1.4938455782717351e-02 -2.6776726852638490e+01 0.0000000000000000e+00  4.7549870628669022e-03 -2.6612402567032309e+01 0.0000000000000000e+00  4.3539125007841292e-03 -2.6364366939836131e+01 0.0000000000000000e+00  -3.2695153941598555e-03 -2.6082675489829409e+01 0.0000000000000000e+00  -6.5337946409708600e-04 -2.5788923638107175e+01 0.0000000000000000e+00  3.6809604542373227e-03 -2.5450333783426856e+01 0.0000000000000000e+00  -8.1572144648355341e-03 -2.5084169413942188e+01 0.0000000000000000e+00  -5.8857794512621360e-03 -2.4676070192490446e+01 0.0000000000000000e+00  6.3363527976165292e-03 -2.4308391992141306e+01 0.0000000000000000e+00  -1.3725311360092692e-02 -2.3820649867729326e+01 0.0000000000000000e+00  1.5984695370421971e-02 -2.3339978257597753e+01 0.0000000000000000e+00  -2.0528828515715851e-02 -2.2849383733694701e+01 0.0000000000000000e+00  2.8863601448358453e-03 -2.2302924388291444e+01 0.0000000000000000e+00  1.0272103257308500e-02 -2.1809883086027774e+01 0.0000000000000000e+00  -1.4006997347535662e-02 -2.1228682111889714e+01 0.0000000000000000e+00  1.0094520175399158e-02 -2.0634610665720523e+01 0.0000000000000000e+00  -7.8215806133112558e-03 -2.0036838687197552e+01 0.0000000000000000e+00  3.2066492356542038e-03 -1.9438683750618949e+01 0.0000000000000000e+00  -1.3250889881122283e-02 -1.8825221174877715e+01 0.0000000000000000e+00  -5.4132857989663266e-03 -1.8157274363104023e+01 0.0000000000000000e+00  6.6760464018907860e-03 -1.7602930649582341e+01 0.0000000000000000e+00  2.2907706180682981e-03 -1.6902110878212735e+01 0.0000000000000000e+00  5.0756663030146259e-03 -1.6221611294832378e+01 0.0000000000000000e+00  -1.9183519543386603e-02 -1.5562896924577140e+01 0.0000000000000000e+00  -7.8454709578720996e-03 -1.4816140399443931e+01 0.0000000000000000e+00  1.2864108389133478e-02 -1.4206900294222720e+01 0.0000000000000000e+00  -1.8410151107411822e-02 -1.3465237726414042e+01 0.0000000000000000e+00  4.7900979144695601e-04 -1.2802043769305117e+01 0.0000000000000000e+00  8.0981546752505948e-03 -1.2124769712646948e+01 0.0000000000000000e+00  7.8352044377741747e-03 -1.1378691996451105e+01 0.0000000000000000e+00  -2.2465270200967224e-02 -1.0702445143415986e+01 0.0000000000000000e+00  4.1563793567098942e-03 -9.9465872109757694e+00 0.0000000000000000e+00  5.3254234758533794e-03 -9.3092464271486062e+00 0.0000000000000000e+00  -1.7465164227346466e-02 -8.5448166083181185e+00 0.0000000000000000e+00  -2.8545452675934234e-04 -7.8646891472785549e+00 0.0000000000000000e+00  9.6747885001694789e-03 -7.1331064648553255e+00 0.0000000000000000e+00  -5.3303648437932091e-04 -6.4101871795462602e+00 0.0000000000000000e+00  -9.4371444187426965e-03 -5.7132802767350856e+00 0.0000000000000000e+00  -7.3404971468072934e-03 -4.9700609883839029e+00 0.0000000000000000e+00  1.4421926031911236e-02 -4.3357249708395766e+00 0.0000000000000000e+00  -2.1375027080420366e-02 -3.5680152440612671e+00 0.0000000000000000e+00  5.2998447087335334e-03 -2.8695439063333890e+00 0.0000000000000000e+00  1.1821363126935058e-02 -2.1359451074393152e+00 0.0000000000000000e+00  -1.8317070748621593e-02 -1.4181636338813894e+00 0.0000000000000000e+00  -2.2814944911737769e-02 -8.2114468552604769e-01 0.0000000000000000e+00  8.5441561293716872e-01 2.0814798440345263e-02 0.0000000000000000e+00  1.3710776189209366e+00 5.1987474274288618e-02 0.0000000000000000e+00  2.2057699870140004e+00 3.8738024608106304e-02 0.0000000000000000e+00  2.8187333682459457e+00 -1.1982338666529199e-02 0.0000000000000000e+00  3.5820422226913387e+00 5.4697948320931028e-03 0.0000000000000000e+00  4.2844148332831722e+00 -4.0444900608929942e-03 0.0000000000000000e+00  4.9963926830258911e+00 7.0908705979672558e-04 0.0000000000000000e+00  5.7110995901231618e+00 -1.2512727727039461e-03 0.0000000000000000e+00  6.4202704281577567e+00 3.4007592259750795e-04 0.0000000000000000e+00  7.1451559289608362e+00 -3.9245391278339788e-04 0.0000000000000000e+00  7.8465542163232129e+00 8.3805088221021239e-06 0.0000000000000000e+00  8.5653396276474218e+00 2.4077218964266003e-03 0.0000000000000000e+00  9.2535349858938538e+00 1.0201102782937158e-03 0.0000000000000000e+00  9.9887253407629917e+00 -5.0690829350176761e-03 0.0000000000000000e+00  1.0677917609290462e+01 2.6681797404088971e-03 0.0000000000000000e+00  1.1406202915795195e+01 1.7417260009599813e-03 0.0000000000000000e+00  1.2087784634218766e+01 -1.9691481465769836e-03 0.0000000000000000e+00  1.2776415188736049e+01 4.8710580647522385e-03 0.0000000000000000e+00  1.3495894299000788e+01 -5.1223443348383090e-03 0.0000000000000000e+00  1.4164915769113970e+01 -2.9250476013039542e-03 0.0000000000000000e+00  1.4865537601415419e+01 6.3614724674002764e-03 0.0000000000000000e+00  1.5550453732272267e+01 -7.2564500616162184e-03 0.0000000000000000e+00  1.6184601285262790e+01 5.5671738221398804e-03 0.0000000000000000e+00  1.6861230236021623e+01 1.2218511418778436e-03 0.0000000000000000e+00  1.7528926959446345e+01 3.1514576390935869e-03 0.0000000000000000e+00  1.8183017458779513e+01 -2.3251045239679846e-03 0.0000000000000000e+00  1.8813037890256577e+01 -1.4205816259859872e-03 0.0000000000000000e+00  1.9424258572307746e+01 -9.9413376757924183e-04 0.0000000000000000e+00  2.0030161886843782e+01 3.6849717714865511e-05 0.0000000000000000e+00  2.0621325930969249e+01 -2.5311212747933676e-04 0.0000000000000000e+00  2.1196357886719753e+01 1.0302412146890183e-04 0.0000000000000000e+00  2.1752730074272097e+01 -1.4603254042796685e-03 0.0000000000000000e+00  2.2283999236905728e+01 -3.6304075867052286e-04 0.0000000000000000e+00  2.2809694499088341e+01 2.6697796223491060e-03 0.0000000000000000e+00  2.3312671599440474e+01 -4.5267466865687271e-03 0.0000000000000000e+00  2.3760400883643783e+01 5.0024570283675922e-03 0.0000000000000000e+00  2.4212776323163332e+01 -3.1297986360484710e-04 0.0000000000000000e+00  2.4629667100850799e+01 5.5441447045523635e-03 0.0000000000000000e+00  2.5015397184136425e+01 6.1917809025786447e-03 0.0000000000000000e+00  2.5399020260037322e+01 -1.9856118086049559e-02 0.0000000000000000e+00  2.5757846787944096e+01 1.4252376661510101e-02 0.0000000000000000e+00  2.6028585530979100e+01 -6.1878662128811461e-03 0.0000000000000000e+00  2.6307249540923202e+01 8.2155739034523194e-04 0.0000000000000000e+00  2.6543361793823422e+01 -2.0094421796022542e-03 0.0000000000000000e+00  2.6733436133075010e+01 4.5308538325756799e-03 0.0000000000000000e+00  2.6898091537207758e+01 -7.5684557744508049e-04 0.0000000000000000e+00  2.7031732000070793e+01 3.5365936405984286e-04 0.0000000000000000e+00  2.7126154273496585e+01 -5.0806640519504695e-04 0.0000000000000000e+00  2.7182977878534896e+01 -2.3055713949837029e-04 0.0000000000000000e+00  2.7200675309840022e+01 5.2232225052067677e-04 0.0000000000000000e+00  2.7182496618937236e+01 3.7238469293136996e-04 0.0000000000000000e+00  2.7129070941381038e+01 -1.0906516470656010e-03 0.0000000000000000e+00  2.7034871531545868e+01 1.2200855975971448e-03 0.0000000000000000e+00  2.6904441871648494e+01 8.5995938894615977e-05 0.0000000000000000e+00  2.6744204871309520e+01 -2.1281699585141019e-03 0.0000000000000000e+00  2.6540826065878250e+01 2.4940696056775166e-03 0.0000000000000000e+00  2.6301575437586305e+01 -1.1996024838176993e-04 0.0000000000000000e+00  2.6035566055702034e+01 -2.8531442910294694e-03 0.0000000000000000e+00  2.5725226445086662e+01 3.8109323243566028e-04 0.0000000000000000e+00  2.5398509776464934e+01 1.4740046984972231e-03 0.0000000000000000e+00  2.5034923057497718e+01 -1.9990914285066808e-03 0.0000000000000000e+00  2.4656293672068706e+01 9.4531662364702345e-05 0.0000000000000000e+00  2.4226442278351591e+01 1.4894436824840819e-03 0.0000000000000000e+00  2.3783036373924300e+01 -1.5188162145459742e-03 0.0000000000000000e+00  2.3323249587825170e+01 4.8753373831785188e-03 0.0000000000000000e+00  2.2810880213752469e+01 -3.2524655009213391e-03 0.0000000000000000e+00  2.2306428119041840e+01 -4.6573550083607133e-03 0.0000000000000000e+00  2.1761642850314491e+01 5.8440063339525129e-03 0.0000000000000000e+00  2.1190937543690790e+01 -1.5554474041401805e-03 0.0000000000000000e+00  2.0621566068911076e+01 -3.1409210605252277e-03 0.0000000000000000e+00  2.0026724787132292e+01 2.3192367826124750e-03 0.0000000000000000e+00  1.9421824490937865e+01 2.2935037083021840e-03 0.0000000000000000e+00  1.8797605311421627e+01 -4.7455327111942802e-04 0.0000000000000000e+00  1.8169207921136259e+01 -1.5154533392029032e-04 0.0000000000000000e+00  1.7527061995013106e+01 1.4521922738302136e-03 0.0000000000000000e+00  1.6870498394454710e+01 -6.1620865687005589e-04 0.0000000000000000e+00  1.6222727635833149e+01 -1.6177923015399821e-03 0.0000000000000000e+00  1.5563171845732194e+01 4.6344467099456487e-03 0.0000000000000000e+00  1.4861216869597584e+01 -5.6781242427579766e-03 0.0000000000000000e+00  1.4176069736972254e+01 -7.8039100611461735e-04 0.0000000000000000e+00  1.3487970682021032e+01 -6.0617784399098957e-04 0.0000000000000000e+00  1.2817412901115615e+01 -2.4770639875641839e-04 0.0000000000000000e+00  1.2119916103303671e+01 6.1111269688712130e-03 0.0000000000000000e+00  1.1392337171226176e+01 -4.9934086609833232e-03 0.0000000000000000e+00  1.0687579086092004e+01 -8.3645149172652125e-04 0.0000000000000000e+00  9.9800680263693593e+00 4.3974211898363915e-04 0.0000000000000000e+00  9.2565555694866966e+00 2.3228203315050983e-03 0.0000000000000000e+00  8.5665415796917497e+00 1.2687316506355475e-03 0.0000000000000000e+00  7.8439345319885758e+00 -1.5943953944071766e-03 0.0000000000000000e+00  7.1391541687327296e+00 7.5791935768588722e-04 0.0000000000000000e+00  6.4267661816528436e+00 2.5124605479656644e-03 0.0000000000000000e+00  5.7278969329424765e+00 -7.9031318283034901e-04 0.0000000000000000e+00  4.9994651949503437e+00 -2.1500627312561007e-03 0.0000000000000000e+00  4.2853762753823075e+00 4.1795465347963289e-03 0.0000000000000000e+00  3.5839207402384883e+00 -7.0772199978736908e-03 0.0000000000000000e+00  2.8870185085572024e+00 -2.9881262393948106e-03 0.0000000000000000e+00  2.1660245079999174e+00 9.9699916463161058e-03 0.0000000000000000e+00  1.4216723555750228e+00 2.5391005690845688e-04 0.0000000000000000e+00  7.7260649536819592e-01 -2.6057492725057425e-02 0.0000000000000000e+00  -4.1758947187738565e-02 7.9791276691847779e-01 0.0000000000000000e+00  1.0680534414181063e-02 1.3858002647196093e+00 0.0000000000000000e+00  -1.7665045134905286e-02 2.1348346338671607e+00 0.0000000000000000e+00  -1.4100348492891612e-02 2.7454251791796418e+00 0.0000000000000000e+00  6.0855822347935934e-02 3.5712279204658297e+00 0.0000000000000000e+00  -1.4833131866366445e-02 4.4042715207179244e+00 0.0000000000000000e+00  -4.2951695195810567e-02 4.9261100112201071e+00 0.0000000000000000e+00  -6.1550794466733824e-02 5.7664465127971072e+00 0.0000000000000000e+00  1.7626678563797640e-02 6.3503225865384492e+00 0.0000000000000000e+00  1.9293817923150363e-02 7.1412976971731998e+00 0.0000000000000000e+00  -1.7899288628302024e-02 7.8599206390065692e+00 0.0000000000000000e+00  1.3401321529429305e-02 8.5483601273079142e+00 0.0000000000000000e+00  3.5451579846680595e-03 9.3257922186739286e+00 0.0000000000000000e+00  -3.0034376130076185e-03 9.9374972271640747e+00 0.0000000000000000e+00  -8.1572858639766769e-03 1.0692777984794262e+01 0.0000000000000000e+00  -3.9776107089189508e-03 1.1371377131085344e+01 0.0000000000000000e+00  1.0245957928459969e-02 1.2100020013993687e+01 0.0000000000000000e+00  -3.0535443321701040e-03 1.2825031800830752e+01 0.0000000000000000e+00  -7.1232509177666771e-03 1.3499847226836122e+01 0.0000000000000000e+00  -1.3307902199289953e-03 1.4230971437054340e+01 0.0000000000000000e+00  -8.3460773119500235e-03 1.4805183751597927e+01 0.0000000000000000e+00  1.6842842990896369e-02 1.5567678916526544e+01 0.0000000000000000e+00  -1.4416412806938152e-02 1.6221546230448691e+01 0.0000000000000000e+00  1.6954831000133702e-02 1.6890460495516241e+01 0.0000000000000000e+00  5.5931621900632686e-03 1.7596627844891078e+01 0.0000000000000000e+00  -3.8066776325045522e-02 1.8117914796622689e+01 0.0000000000000000e+00  -3.0479967043753147e-02 1.8880791478472279e+01 0.0000000000000000e+00  6.0087706205835412e-03 1.9390403540928936e+01 0.0000000000000000e+00  -2.0856759552458252e-02 2.0035734037938095e+01 0.0000000000000000e+00  -1.0393007718328833e-02 2.0547233784002152e+01 0.0000000000000000e+00  5.0043100200376146e-02 2.1210592349535830e+01 0.0000000000000000e+00  -1.6705591793615200e-02 2.1856959915649519e+01 0.0000000000000000e+00  -2.6971509944313372e-02 2.2264435820191270e+01 0.0000000000000000e+00  -2.8061038186834305e-02 2.2889847817899980e+01 0.0000000000000000e+00  2.7869614964432412e-03 2.3275282219983783e+01 0.0000000000000000e+00  9.3422962662985214e-03 2.3811286319621352e+01 0.0000000000000000e+00  -3.8746391533364516e-03 2.4274784607192348e+01 0.0000000000000000e+00  -1.1634590417113320e-03 2.4683943695578172e+01 0.0000000000000000e+00  7.4011651494451549e-04 2.5076567101676737e+01 0.0000000000000000e+00  1.0723642288422333e-03 2.5457956028764009e+01 0.0000000000000000e+00  -6.8232405800647466e-03 2.5797606801699740e+01 0.0000000000000000e+00  -2.4680876016644536e-04 2.6041175676104778e+01 0.0000000000000000e+00  -3.9828862125715909e-05 2.6345649021285837e+01 0.0000000000000000e+00  2.8787608042585219e-03 2.6590005367665256e+01 0.0000000000000000e+00  -5.6257594541637762e-03 2.6785489133700203e+01 0.0000000000000000e+00  5.5622209227640688e-03 2.6959811152444345e+01 0.0000000000000000e+00  -2.1239934445144832e-03 2.7077759392105445e+01 0.0000000000000000e+00  -4.9148488832407465e-03 2.7178886922720135e+01 0.0000000000000000e+00  1.2082091008044700e-03 2.7232559695101273e+01 0.0000000000000000e+00  1.1016187327889623e-03 2.7254810574936478e+01 0.0000000000000000e+00  5.1348091499556743e-03 2.7230021821331590e+01 0.0000000000000000e+00  -5.7089463280749929e-03 2.7178121805269949e+01 0.0000000000000000e+00  2.6340499844702166e-03 2.7086144375591012e+01 0.0000000000000000e+00  -4.7068452355494856e-03 2.6951340992577002e+01 0.0000000000000000e+00  6.7552240119695944e-03 2.6785205128193244e+01 0.0000000000000000e+00  -5.5458907749596715e-03 2.6565934451590074e+01 0.0000000000000000e+00  1.2215201934124604e-02 2.6367678369841538e+01 0.0000000000000000e+00  1.4901594885222722e-02 2.6039434742802076e+01 0.0000000000000000e+00  7.5610261593240568e-03 2.5802771973139304e+01 0.0000000000000000e+00  3.0534264467119616e-02 2.5417059271113640e+01 0.0000000000000000e+00  -1.4497796282064291e-02 2.5121712556351177e+01 0.0000000000000000e+00  -5.6851599546952278e-03 2.4680599507156654e+01 0.0000000000000000e+00  6.3104794793995963e-03 2.4236128500407229e+01 0.0000000000000000e+00  -1.3360852272148005e-03 2.3803564134256384e+01 0.0000000000000000e+00  -4.3591828998417554e-04 2.3332859724873153e+01 0.0000000000000000e+00  -1.8533261535702500e-03 2.2824298086287261e+01 0.0000000000000000e+00  2.2399649170997122e-03 2.2311636508662190e+01 0.0000000000000000e+00  -1.1265484799845602e-02 2.1764748997585240e+01 0.0000000000000000e+00  2.0263119577549588e-02 2.1207152986460947e+01 0.0000000000000000e+00  -1.3090988361310202e-02 2.0583665531115191e+01 0.0000000000000000e+00  1.4844302332416306e-02 2.0072578364094738e+01 0.0000000000000000e+00  3.4727059753490016e-03 1.9466353991252412e+01 0.0000000000000000e+00  -1.7010431330143461e-02 1.8811977342753231e+01 0.0000000000000000e+00  1.1454227104868563e-02 1.8169872695163935e+01 0.0000000000000000e+00  -1.4231764036551652e-02 1.7532199891417743e+01 0.0000000000000000e+00  7.5079802766962302e-03 1.6842243135764697e+01 0.0000000000000000e+00  -2.6891481390728688e-03 1.6171226289208697e+01 0.0000000000000000e+00  2.7257932964661481e-02 1.5614357752817476e+01 0.