<?xml version="1.0"?>
<VTKFile type="UnstructuredGrid"  version="0.1"  >
<UnstructuredGrid>
<Piece  NumberOfPoints="11902" NumberOfCells="23402">
<Points>
<DataArray  type="Float64"  NumberOfComponents="3"  format="ascii">-5 -5 0  5 -5 0  5 5 0  -5 5 0  1.600508247446407 -0.00021013815704066 0  -4.9 -5 0  -4.8 -5 0  -4.7 -5 0  -4.6 -5 0  -4.5 -5 0  -4.4 -5 0  -4.3 -5 0  -4.2 -5 0  -4.1 -5 0  -4 -5 0  -3.9 -5 0  -3.8 -5 0  -3.7 -5 0  -3.6 -5 0  -3.5 -5 0  -3.4 -5 0  -3.3 -5 0  -3.2 -5 0  -3.1 -5 0  -3 -5 0  -2.9 -5 0  -2.8 -5 0  -2.7 -5 0  -2.6 -5 0  -2.5 -5 0  -2.4 -5 0  -2.3 -5 0  -2.2 -5 0  -2.1 -5 0  -2 -5 0  -1.9 -5 0  -1.8 -5 0  -1.7 -5 0  -1.6 -5 0  -1.5 -5 0  -1.4 -5 0  -1.3 -5 0  -1.2 -5 0  -1.1 -5 0  -1 -5 0  -0.9000000000000004 -5 0  -0.7999999999999998 -5 0  -0.7000000000000002 -5 0  -0.5999999999999996 -5 0  -0.5 -5 0  -0.4000000000000004 -5 0  -0.2999999999999998 -5 0  -0.2000000000000002 -5 0  -0.09999999999999964 -5 0  0 -5 0  0.09999999999999964 -5 0  0.2000000000000002 -5 0  0.2999999999999998 -5 0  0.4000000000000004 -5 0  0.5 -5 0  0.5999999999999996 -5 0  0.7000000000000002 -5 0  0.7999999999999998 -5 0  0.9000000000000004 -5 0  1 -5 0  1.1 -5 0  1.2 -5 0  1.3 -5 0  1.4 -5 0  1.5 -5 0  1.6 -5 0  1.7 -5 0  1.8 -5 0  1.9 -5 0  2 -5 0  2.1 -5 0  2.2 -5 0  2.3 -5 0  2.4 -5 0  2.5 -5 0  2.6 -5 0  2.7 -5 0  2.8 -5 0  2.9 -5 0  3 -5 0  3.1 -5 0  3.199999999999999 -5 0  3.300000000000001 -5 0  3.4 -5 0  3.5 -5 0  3.6 -5 0  3.699999999999999 -5 0  3.800000000000001 -5 0  3.9 -5 0  4 -5 0  4.1 -5 0  4.199999999999999 -5 0  4.300000000000001 -5 0  4.4 -5 0  4.5 -5 0  4.6 -5 0  4.699999999999999 -5 0  4.800000000000001 -5 0  4.9 -5 0  5 -4.9 0  5 -4.8 0  5 -4.7 0  5 -4.6 0  5 -4.5 0  5 -4.4 0  5 -4.3 0  5 -4.2 0  5 -4.1 0  5 -4 0  5 -3.9 0  5 -3.8 0  5 -3.7 0  5 -3.6 0  5 -3.5 0  5 -3.4 0  5 -3.3 0  5 -3.2 0  5 -3.1 0  5 -3 0  5 -2.9 0  5 -2.8 0  5 -2.7 0  5 -2.6 0  5 -2.5 0  5 -2.4 0  5 -2.3 0  5 -2.2 0  5 -2.1 0  5 -2 0  5 -1.9 0  5 -1.8 0  5 -1.7 0  5 -1.6 0  5 -1.5 0  5 -1.4 0  5 -1.3 0  5 -1.2 0  5 -1.1 0  5 -1 0  5 -0.9000000000000004 0  5 -0.7999999999999998 0  5 -0.7000000000000002 0  5 -0.5999999999999996 0  5 -0.5 0  5 -0.4000000000000004 0  5 -0.2999999999999998 0  5 -0.2000000000000002 0  5 -0.09999999999999964 0  5 0 0  5 0.09999999999999964 0  5 0.2000000000000002 0  5 0.2999999999999998 0  5 0.4000000000000004 0  5 0.5 0  5 0.5999999999999996 0  5 0.7000000000000002 0  5 0.7999999999999998 0  5 0.9000000000000004 0  5 1 0  5 1.1 0  5 1.2 0  5 1.3 0  5 1.4 0  5 1.5 0  5 1.6 0  5 1.7 0  5 1.8 0  5 1.9 0  5 2 0  5 2.1 0  5 2.2 0  5 2.3 0  5 2.4 0  5 2.5 0  5 2.6 0  5 2.7 0  5 2.8 0  5 2.9 0  5 3 0  5 3.1 0  5 3.199999999999999 0  5 3.300000000000001 0  5 3.4 0  5 3.5 0  5 3.6 0  5 3.699999999999999 0  5 3.800000000000001 0  5 3.9 0  5 4 0  5 4.1 0  5 4.199999999999999 0  5 4.300000000000001 0  5 4.4 0  5 4.5 0  5 4.6 0  5 4.699999999999999 0  5 4.800000000000001 0  5 4.9 0  4.9 5 0  4.8 5 0  4.7 5 0  4.6 5 0  4.5 5 0  4.4 5 0  4.3 5 0  4.2 5 0  4.1 5 0  4 5 0  3.9 5 0  3.8 5 0  3.7 5 0  3.6 5 0  3.5 5 0  3.4 5 0  3.3 5 0  3.2 5 0  3.1 5 0  3 5 0  2.9 5 0  2.8 5 0  2.7 5 0  2.6 5 0  2.5 5 0  2.4 5 0  2.3 5 0  2.2 5 0  2.1 5 0  2 5 0  1.9 5 0  1.8 5 0  1.7 5 0  1.6 5 0  1.5 5 0  1.4 5 0  1.3 5 0  1.2 5 0  1.1 5 0  1 5 0  0.9000000000000004 5 0  0.7999999999999998 5 0  0.7000000000000002 5 0  0.5999999999999996 5 0  0.5 5 0  0.4000000000000004 5 0  0.2999999999999998 5 0  0.2000000000000002 5 0  0.09999999999999964 5 0  0 5 0  -0.09999999999999964 5 0  -0.2000000000000002 5 0  -0.2999999999999998 5 0  -0.4000000000000004 5 0  -0.5 5 0  -0.5999999999999996 5 0  -0.7000000000000002 5 0  -0.7999999999999998 5 0  -0.9000000000000004 5 0  -1 5 0  -1.1 5 0  -1.2 5 0  -1.3 5 0  -1.4 5 0  -1.5 5 0  -1.6 5 0  -1.7 5 0  -1.8 5 0  -1.9 5 0  -2 5 0  -2.1 5 0  -2.2 5 0  -2.3 5 0  -2.4 5 0  -2.5 5 0  -2.6 5 0  -2.7 5 0  -2.8 5 0  -2.9 5 0  -3 5 0  -3.1 5 0  -3.199999999999999 5 0  -3.300000000000001 5 0  -3.4 5 0  -3.5 5 0  -3.6 5 0  -3.699999999999999 5 0  -3.800000000000001 5 0  -3.9 5 0  -4 5 0  -4.1 5 0  -4.199999999999999 5 0  -4.300000000000001 5 0  -4.4 5 0  -4.5 5 0  -4.6 5 0  -4.699999999999999 5 0  -4.800000000000001 5 0  -4.9 5 0  -5 4.9 0  -5 4.8 0  -5 4.7 0  -5 4.6 0  -5 4.5 0  -5 4.4 0  -5 4.3 0  -5 4.2 0  -5 4.1 0  -5 4 0  -5 3.9 0  -5 3.8 0  -5 3.7 0  -5 3.6 0  -5 3.5 0  -5 3.4 0  -5 3.3 0  -5 3.2 0  -5 3.1 0  -5 3 0  -5 2.9 0  -5 2.8 0  -5 2.7 0  -5 2.6 0  -5 2.5 0  -5 2.4 0  -5 2.3 0  -5 2.2 0  -5 2.1 0  -5 2 0  -5 1.9 0  -5 1.8 0  -5 1.7 0  -5 1.6 0  -5 1.5 0  -5 1.4 0  -5 1.3 0  -5 1.2 0  -5 1.1 0  -5 1 0  -5 0.9000000000000004 0  -5 0.7999999999999998 0  -5 0.7000000000000002 0  -5 0.5999999999999996 0  -5 0.5 0  -5 0.4000000000000004 0  -5 0.2999999999999998 0  -5 0.2000000000000002 0  -5 0.09999999999999964 0  -5 0 0  -5 -0.09999999999999964 0  -5 -0.2000000000000002 0  -5 -0.2999999999999998 0  -5 -0.4000000000000004 0  -5 -0.5 0  -5 -0.5999999999999996 0  -5 -0.7000000000000002 0  -5 -0.7999999999999998 0  -5 -0.9000000000000004 0  -5 -1 0  -5 -1.1 0  -5 -1.2 0  -5 -1.3 0  -5 -1.4 0  -5 -1.5 0  -5 -1.6 0  -5 -1.7 0  -5 -1.8 0  -5 -1.9 0  -5 -2 0  -5 -2.1 0  -5 -2.2 0  -5 -2.3 0  -5 -2.4 0  -5 -2.5 0  -5 -2.6 0  -5 -2.7 0  -5 -2.8 0  -5 -2.9 0  -5 -3 0  -5 -3.1 0  -5 -3.199999999999999 0  -5 -3.300000000000001 0  -5 -3.4 0  -5 -3.5 0  -5 -3.6 0  -5 -3.699999999999999 0  -5 -3.800000000000001 0  -5 -3.9 0  -5 -4 0  -5 -4.1 0  -5 -4.199999999999999 0  -5 -4.300000000000001 0  -5 -4.4 0  -5 -4.5 0  -5 -4.6 0  -5 -4.699999999999999 0  -5 -4.800000000000001 0  -5 -4.9 0  1.59262498309371 0.1519305742263068 0  1.569010676573617 0.302655960557111 0  1.529932533203801 0.4505511191379807 0  1.475672333060843 0.5942055996233774 0  1.406759702236369 0.7322230254597779 0  1.323865259140385 0.8632525339573219 0  1.227836244165312 0.9860083994539646 0  1.119581696127126 1.099243509414665 0  1.00010321074291 1.201724658697503 0  0.870579765944182 1.292342206302319 0  0.7323438268346995 1.370174530282422 0  0.58674115700106 1.434350645640205 0  0.4352191886017431 1.484106323967334 0  0.279328980188101 1.518974028628393 0  0.1206098637959849 1.538452531317774 0  -0.03931528162600829 1.542375115717201 0  -0.1988403939121229 1.53068727114161 0  -0.3563381007685158 1.503448112022902 0  -0.510232080718783 1.461083654117568 0  -0.6589845464958816 1.404066041801941 0  -0.8010741828551042 1.332969068984524 0  -0.935099640732147 1.248620777750841 0  -1.059730866596859 1.1519325105562 0  -1.173719325273213 1.043925587711389 0  -1.275991204207179 0.9257848355845698 0  -1.365551556878148 0.7987197200098601 0  -1.441482404320245 0.663992907385159 0  -1.503135494454043 0.5229827779653164 0  -1.549909380815796 0.3770395682545299 0  -1.581301185130493 0.2275451237476169 0  -1.59705811428849 0.07592718017332251 0  -1.597059082928475 -0.07639737794993282 0  -1.581285870726769 -0.2280162334178623 0  -1.549795706546107 -0.3774746316641362 0  -1.503110259213732 -0.5234388716920435 0  -1.441474260034161 -0.6644540799401113 0  -1.365516535862372 -0.7991555622142561 0  -1.275946608754926 -0.9262029504732761 0  -1.173679898807466 -1.044339100328485 0  -1.05969598653337 -1.15234292841798 0  -0.9350782233122721 -1.249045652428702 0  -0.8010066037758377 -1.333325125053485 0  -0.6589382595534103 -1.404445810066963 0  -0.5101968945828803 -1.461470284197549 0  -0.3563212885603344 -1.503830716607684 0  -0.1988354572465174 -1.531025953161168 0  -0.03932648543535865 -1.542665552618287 0  0.120578128738228 -1.538771465188132 0  0.2792849718499842 -1.519322649976887 0  0.4351706393598138 -1.484489889994276 0  0.5866824968571395 -1.434740415178124 0  0.7322953161234731 -1.370600231588236 0  0.8705312194347632 -1.29276646173236 0  1.000015403513861 -1.202105179640562 0  1.119496002464766 -1.09963337474857 0  1.227785066098007 -0.9864302518244743 0  1.323844495589359 -0.863686046744115 0  1.406692715263532 -0.7326307628425822 0  1.475545189682666 -0.5945925827303338 0  1.529841128088034 -0.4509565569911859 0  1.568980055749215 -0.303072950329648 0  1.59258962685172 -0.1523474591360285 0  -2.449121186988228 4.918690214427534 0  -2.44903974580637 -4.911117419318561 0  4.910770103007077 2.448291690574045 0  4.918859560135406 -2.449718248238572 0  2.446867335004312 -4.896457114719198 0  2.441287289266727 4.900211050937229 0  -4.910785964584216 -2.448311296035282 0  -4.910794895566383 2.448315296009636 0  -1.749237639077238 4.912121226133154 0  -1.744988479844676 -4.915507101453211 0  4.921091713966598 1.744465719677677 0  4.909683026454633 -1.74828773689588 0  -4.909965853958195 -1.748011583645708 0  -4.910795196433294 1.747748452686605 0  1.746556635313171 4.906064347137926 0  1.748052980099364 -4.89434078025976 0  -1.1494783529836 4.91039873548317 0  -1.130265514499088 -4.918178991545167 0  -4.909862727113693 -1.148274673073458 0  -4.909692866707642 1.148067841868787 0  1.144427596080491 -4.914421031533903 0  1.149481781699658 4.910391413158857 0  4.910021516771652 1.146551034046112 0  4.920765685510203 -1.152296909930129 0  -0.5470263585781974 -4.911902695176901 0  -0.5467688539037262 4.920426818278932 0  -4.90873505315418 -0.5489042581926522 0  -4.908764865121364 0.5474499016075182 0  4.908078768021571 -0.54922610982441 0  4.919635148978185 0.5459523691888739 0  0.5428413288036152 -4.89906423570449 0  0.5515088232685528 4.917313855141207 0  -4.912091188587438 -3.04855896098394 0  4.918655945436685 3.046560482625126 0  4.911602608824121 -3.048541869755024 0  -4.912946980498351 3.045649906933831 0  3.055675701536973 -4.917680434123676 0  -3.049033230567661 -4.911628386051989 0  3.052597166050468 4.913706937580416 0  -3.048485871800126 4.912525272168833 0  -4.907894136673223 -0.0499320288153576 0  0.04514430402774412 -4.913928392012524 0  0.04959402073183321 4.92081937539454 0  4.914902332358797 -0.05131057995575417 0  3.545848008292239 -4.91918897109961 0  -3.549156405573816 4.912101848521153 0  -3.5491530979038 -4.912102317890433 0  4.91
[...]
<PointData  Scalars="f_23"> 
<DataArray  type="Float64"  Name="f_23"  format="ascii">0.0000000000000000e+00  0.0000000000000000e+00  0.0000000000000000e+00  0.0000000000000000e+00  1.5049799340392366e+02  0.0000000000000000e+00  0.0000000000000000e+00  0.0000000000000000e+00  0.0000000000000000e+00  0.0000000000000000e+00  0.0000000000000000e+00  0.0000000000000000e+00  0.0000000000000000e+00  0.0000000000000000e+00  0.0000000000000000e+00  0.0000000000000000e+00  0.0000000000000000e+00  0.0000000000000000e+00  0.0000000000000000e+00  0.0000000000000000e+00  0.0000000000000000e+00  0.0000000000000000e+00  0.0000000000000000e+00  0.0000000000000000e+00  0.0000000000000000e+00  0.0000000000000000e+00  0.0000000000000000e+00  0.0000000000000000e+00  0.0000000000000000e+00  0.0000000000000000e+00  0.0000000000000000e+00  0.0000000000000000e+00  0.0000000000000000e+00  0.0000000000000000e+00  0.0000000000000000e+00  0.0000000000000000e+00  0.0000000000000000e+00  0.0000000000000000e+00  0.0000000000000000e+00  0.0000000000000000e+00  0.0000000000000000e+00  0.0000000000000000e+00  0.0000000000000000e+00  0.0000000000000000e+00  0.0000000000000000e+00  0.0000000000000000e+00  0.0000000000000000e+00  0.0000000000000000e+00  0.0000000000000000e+00  0.0000000000000000e+00  0.0000000000000000e+00  0.0000000000000000e+00  0.0000000000000000e+00  0.0000000000000000e+00  0.0000000000000000e+00  0.0000000000000000e+00  0.0000000000000000e+00  0.0000000000000000e+00  0.0000000000000000e+00  0.0000000000000000e+00  0.0000000000000000e+00  0.0000000000000000e+00  0.0000000000000000e+00  0.0000000000000000e+00  0.0000000000000000e+00  0.0000000000000000e+00  0.0000000000000000e+00  0.0000000000000000e+00  0.0000000000000000e+00  0.0000000000000000e+00  0.0000000000000000e+00  0.0000000000000000e+00  0.0000000000000000e+00  0.0000000000000000e+00  0.0000000000000000e+00  0.0000000000000000e+00  0.0000000000000000e+00  0.0000000000000000e+00  0.0000000000000000e+00  0.0000000000000000e+00  0.0000000000000000e+00  0.0000000000000000e+00  0.0000000000000000e+00  0.0000000000000000e+00  0.0000000000000000e+00  0.0000000000000000e+00  0.0000000000000000e+00  0.0000000000000000e+00  0.0000000000000000e+00  0.0000000000000000e+00  0.0000000000000000e+00  0.0000000000000000e+00  0.0000000000000000e+00  0.0000000000000000e+00  0.0000000000000000e+00  0.0000000000000000e+00  0.0000000000000000e+00  0.0000000000000000e+00  0.0000000000000000e+00  0.0000000000000000e+00  0.0000000000000000e+00  0.0000000000000000e+00  0.0000000000000000e+00  0.0000000000000000e+00  0.0000000000000000e+00  0.0000000000000000e+00  0.0000000000000000e+00  0.0000000000000000e+00  0.0000000000000000e+00  0.0000000000000000e+00  0.0000000000000000e+00  0.0000000000000000e+00  0.0000000000000000e+00  0.0000000000000000e+00  0.0000000000000000e+00  0.0000000000000000e+00  0.0000000000000000e+00  0.0000000000000000e+00  0.0000000000000000e+00  0.0000000000000000e+00  0.0000000000000000e+00  0.0000000000000000e+00  0.0000000000000000e+00  0.0000000000000000e+00  0.0000000000000000e+00  0.0000000000000000e+00  0.0000000000000000e+00  0.0000000000000000e+00  0.0000000000000000e+00  0.0000000000000000e+00  0.0000000000000000e+00  0.0000000000000000e+00  0.0000000000000000e+00  0.0000000000000000e+00  0.0000000000000000e+00  0.0000000000000000e+00  0.0000000000000000e+00  0.0000000000000000e+00  0.0000000000000000e+00  0.0000000000000000e+00  0.0000000000000000e+00  0.0000000000000000e+00  0.0000000000000000e+00  0.0000000000000000e+00  0.0000000000000000e+00  0.0000000000000000e+00  0.0000000000000000e+00  0.0000000000000000e+00  0.0000000000000000e+00  0.0000000000000000e+00  0.0000000000000000e+00  0.0000000000000000e+00  0.0000000000000000e+00  0.0000000000000000e+00  0.0000000000000000e+00  0.0000000000000000e+00  0.0000000000000000e+00  0.0000000000000000e+00  0.0000000000000000e+00  0.0000000000000000e+00  0.0000000000000000e+00  0.0000000000000000e+00  0.0000000000000000e+00  0.0000000000000000e+00  0.0000000000000000e+00  0.0000000000000000e+00  0.0000000000000000e+00  0.0000000000000000e+00  0.0000000000000000e+00  0.0000000000000000e+00  0.0000000000000000e+00  0.0000000000000000e+00  0.0000000000000000e+00  0.0000000000000000e+00  0.0000000000000000e+00  0.0000000000000000e+00  0.0000000000000000e+00  0.0000000000000000e+00  0.0000000000000000e+00  0.0000000000000000e+00  0.0000000000000000e+00  0.0000000000000000e+00  0.0000000000000000e+00  0.0000000000000000e+00  0.0000000000000000e+00  0.0000000000000000e+00  0.0000000000000000e+00  0.0000000000000000e+00  0.0000000000000000e+00  0.0000000000000000e+00  0.0000000000000000e+00  0.0000000000000000e+00  0.0000000000000000e+00  0.0000000000000000e+00  0.0000000000000000e+00  0.0000000000000000e+00  0.0000000000000000e+00  0.0000000000000000e+00  0.0000000000000000e+00  0.0000000000000000e+00  0.0000000000000000e+00  0.0000000000000000e+00  0.0000000000000000e+00  0.0000000000000000e+00  0.0000000000000000e+00  0.0000000000000000e+00  0.0000000000000000e+00  0.0000000000000000e+00  0.0000000000000000e+00  0.0000000000000000e+00  0.0000000000000000e+00  0.0000000000000000e+00  0.0000000000000000e+00  0.0000000000000000e+00  0.0000000000000000e+00  0.0000000000000000e+00  0.0000000000000000e+00  0.0000000000000000e+00  0.0000000000000000e+00  0.0000000000000000e+00  0.0000000000000000e+00  0.0000000000000000e+00  0.0000000000000000e+00  0.0000000000000000e+00  0.0000000000000000e+00  0.0000000000000000e+00  0.0000000000000000e+00  0.0000000000000000e+00  0.0000000000000000e+00  0.0000000000000000e+00  0.0000000000000000e+00  0.0000000000000000e+00  0.0000000000000000e+00  0.0000000000000000e+00  0.0000000000000000e+00  0.0000000000000000e+00  0.0000000000000000e+00  0.0000000000000000e+00  0.0000000000000000e+00  0.0000000000000000e+00  0.0000000000000000e+00  0.0000000000000000e+00  0.0000000000000000e+00  0.0000000000000000e+00  0.0000000000000000e+00  0.0000000000000000e+00  0.0000000000000000e+00  0.0000000000000000e+00  0.0000000000000000e+00  0.0000000000000000e+00  0.0000000000000000e+00  0.0000000000000000e+00  0.0000000000000000e+00  0.0000000000000000e+00  0.0000000000000000e+00  0.0000000000000000e+00  0.0000000000000000e+00  0.0000000000000000e+00  0.0000000000000000e+00  0.0000000000000000e+00  0.0000000000000000e+00  0.0000000000000000e+00  0.0000000000000000e+00  0.0000000000000000e+00  0.0000000000000000e+00  0.0000000000000000e+00  0.0000000000000000e+00  0.0000000000000000e+00  0.0000000000000000e+00  0.0000000000000000e+00  0.0000000000000000e+00  0.0000000000000000e+00  0.0000000000000000e+00  0.0000000000000000e+00  0.0000000000000000e+00  0.0000000000000000e+00  0.0000000000000000e+00  0.0000000000000000e+00  0.0000000000000000e+00  0.0000000000000000e+00  0.0000000000000000e+00  0.0000000000000000e+00  0.0000000000000000e+00  0.0000000000000000e+00  0.0000000000000000e+00  0.0000000000000000e+00  0.0000000000000000e+00  0.0000000000000000e+00  0.0000000000000000e+00  0.0000000000000000e+00  0.0000000000000000e+00  0.0000000000000000e+00  0.0000000000000000e+00  0.0000000000000000e+00  0.0000000000000000e+00  0.0000000000000000e+00  0.0000000000000000e+00  0.0000000000000000e+00  0.0000000000000000e+00  0.0000000000000000e+00  0.0000000000000000e+00  0.0000000000000000e+00  0.0000000000000000e+00  0.0000000000000000e+00  0.0000000000000000e+00  0.0000000000000000e+00  0.0000000000000000e+00  0.0000000000000000e+00  0.0000000000000000e+00  0.0000000000000000e+00  0.0000000000000000e+00  0.0000000000000000e+00  0.0000000000000000e+00  0.0000000000000000e+00  0.0000000000000000e+00  0.0000000000000000e+00  0.0000000000000000e+00  0.0000000000000000e+00  0.0000000000000000e+00  0.0000000000000000e+00  0.0000000000000000e+00  0.0000000000000000e+00  0.0000000000000000e+00  0.0000000000000000e+00  0.0000000000000000e+00  0.0000000000000000e+00  0.0000000000000000e+00  0.0000000000000000e+00  0.0000000000000000e+00  0.0000000000000000e+00  0.0000000000000000e+00  0.0000000000000000e+00  0.0000000000000000e+00  0.0000000000000000e+00  0.0000000000000000e+00  0.0000000000000000e+00  0.0000000000000000e+00  0.0000000000000000e+00  0.0000000000000000e+00  0.0000000000000000e+00  0.0000000000000000e+00  0.0000000000000000e+00  0.0000000000000000e+00  0.0000000000000000e+00  0.0000000000000000e+00  0.0000000000000000e+00  0.0000000000000000e+00  0.0000000000000000e+00  0.0000000000000000e+00  0.0000000000000000e+00  0.0000000000000000e+00  0.0000000000000000e+00  0.0000000000000000e+00  0.0000000000000000e+00  0.0000000000000000e+00  0.0000000000000000e+00  0.0000000000000000e+00  0.0000000000000000e+00  0.0000000000000000e+00  0.0000000000000000e+00  0.0000000000000000e+00  0.0000000000000000e+00  0.0000000000000000e+00  0.0000000000000000e+00  0.0000000000000000e+00  0.0000000000000000e+00  0.0000000000000000e+00  0.0000000000000000e+00  0.0000000000000000e+00  0.0000000000000000e+00  0.0000000000000000e+00  0.0000000000000000e+00  0.0000000000000000e+00  0.0000000000000000e+00  0.0000000000000000e+00  0.0000000000000000e+00  0.0000000000000000e+00  0.0000000000000000e+00  0.0000000000000000e+00  0.0000000000000000e+00  0.0000000000000000e+00  0.0000000000000000e+00  0.0000000000000000e+00  0.0000000000000000e+00  0.0000000000000000e+00  0.0000000000000000e+00  0.0000000000000000e+00  0.0000000000000000e+00  0.0000000000000000e+00  0.0000000000000000e+00  0.0000000000000000e+00  0.0000000000000000e+00  0.0000000000000000e+00  0.0000000000000000e+00  0.0000000000000000e+00  0.0000000000000000e+00  0.0000000000000000e+00  0.0000000000000000e+00  0.0000000000000000e+00  0.0000000000000000e+00  0.0000000000000000e+00  1.5068040023586525e+02  1.5070855198921558e+02  1.5081455891145680e+02  1.5116868101894505e+02  1.5128718349417750e+02  1.5139864805454951e+02  1.5161369204407018e+02  1.5186049631383585e+02  1.5212662279350567e+02  1.5243053982004307e+02  1.5252742596894996e+02  1.5259663995989177e+02  1.5268649790365231e+02  1.5271468334836223e+02  1.5277915946077869e+02  1.5278422718446521e+02  1.5277385327771790e+02  1.5280345878116896e+02  1.5267894159051022e+02  1.5245082952842250e+02  1.5231500770752754e+02  1.5215084481922665e+02  1.5193354993000426e+02  1.5181452410398029e+02  1.5167081437513227e+02  1.5135292589878927e+02  1.5102168675196808e+02  1.5084160389443440e+02  1.5084950717509747e+02  1.5055332957061464e+02  1.5039716298672050e+02  1.5040999737551761e+02  1.5071112678819918e+02  1.5107525034304066e+02  1.5090401954193558e+02  1.5100651871811121e+02  1.5128284730400981e+02  1.5158313173262687e+02  1.5169542660634880e+02  1.5183643119853781e+02  1.5219230753410960e+02  1.5271356157489944e+02  1.5262624702895096e+02  1.5258161934117481e+02  1.5273676731486495e+02  1.5277030882369920e+02  1.5279088182340786e+02  1.5283315521281901e+02  1.5279593722831788e+02  1.5272549361925590e+02  1.5254824658431144e+02  1.5232614193163866e+02  1.5219521673061891e+02  1.5200654188929661e+02  1.5195753899790503e+02  1.5177103720427118e+02  1.5140051840990739e+02  1.5115867262584837e+02  1.5092412359145169e+02  1.5073323436115044e+02  1.5053582945485476e+02  1.5044191622038218e+02  1.7180463678606099e+00  1.8757448010846980e+00  1.8909486431141527e+00  1.7187609990548469e+00  2.1894512622083391e+00  2.1121182791471007e+00  1.8898031533021467e+00  1.8894086447289544e+00  2.2896304982391729e+00  2.2040361998232054e+00  2.0670574172160827e+00  2.3636256439344812e+00  2.3555791779604252e+00  2.3340145903629290e+00  2.4492311009045600e+00  2.7540021973318698e+00  2.6337044503758307e+00  2.4096709738144741e+00  2.6620249397543048e+00  2.6668933879223897e+00  2.5166648181511180e+00  2.6329810563688518e+00  2.6591019002505694e+00  2.3393767515280213e+00  2.7763495348381655e+00  2.5075717477997057e+00  2.8920163369923055e+00  2.8912802731072449e+00  2.9139657539607753e+00  2.5482418330107373e+00  3.1818101270361834e+00  2.6051208330554885e+00  1.4420120652248296e+00  1.3361079935033822e+00  1.4505125095046179e+00  1.4298243846481418e+00  1.3428760903598809e+00  1.4490188119247931e+00  1.4117870748387422e+00  1.4322258731840207e+00  2.9795944519546338e+00  2.7683423814398460e+00  2.5462497384342040e+00  2.7540974315527600e+00  9.9216094260490273e-01  1.0767079218392639e+00  1.0756860095772554e+00  9.9031823070278879e-01  1.0758843965684459e+00  1.0484115358989250e+00  1.0581455278405334e+00  1.0526350644306377e+00  7.5668752495744485e-01  8.6750337000250688e-01  7.7814709743952681e-01  7.7663094765539731e-01  7.2218390744984440e-01  7.7666412256169970e-01  7.6322627204080606e-01  7.6668357938258047e-01  5.6194556994044598e-01  4.4196339236149956e-01  4.0582236573147762e-01  4.7929987089286025e-01  4.7152243158219687e-01  4.7253047601057374e-01  4.6715410829465126e-01  4.9837637238375559e-01  2.9658092389724748e+00  2.8748657133458324e+00  2.6778578435708611e+00  2.5940211049491051e+00  2.8423370930565235e+00  2.5179461429389129e+00  2.8075248669673081e+00  2.8191140280075278e+00  2.5436143819398893e+00  2.1940423268960898e+00  3.1654669104113267e+00  2.6931675975437104e+00  2.4911530080900852e+00  2.4264492324088418e+00  2.8216792500540460e+00  2.5071519347559454e+00  2.5407510205634569e+00  2.4921176987064300e+00  3.0359942221421146e+00  2.4927619112511366e+00  2.5070578988372292e+00  2.2535525014247897e+00  2.1677411065399568e+00  2.1342846642975202e+00  1.7933585409857320e+00  2.1281171789877198e+00  1.9951245117781300e+00  2.1691643457260983e+00  1.6725006372668767e+00  1.7552789794425210e+00  1.7159352057767709e+00  1.6548361954345943e+00  1.8874924287832751e+00  1.6722501161179342e+00  1.5992806732246849e+00  1.4613325500420751e+00  2.5579939857190082e-01  2.5369676332192681e-01  2.4567984176384391e-01  2.7401597156787144e-01  2.5703969941966115e-01  2.6763016244673565e-01  2.5362609103011130e-01  2.1142807621518833e-01  2.9658307077223265e+00  3.0937082091186037e+00  3.3922953061729904e+00  2.6321944060237037e+00  2.0143337801147649e+00  2.0316890492029667e+00  2.0323648889599197e+00  2.2615644079536734e+00  2.0309227324505916e+00  2.0141889025598667e+00  2.1606230876432120e+00  2.0077233270646122e+00  1.2822171416919681e+00  1.4933754215569586e+00  1.4758734889077847e+00  1.3005821771546584e+00  1.2275332750066075e+00  1.3507260887217736e+00  1.2760969524979262e+00  1.2857451459381328e+00  9.1259383054189169e-01  6.1758610595531205e-01  9.3711264946718098e-01  6.7832103315835601e-01  8.5482164478316414e-01  6.3532370210281663e-01  9.2611735788520710e-01  6.2761977364406851e-01  9.2739696010213568e-01  7.5478802130795619e-01  9.2612414718209035e-01  6.2795598290056009e-01  9.2594205501109883e-01  6.1989609244270005e-01  9.6815596158404327e-01  6.4802674064885912e-01  1.2125790660806858e-01  1.0983622855096305e-01  1.0999845578666995e-01  1.1917655544002653e-01  2.9749437086966566e+00  5.9448078622481235e+00  5.9219976393899145e+00  8.9089326815516134e+00  8.8679399578904246e+00  1.1866882519436555e+01  1.1807430552125760e+01  1.4818854439269812e+01  1.4732278442586610e+01  1.7762938346375943e+01  1.7644357949014541e+01  2.0698525293384122e+01  2.0543553021897441e+01  2.3624890726405244e+01  2.3428707778802785e+01  2.6540873961572114e+01  2.6296051332685959e+01  2.9444583865005036e+01  2.9152020400661264e+01  3.2329759416980089e+01  3.1986726162676732e+01  3.2640833318301773e+01  3.5209622777638998e+01  3.4800052051165210e+01  3.8073750374159438e+01  3.7596062541958879e+01  4.0907982489454930e+01  4.0363739022002619e+01  4.3722351535869670e+01  4.3103563326182666e+01  4.6507160223443528e+01  4.5811641559648052e+01  4.7151397857741472e+01  4.9258158326577359e+01  4.8484233831236281e+01  5.1985562333998068e+01  5.1119719072469636e+01  5.4680585061492039e+01  5.3711008286259847e+01  5.7326065832535839e+01  5.6258680030246865e+01  5.9923270670151595e+01  5.8751346579383920e+01  6.1028188492866803e+01  6.2466581301513855e+01  6.1186271849798047e+01  6.4950919738127681e+01  6.3553492422151614e+01  5.9809979093207332e+01  6.2074256755020144e+01  6.5852348903407687e+01  6.4273213874951082e+01  6.0553894284411172e+01  6.2636983094899911e+01  5.8992905164067629e+01  6.0952654239090549e+01  6.4628839911548582e+01  6.2825292537683538e+01  5.9220705449448793e+01  6.0978676599006818e+01  5.7450059194321675e+01  5.9095503988664305e+01  6.2645520956879906e+01  6.0648295865146032e+01  5.7181665152628021e+01  5.8623205543830480e+01  6.2103702803477290e+01  5.9966834658193584e+01  5.6575617982417349e+01  5.7810489961696994e+01  6.1208226967036616e+01  5.8943343694192130e+01  6.2343293444717737e+01  5.4510514579195167e+01  5.9970418295579201e+01  6.3367949258599396e+01  6.0888221255587354e+01  6.4278605861492224e+01  6.1693536585603908e+01  6.5071921080681548e+01  6.2383567982672460e+01  6.5744568330823583e+01  5.9109296102018178e+01  6.2955510870602019e+01  6.6294071841520008e+01  6.3407243001399358e+01  6.6718219158995822e+01  6.3737194047795114e+01  6.7015286756030761e+01  6.3943922890125442e+01  6.7184191077288290e+01  6.4026891048573205e+01  6.7224206439254601e+01  6.3985752476503755e+01  6.7135467857865038e+01  6.0894955329734891e+01  6.7761419654842186e+01  1.5133204126029597e+02  6.3820611296158354e+01  6.6918607156375415e+01  6.3533122704502063e+01  6.6574861918281229e+01  1.5193075332904706e+02  6.3124491709030060e+01  6.6106192049481635e+01  1.5235719969368554e+02  6.2596893624870077e+01  6.5515124365831184e+01  6.9127341458560636e+01  6.8466759355564818e+01  6.4804685169091769e+01  6.7683865110956162e+01  7.0366406802586923e+01  5.9717544776879649e+01  6.3978905537859887e+01  6.6783247265555161e+01  7.0584264513784703e+01  6.9602097196129591e+01  6.5768728805287111e+01  6.8504629467050648e+01  7.2428836911239060e+01  7.1242024041127436e+01  6.7297258903242664e+01  6.9944658663627251e+01  7.3973451263194860e+01  7.2579979507833670e+01  6.8543107738119687e+01  7.1081706352492958e+01  7.5202289270658184e+01  7.3598219078681680e+01  6.9487584293475194e+01  7.1898504404213057e+01  7.6074134216806613e+01  7.4268227285769825e+01  7.0114194470576820e+01  7.2379792229336005e+01  7.6587501454287946e+01  7.4590760700515460e+01  7.8847169862117639e+01  7.6737720554628709e+01  7.2519791585676543e+01  7.4557235868898630e+01  7.8810891246217238e+01  7.6517971130188329e+01  7.2315330698955421e+01  7.4167803376577112e+01  7.8392800130859698e+01  7.5932142384289946e+01  8.0172111137531687e+01  7.7599471399278301e+01  8.1846739211984556e+01  7.9161385706596377e+01  7.4989748696933376e+01  7.6444820226521614e+01  8.0609477963330605e+01  7.7786342835033594e+01  8.1935659141392662e+01  7.9006963686892576e+01  8.3132311328827740e+01  8.0099736483665822e+01  8.4192344578284022e+01  8.1058391042120164e+01  7.7065657728059065e+01  7.7930186798617640e+01  8.1877393702519072e+01  7.8660066297154444e+01  8.2550161504609392e+01  7.9247498719108279e+01  8.3075157487827795e+01  7.9690209087472823e+01  8.3454760105049871e+01  7.9985639844972511e+01  8.3673591984105244e+01  8.0133947089014356e+01  8.3729917544670187e+01  8.0129783739532755e+01  8.3633060287085300e+01  7.9975452531117668e+01  8.3398659596429624e+01  7.9674277829769920e+01  8.2993329675234392e+01  7.9222915843763687e+01  8.2410964810646462e+01  7.8619429242823031e+01  8.1693474577896524e+01  7.7874938617026729e+01  8.0833704188632609e+01  7.4907371934681237e+01  7.4139614831784527e+01  7.1278929870351789e+01  7.0490462020689819e+01  6.7736443960727911e+01  6.6931495762517230e+01  6.4282284296772559e+01  6.3463728175188947e+01  6.0917548457156030e+01  6.0088396779923343e+01  6.2529355598856874e+01  5.7643346555896002e+01  7.5971330022281819e+01  5.9148053893844434e+01  6.1482466576859274e+01  5.8100752423515402e+01  6.0326880221741916e+01  5.6948264500374002e+01  5.9066291585955064e+01  5.5693929782513713e+01  5.7704690777212598e+01  5.4343452419554957e+01  5.2420084594162468e+01  5.6246677027181249e+01  5.1081365668486988e+01  4.9244271224953131e+01  4.7917377749902649e+01  4.6165392286727958e