<?xml version="1.0"?>
<VTKFile type="UnstructuredGrid"  version="0.1"  >
<UnstructuredGrid>
<Piece  NumberOfPoints="11902" NumberOfCells="23402">
<Points>
<DataArray  type="Float64"  NumberOfComponents="3"  format="ascii">-5 -5 0  5 -5 0  5 5 0  -5 5 0  1.151032649185973 0.001012289280346475 0  -4.9 -5 0  -4.8 -5 0  -4.7 -5 0  -4.6 -5 0  -4.5 -5 0  -4.4 -5 0  -4.3 -5 0  -4.2 -5 0  -4.1 -5 0  -4 -5 0  -3.9 -5 0  -3.8 -5 0  -3.7 -5 0  -3.6 -5 0  -3.5 -5 0  -3.4 -5 0  -3.3 -5 0  -3.2 -5 0  -3.1 -5 0  -3 -5 0  -2.9 -5 0  -2.8 -5 0  -2.7 -5 0  -2.6 -5 0  -2.5 -5 0  -2.4 -5 0  -2.3 -5 0  -2.2 -5 0  -2.1 -5 0  -2 -5 0  -1.9 -5 0  -1.8 -5 0  -1.7 -5 0  -1.6 -5 0  -1.5 -5 0  -1.4 -5 0  -1.3 -5 0  -1.2 -5 0  -1.1 -5 0  -1 -5 0  -0.9000000000000004 -5 0  -0.7999999999999998 -5 0  -0.7000000000000002 -5 0  -0.5999999999999996 -5 0  -0.5 -5 0  -0.4000000000000004 -5 0  -0.2999999999999998 -5 0  -0.2000000000000002 -5 0  -0.09999999999999964 -5 0  0 -5 0  0.09999999999999964 -5 0  0.2000000000000002 -5 0  0.2999999999999998 -5 0  0.4000000000000004 -5 0  0.5 -5 0  0.5999999999999996 -5 0  0.7000000000000002 -5 0  0.7999999999999998 -5 0  0.9000000000000004 -5 0  1 -5 0  1.1 -5 0  1.2 -5 0  1.3 -5 0  1.4 -5 0  1.5 -5 0  1.6 -5 0  1.7 -5 0  1.8 -5 0  1.9 -5 0  2 -5 0  2.1 -5 0  2.2 -5 0  2.3 -5 0  2.4 -5 0  2.5 -5 0  2.6 -5 0  2.7 -5 0  2.8 -5 0  2.9 -5 0  3 -5 0  3.1 -5 0  3.199999999999999 -5 0  3.300000000000001 -5 0  3.4 -5 0  3.5 -5 0  3.6 -5 0  3.699999999999999 -5 0  3.800000000000001 -5 0  3.9 -5 0  4 -5 0  4.1 -5 0  4.199999999999999 -5 0  4.300000000000001 -5 0  4.4 -5 0  4.5 -5 0  4.6 -5 0  4.699999999999999 -5 0  4.800000000000001 -5 0  4.9 -5 0  5 -4.9 0  5 -4.8 0  5 -4.7 0  5 -4.6 0  5 -4.5 0  5 -4.4 0  5 -4.3 0  5 -4.2 0  5 -4.1 0  5 -4 0  5 -3.9 0  5 -3.8 0  5 -3.7 0  5 -3.6 0  5 -3.5 0  5 -3.4 0  5 -3.3 0  5 -3.2 0  5 -3.1 0  5 -3 0  5 -2.9 0  5 -2.8 0  5 -2.7 0  5 -2.6 0  5 -2.5 0  5 -2.4 0  5 -2.3 0  5 -2.2 0  5 -2.1 0  5 -2 0  5 -1.9 0  5 -1.8 0  5 -1.7 0  5 -1.6 0  5 -1.5 0  5 -1.4 0  5 -1.3 0  5 -1.2 0  5 -1.1 0  5 -1 0  5 -0.9000000000000004 0  5 -0.7999999999999998 0  5 -0.7000000000000002 0  5 -0.5999999999999996 0  5 -0.5 0  5 -0.4000000000000004 0  5 -0.2999999999999998 0  5 -0.2000000000000002 0  5 -0.09999999999999964 0  5 0 0  5 0.09999999999999964 0  5 0.2000000000000002 0  5 0.2999999999999998 0  5 0.4000000000000004 0  5 0.5 0  5 0.5999999999999996 0  5 0.7000000000000002 0  5 0.7999999999999998 0  5 0.9000000000000004 0  5 1 0  5 1.1 0  5 1.2 0  5 1.3 0  5 1.4 0  5 1.5 0  5 1.6 0  5 1.7 0  5 1.8 0  5 1.9 0  5 2 0  5 2.1 0  5 2.2 0  5 2.3 0  5 2.4 0  5 2.5 0  5 2.6 0  5 2.7 0  5 2.8 0  5 2.9 0  5 3 0  5 3.1 0  5 3.199999999999999 0  5 3.300000000000001 0  5 3.4 0  5 3.5 0  5 3.6 0  5 3.699999999999999 0  5 3.800000000000001 0  5 3.9 0  5 4 0  5 4.1 0  5 4.199999999999999 0  5 4.300000000000001 0  5 4.4 0  5 4.5 0  5 4.6 0  5 4.699999999999999 0  5 4.800000000000001 0  5 4.9 0  4.9 5 0  4.8 5 0  4.7 5 0  4.6 5 0  4.5 5 0  4.4 5 0  4.3 5 0  4.2 5 0  4.1 5 0  4 5 0  3.9 5 0  3.8 5 0  3.7 5 0  3.6 5 0  3.5 5 0  3.4 5 0  3.3 5 0  3.2 5 0  3.1 5 0  3 5 0  2.9 5 0  2.8 5 0  2.7 5 0  2.6 5 0  2.5 5 0  2.4 5 0  2.3 5 0  2.2 5 0  2.1 5 0  2 5 0  1.9 5 0  1.8 5 0  1.7 5 0  1.6 5 0  1.5 5 0  1.4 5 0  1.3 5 0  1.2 5 0  1.1 5 0  1 5 0  0.9000000000000004 5 0  0.7999999999999998 5 0  0.7000000000000002 5 0  0.5999999999999996 5 0  0.5 5 0  0.4000000000000004 5 0  0.2999999999999998 5 0  0.2000000000000002 5 0  0.09999999999999964 5 0  0 5 0  -0.09999999999999964 5 0  -0.2000000000000002 5 0  -0.2999999999999998 5 0  -0.4000000000000004 5 0  -0.5 5 0  -0.5999999999999996 5 0  -0.7000000000000002 5 0  -0.7999999999999998 5 0  -0.9000000000000004 5 0  -1 5 0  -1.1 5 0  -1.2 5 0  -1.3 5 0  -1.4 5 0  -1.5 5 0  -1.6 5 0  -1.7 5 0  -1.8 5 0  -1.9 5 0  -2 5 0  -2.1 5 0  -2.2 5 0  -2.3 5 0  -2.4 5 0  -2.5 5 0  -2.6 5 0  -2.7 5 0  -2.8 5 0  -2.9 5 0  -3 5 0  -3.1 5 0  -3.199999999999999 5 0  -3.300000000000001 5 0  -3.4 5 0  -3.5 5 0  -3.6 5 0  -3.699999999999999 5 0  -3.800000000000001 5 0  -3.9 5 0  -4 5 0  -4.1 5 0  -4.199999999999999 5 0  -4.300000000000001 5 0  -4.4 5 0  -4.5 5 0  -4.6 5 0  -4.699999999999999 5 0  -4.800000000000001 5 0  -4.9 5 0  -5 4.9 0  -5 4.8 0  -5 4.7 0  -5 4.6 0  -5 4.5 0  -5 4.4 0  -5 4.3 0  -5 4.2 0  -5 4.1 0  -5 4 0  -5 3.9 0  -5 3.8 0  -5 3.7 0  -5 3.6 0  -5 3.5 0  -5 3.4 0  -5 3.3 0  -5 3.2 0  -5 3.1 0  -5 3 0  -5 2.9 0  -5 2.8 0  -5 2.7 0  -5 2.6 0  -5 2.5 0  -5 2.4 0  -5 2.3 0  -5 2.2 0  -5 2.1 0  -5 2 0  -5 1.9 0  -5 1.8 0  -5 1.7 0  -5 1.6 0  -5 1.5 0  -5 1.4 0  -5 1.3 0  -5 1.2 0  -5 1.1 0  -5 1 0  -5 0.9000000000000004 0  -5 0.7999999999999998 0  -5 0.7000000000000002 0  -5 0.5999999999999996 0  -5 0.5 0  -5 0.4000000000000004 0  -5 0.2999999999999998 0  -5 0.2000000000000002 0  -5 0.09999999999999964 0  -5 0 0  -5 -0.09999999999999964 0  -5 -0.2000000000000002 0  -5 -0.2999999999999998 0  -5 -0.4000000000000004 0  -5 -0.5 0  -5 -0.5999999999999996 0  -5 -0.7000000000000002 0  -5 -0.7999999999999998 0  -5 -0.9000000000000004 0  -5 -1 0  -5 -1.1 0  -5 -1.2 0  -5 -1.3 0  -5 -1.4 0  -5 -1.5 0  -5 -1.6 0  -5 -1.7 0  -5 -1.8 0  -5 -1.9 0  -5 -2 0  -5 -2.1 0  -5 -2.2 0  -5 -2.3 0  -5 -2.4 0  -5 -2.5 0  -5 -2.6 0  -5 -2.7 0  -5 -2.8 0  -5 -2.9 0  -5 -3 0  -5 -3.1 0  -5 -3.199999999999999 0  -5 -3.300000000000001 0  -5 -3.4 0  -5 -3.5 0  -5 -3.6 0  -5 -3.699999999999999 0  -5 -3.800000000000001 0  -5 -3.9 0  -5 -4 0  -5 -4.1 0  -5 -4.199999999999999 0  -5 -4.300000000000001 0  -5 -4.4 0  -5 -4.5 0  -5 -4.6 0  -5 -4.699999999999999 0  -5 -4.800000000000001 0  -5 -4.9 0  1.145452713110257 0.1001125918181465 0  1.127891209983885 0.1991095471224111 0  1.098280713657744 0.2967867471306823 0  1.059511144214672 0.3895545414808677 0  1.009515786358302 0.4804865837180718 0  0.9501937982645486 0.566007061630571 0  0.8805748872457094 0.6457961542238951 0  0.8016581737522596 0.7187138586580131 0  0.715759777763367 0.7848290893041328 0  0.6225609084118521 0.8436222435694242 0  0.5225415885101575 0.8938229058605259 0  0.4176548770709048 0.9352812248477945 0  0.310115775326851 0.9678984374973338 0  0.198246912630481 0.9901562969758664 0  0.08607882380509023 1.003428275445873 0  -0.02733789375785303 1.006062806204328 0  -0.14060097072711 0.9976113252311932 0  -0.253291496362004 0.9803968772422368 0  -0.3634493898626276 0.9536786896336099 0  -0.4694497796816204 0.9169874016728697 0  -0.5705252118424092 0.8716282331297998 0  -0.6664710669416238 0.8169778438948523 0  -0.7557445862400025 0.7544750770515629 0  -0.8379325736819774 0.6845528821685303 0  -0.912380788834676 0.6068095830848385 0  -0.9771514552821974 0.5238390202338755 0  -1.032940687951899 0.4362663346230857 0  -1.077798029651136 0.3436180075328943 0  -1.111548073835757 0.2484007342419552 0  -1.1344410168988 0.1507298669617139 0  -1.146091388016079 0.05087534812180271 0  -1.146115185871771 -0.0495758152804717 0  -1.134472219138322 -0.149209516694769 0  -1.112766893587015 -0.2468815489158347 0  -1.077627443252752 -0.3431077366082704 0  -1.033282314863609 -0.435025051390752 0  -0.9778700241397806 -0.5228504172935263 0  -0.9133637054390381 -0.6054691846424416 0  -0.8389750779267922 -0.6823269811060901 0  -0.7562759230931985 -0.7517428723156984 0  -0.6661906546931429 -0.8133536356501078 0  -0.5708903791415583 -0.8680391902828672 0  -0.4676705857295186 -0.9138962286554894 0  -0.3614848036895652 -0.9514405369265202 0  -0.251240562638992 -0.9788919985836848 0  -0.13931062809491 -0.9965737900402181 0  -0.02660619038000478 -1.005437963253872 0  0.08659635919861228 -1.001997428633867 0  0.2000401923703796 -0.9885019344836909 0  0.3110735345948203 -0.9664040488317304 0  0.4201515761695644 -0.9339741578245611 0  0.5236375339271915 -0.8928304547374377 0  0.6231174422171385 -0.8429266058672078 0  0.715998566629298 -0.7854674206944509 0  0.8018113278665243 -0.7191975208917799 0  0.880177476016985 -0.6452495129757583 0  0.9492198973581121 -0.565279908347987 0  1.009578254795762 -0.4800091347813673 0  1.060597945986013 -0.3896615855181099 0  1.0994351929966 -0.2958752243660047 0  1.128021126261729 -0.198458150712617 0  1.145468902082644 -0.09974805443500483 0  -2.449004012244032 4.918929969720951 0  -2.448917759895533 -4.911382190797317 0  4.911327143600383 2.448531157067276 0  4.919369888122506 -2.449935001531959 0  2.446726193605065 -4.896768742651203 0  2.441141505443867 4.900497597645231 0  -4.911346803649581 -2.448550624251226 0  -4.911346256690575 2.448554432115952 0  -1.748973815064119 4.912178728745523 0  -1.744740701378311 -4.915573358847291 0  4.921743425673831 1.74464589925999 0  4.910434233599271 -1.748491295310032 0  -4.910714125888964 -1.748215777633426 0  -4.911527376998513 1.747953801372077 0  1.746275103708718 4.906122385761432 0  1.747746601541418 -4.8944197682811 0  -1.149191583167619 4.910209325210812 0  -1.130012326733408 -4.918005694582153 0  -4.910751001622102 -1.148429445282789 0  -4.910574463412496 1.148229164386115 0  1.144163340827273 -4.914248982378553 0  1.14919713597347 4.910200070754103 0  4.91090408198678 1.146708812619451 0  4.921544715378438 -1.152432435708656 0  -0.5468515691312102 -4.911520467362249 0  -0.5466158054892252 4.920064915494522 0  -4.909740527112052 -0.5489874841418132 0  -4.909765493947895 0.5475420786305677 0  4.909090292410491 -0.5493111391099437 0  4.920517688270408 0.5460304316323139 0  0.5426510715449295 -4.898620097789561 0  0.5513476698050296 4.916941488490431 0  -4.912482904857722 -3.048799401847092 0  4.919014715376616 3.046782987101646 0  4.911997372807072 -3.048783301342994 0  -4.913327904589168 3.045886881799758 0  3.055682548889918 -4.917966311610187 0  -3.049041736541557 -4.911942191604676 0  3.052600382909282 4.914009330638589 0  -3.048485099444888 4.912827001041741 0  -4.908944820509845 -0.0499355604519621 0  0.04513124059582383 -4.91348253845972 0  0.04958000129115112 4.920393573787025 0  4.915872467962264 -0.05131589701095648 0  3.545921109966516 -4.919434941467471 0  -3.549228281968844 4.912366
[...]
<PointData  Scalars="f_30"> 
<DataArray  type="Float64"  Name="f_30"  format="ascii">0.0000000000000000e+00  0.0000000000000000e+00  0.0000000000000000e+00  0.0000000000000000e+00  4.7285318247304259e-01  0.0000000000000000e+00  0.0000000000000000e+00  0.0000000000000000e+00  0.0000000000000000e+00  0.0000000000000000e+00  0.0000000000000000e+00  0.0000000000000000e+00  0.0000000000000000e+00  0.0000000000000000e+00  0.0000000000000000e+00  0.0000000000000000e+00  0.0000000000000000e+00  0.0000000000000000e+00  0.0000000000000000e+00  0.0000000000000000e+00  0.0000000000000000e+00  0.0000000000000000e+00  0.0000000000000000e+00  0.0000000000000000e+00  0.0000000000000000e+00  0.0000000000000000e+00  0.0000000000000000e+00  0.0000000000000000e+00  0.0000000000000000e+00  0.0000000000000000e+00  0.0000000000000000e+00  0.0000000000000000e+00  0.0000000000000000e+00  0.0000000000000000e+00  0.0000000000000000e+00  0.0000000000000000e+00  0.0000000000000000e+00  0.0000000000000000e+00  0.0000000000000000e+00  0.0000000000000000e+00  0.0000000000000000e+00  0.0000000000000000e+00  0.0000000000000000e+00  0.0000000000000000e+00  0.0000000000000000e+00  0.0000000000000000e+00  0.0000000000000000e+00  0.0000000000000000e+00  0.0000000000000000e+00  0.0000000000000000e+00  0.0000000000000000e+00  0.0000000000000000e+00  0.0000000000000000e+00  0.0000000000000000e+00  0.0000000000000000e+00  0.0000000000000000e+00  0.0000000000000000e+00  0.0000000000000000e+00  0.0000000000000000e+00  0.0000000000000000e+00  0.0000000000000000e+00  0.0000000000000000e+00  0.0000000000000000e+00  0.0000000000000000e+00  0.0000000000000000e+00  0.0000000000000000e+00  0.0000000000000000e+00  0.0000000000000000e+00  0.0000000000000000e+00  0.0000000000000000e+00  0.0000000000000000e+00  0.0000000000000000e+00  0.0000000000000000e+00  0.0000000000000000e+00  0.0000000000000000e+00  0.0000000000000000e+00  0.0000000000000000e+00  0.0000000000000000e+00  0.0000000000000000e+00  0.0000000000000000e+00  0.0000000000000000e+00  0.0000000000000000e+00  0.0000000000000000e+00  0.0000000000000000e+00  0.0000000000000000e+00  0.0000000000000000e+00  0.0000000000000000e+00  0.0000000000000000e+00  0.0000000000000000e+00  0.0000000000000000e+00  0.0000000000000000e+00  0.0000000000000000e+00  0.0000000000000000e+00  0.0000000000000000e+00  0.0000000000000000e+00  0.0000000000000000e+00  0.0000000000000000e+00  0.0000000000000000e+00  0.0000000000000000e+00  0.0000000000000000e+00  0.0000000000000000e+00  0.0000000000000000e+00  0.0000000000000000e+00  0.0000000000000000e+00  0.0000000000000000e+00  0.0000000000000000e+00  0.0000000000000000e+00  0.0000000000000000e+00  0.0000000000000000e+00  0.0000000000000000e+00  0.0000000000000000e+00  0.0000000000000000e+00  0.0000000000000000e+00  0.0000000000000000e+00  0.0000000000000000e+00  0.0000000000000000e+00  0.0000000000000000e+00  0.0000000000000000e+00  0.0000000000000000e+00  0.0000000000000000e+00  0.0000000000000000e+00  0.0000000000000000e+00  0.0000000000000000e+00  0.0000000000000000e+00  0.0000000000000000e+00  0.0000000000000000e+00  0.0000000000000000e+00  0.0000000000000000e+00  0.0000000000000000e+00  0.0000000000000000e+00  0.0000000000000000e+00  0.0000000000000000e+00  0.0000000000000000e+00  0.0000000000000000e+00  0.0000000000000000e+00  0.0000000000000000e+00  0.0000000000000000e+00  0.0000000000000000e+00  0.0000000000000000e+00  0.0000000000000000e+00  0.0000000000000000e+00  0.0000000000000000e+00  0.0000000000000000e+00  0.0000000000000000e+00  0.0000000000000000e+00  0.0000000000000000e+00  0.0000000000000000e+00  0.0000000000000000e+00  0.0000000000000000e+00  0.0000000000000000e+00  0.0000000000000000e+00  0.0000000000000000e+00  0.0000000000000000e+00  0.0000000000000000e+00  0.0000000000000000e+00  0.0000000000000000e+00  0.0000000000000000e+00  0.0000000000000000e+00  0.0000000000000000e+00  0.0000000000000000e+00  0.0000000000000000e+00  0.0000000000000000e+00  0.0000000000000000e+00  0.0000000000000000e+00  0.0000000000000000e+00  0.0000000000000000e+00  0.0000000000000000e+00  0.0000000000000000e+00  0.0000000000000000e+00  0.0000000000000000e+00  0.0000000000000000e+00  0.0000000000000000e+00  0.0000000000000000e+00  0.0000000000000000e+00  0.0000000000000000e+00  0.0000000000000000e+00  0.0000000000000000e+00  0.0000000000000000e+00  0.0000000000000000e+00  0.0000000000000000e+00  0.0000000000000000e+00  0.0000000000000000e+00  0.0000000000000000e+00  0.0000000000000000e+00  0.0000000000000000e+00  0.0000000000000000e+00  0.0000000000000000e+00  0.0000000000000000e+00  0.0000000000000000e+00  0.0000000000000000e+00  0.0000000000000000e+00  0.0000000000000000e+00  0.0000000000000000e+00  0.0000000000000000e+00  0.0000000000000000e+00  0.0000000000000000e+00  0.0000000000000000e+00  0.0000000000000000e+00  0.0000000000000000e+00  0.0000000000000000e+00  0.0000000000000000e+00  0.0000000000000000e+00  0.0000000000000000e+00  0.0000000000000000e+00  0.0000000000000000e+00  0.0000000000000000e+00  0.0000000000000000e+00  0.0000000000000000e+00  0.0000000000000000e+00  0.0000000000000000e+00  0.0000000000000000e+00  0.0000000000000000e+00  0.0000000000000000e+00  0.0000000000000000e+00  0.0000000000000000e+00  0.0000000000000000e+00  0.0000000000000000e+00  0.0000000000000000e+00  0.0000000000000000e+00  0.0000000000000000e+00  0.0000000000000000e+00  0.0000000000000000e+00  0.0000000000000000e+00  0.0000000000000000e+00  0.0000000000000000e+00  0.0000000000000000e+00  0.0000000000000000e+00  0.0000000000000000e+00  0.0000000000000000e+00  0.0000000000000000e+00  0.0000000000000000e+00  0.0000000000000000e+00  0.0000000000000000e+00  0.0000000000000000e+00  0.0000000000000000e+00  0.0000000000000000e+00  0.0000000000000000e+00  0.0000000000000000e+00  0.0000000000000000e+00  0.0000000000000000e+00  0.0000000000000000e+00  0.0000000000000000e+00  0.0000000000000000e+00  0.0000000000000000e+00  0.0000000000000000e+00  0.0000000000000000e+00  0.0000000000000000e+00  0.0000000000000000e+00  0.0000000000000000e+00  0.0000000000000000e+00  0.0000000000000000e+00  0.0000000000000000e+00  0.0000000000000000e+00  0.0000000000000000e+00  0.0000000000000000e+00  0.0000000000000000e+00  0.0000000000000000e+00  0.0000000000000000e+00  0.0000000000000000e+00  0.0000000000000000e+00  0.0000000000000000e+00  0.0000000000000000e+00  0.0000000000000000e+00  0.0000000000000000e+00  0.0000000000000000e+00  0.0000000000000000e+00  0.0000000000000000e+00  0.0000000000000000e+00  0.0000000000000000e+00  0.0000000000000000e+00  0.0000000000000000e+00  0.0000000000000000e+00  0.0000000000000000e+00  0.0000000000000000e+00  0.0000000000000000e+00  0.0000000000000000e+00  0.0000000000000000e+00  0.0000000000000000e+00  0.0000000000000000e+00  0.0000000000000000e+00  0.0000000000000000e+00  0.0000000000000000e+00  0.0000000000000000e+00  0.0000000000000000e+00  0.0000000000000000e+00  0.0000000000000000e+00  0.0000000000000000e+00  0.0000000000000000e+00  0.0000000000000000e+00  0.0000000000000000e+00  0.0000000000000000e+00  0.0000000000000000e+00  0.0000000000000000e+00  0.0000000000000000e+00  0.0000000000000000e+00  0.0000000000000000e+00  0.0000000000000000e+00  0.0000000000000000e+00  0.0000000000000000e+00  0.0000000000000000e+00  0.0000000000000000e+00  0.0000000000000000e+00  0.0000000000000000e+00  0.0000000000000000e+00  0.0000000000000000e+00  0.0000000000000000e+00  0.0000000000000000e+00  0.0000000000000000e+00  0.0000000000000000e+00  0.0000000000000000e+00  0.0000000000000000e+00  0.0000000000000000e+00  0.0000000000000000e+00  0.0000000000000000e+00  0.0000000000000000e+00  0.0000000000000000e+00  0.0000000000000000e+00  0.0000000000000000e+00  0.0000000000000000e+00  0.0000000000000000e+00  0.0000000000000000e+00  0.0000000000000000e+00  0.0000000000000000e+00  0.0000000000000000e+00  0.0000000000000000e+00  0.0000000000000000e+00  0.0000000000000000e+00  0.0000000000000000e+00  0.0000000000000000e+00  0.0000000000000000e+00  0.0000000000000000e+00  0.0000000000000000e+00  0.0000000000000000e+00  0.0000000000000000e+00  0.0000000000000000e+00  0.0000000000000000e+00  0.0000000000000000e+00  0.0000000000000000e+00  0.0000000000000000e+00  0.0000000000000000e+00  0.0000000000000000e+00  0.0000000000000000e+00  0.0000000000000000e+00  0.0000000000000000e+00  0.0000000000000000e+00  0.0000000000000000e+00  0.0000000000000000e+00  0.0000000000000000e+00  0.0000000000000000e+00  0.0000000000000000e+00  0.0000000000000000e+00  0.0000000000000000e+00  0.0000000000000000e+00  0.0000000000000000e+00  0.0000000000000000e+00  0.0000000000000000e+00  0.0000000000000000e+00  0.0000000000000000e+00  0.0000000000000000e+00  0.0000000000000000e+00  0.0000000000000000e+00  0.0000000000000000e+00  0.0000000000000000e+00  0.0000000000000000e+00  0.0000000000000000e+00  0.0000000000000000e+00  0.0000000000000000e+00  0.0000000000000000e+00  0.0000000000000000e+00  0.0000000000000000e+00  0.0000000000000000e+00  0.0000000000000000e+00  0.0000000000000000e+00  0.0000000000000000e+00  0.0000000000000000e+00  0.0000000000000000e+00  0.0000000000000000e+00  0.0000000000000000e+00  0.0000000000000000e+00  0.0000000000000000e+00  0.0000000000000000e+00  0.0000000000000000e+00  0.0000000000000000e+00  0.0000000000000000e+00  0.0000000000000000e+00  0.0000000000000000e+00  0.0000000000000000e+00  0.0000000000000000e+00  0.0000000000000000e+00  0.0000000000000000e+00  0.0000000000000000e+00  0.0000000000000000e+00  0.0000000000000000e+00  0.0000000000000000e+00  0.0000000000000000e+00  0.0000000000000000e+00  0.0000000000000000e+00  0.0000000000000000e+00  0.0000000000000000e+00  0.0000000000000000e+00  0.0000000000000000e+00  4.8818652400323070e-01  4.6682406135006782e-01  3.6692192243087102e-01  3.7153270311194958e-01  4.3219729475964341e-01  5.4109914353718880e-01  5.2097027307776234e-01  4.0682944673053451e-01  4.5046766199226435e-01  5.5092803404688873e-01  5.0933493499659177e-01  4.8213423612137535e-01  5.7834082365125039e-01  4.4615419867888439e-01  4.6000173354134249e-01  4.4812610039292250e-01  3.8799674544601198e-01  4.7295474839169571e-01  4.9770323317511478e-01  4.4185431813526499e-01  4.7081080085162508e-01  4.5369054469802278e-01  4.7166139619430308e-01  5.1735734907244779e-01  4.6972679516990345e-01  4.1674970957708168e-01  4.8404088438341264e-01  4.5200142964916462e-01  3.9125267609260289e-01  4.2204488126467871e-01  4.5510455991159959e-01  4.6323025584667915e-01  4.3506625530641957e-01  5.9007601772468399e-01  4.4377804525430137e-01  4.9285380327089273e-01  4.5138854601110806e-01  5.1669574077181168e-01  5.1344059336448944e-01  4.4636907762809824e-01  3.5169137628887620e-01  5.4415207863401471e-01  4.3473407154858129e-01  5.1045189980561967e-01  4.9104571276401981e-01  4.5373309929319477e-01  6.3588329156111900e-01  5.5359731715420768e-01  4.7047901968585215e-01  4.9963584090564905e-01  4.5260057594107045e-01  4.1405312446703674e-01  4.5457387831948765e-01  5.2786899406940224e-01  4.8155787952170070e-01  4.6392251616038177e-01  4.1573659528937523e-01  4.6584415008028607e-01  5.8566074547196245e-01  4.9389865041820341e-01  4.7966017158604723e-01  5.0770062151298634e-01  3.6123883456858089e-27  -1.3178783378788666e-27  -2.6372991178412780e-27  -2.9362115691494163e-27  -1.2757520924200368e-27  -5.3221672183969229e-28  -2.0321712591911447e-28  1.8085997276047688e-27  7.1910781683988843e-27  4.1262604082818079e-27  -7.0167496062047136e-25  -6.6245829793604120e-25  5.4015514378655849e-25  1.1894522954993446e-24  3.7088301999332558e-26  3.0575545008365395e-26  -4.7808966573902625e-26  -3.0032868562467595e-26  -1.1242593303585315e-22  -1.6505399545786439e-22  -4.3273115051698755e-26  -4.9232555441552589e-26  4.7612443144870768e-23  4.7758647245577130e-23  -4.7331696025521139e-27  -3.9747578272818933e-26  -7.5369921613132405e-21  -7.1236227397885759e-21  -4.5758827363906912e-21  -4.8274271562470145e-21  8.3193374258516753e-26  -2.6522655089311827e-26  7.1703443371986581e-30  -8.8439308986418074e-30  -9.0742341601543642e-30  1.6282540815195225e-29  1.9759398178797689e-28  3.9844229494528442e-28  2.8927483728436863e-28  3.1817953847071360e-28  3.5536296797045913e-20  6.3537971797747375e-26  1.2229859998509514e-26  3.8447618944783303e-20  -9.0965288290592532e-30  -9.9263805656294167e-30  -6.2620584041057437e-30  2.3186076100642819e-31  2.4329241835648993e-31  2.3940969623474301e-31  1.4562220066790578e-31  -9.9633724416821371e-30  -6.1356151254761325e-33  -2.3068775701977762e-32  1.1371225196134342e-31  -4.0599767697557118e-33  2.5154940762726864e-32  -6.0625830031707242e-33  1.3756209269342597e-31  -9.9017201865789610e-34  -1.2942970707130011e-33  -4.6819406511149607e-34  -1.9574349396202150e-34  1.4856515504309546e-34  1.3409178689931499e-34  7.7341064759102706e-35  7.3735452958035952e-36  -1.6096907682367106e-33  2.7758148370088679e-20  4.6287745539950000e-26  -1.3625389453380376e-26  1.3821896082614368e-20  1.1675034745486097e-25  -3.4725248300956552e-24  1.3394908145331175e-21  8.8430430685075683e-22  -3.2579707753696500e-24  2.7350911513748301e-26  7.8784597062026147e-26  -5.2861917506066965e-26  -3.8568966693341359e-26  -1.1547888212348023e-23  3.9597117935363870e-22  4.1482005275434320e-22  -1.1338401414084179e-23  -2.5530879818367799e-27  8.8216270050698687e-26  -4.0412391682007552e-27  5.5602959768863563e-27  -6.5535584858855138e-27  8.9115022865881285e-26  1.1270771213798690e-25  -4.0124725552360872e-27  -2.4120413375257672e-27  3.0464777283288598e-26  2.8830722545986979e-26  -1.5704730146837457e-28  -7.7607889008894234e-28  -1.2225056290606029e-27  2.0590626341835648e-28  6.3878081289124795e-28  6.7275951211773597e-29  -1.5133890944622973e-28  -9.2258346266357623e-28  1.2567462727175975e-35  1.8952166440132489e-35  7.5316883379777007e-36  -1.6945981215975293e-36  6.4699473171822714e-36  1.5368907055252135e-36  1.0557452716988339e-35  5.2339798160277428e-37  2.7877468241034521e-20  1.2034065103889511e-25  1.1446228771862220e-25  1.3760365874907790e-20  -1.7864039240754138e-27  4.4955706650894486e-27  4.7957008499617846e-27  -7.1558357176552480e-27  -1.1865853130342671e-26  -7.0107881872199775e-29  -8.1947423348416427e-27  -2.0294426073441574e-26  3.5252792957653627e-30  -1.1191951584607607e-28  -7.3960489165115123e-29  2.8341012641867770e-30  3.4754383470023457e-30  -9.6395339953616094e-29  -1.2779622236039777e-28  1.1569374341422716e-30  -3.7499991318664396e-33  3.6441430850133042e-34  1.2053004127798979e-30  -1.2997726556210905e-32  2.7360764819488488e-31  -1.5412837457714026e-32  -3.6562413622049228e-32  1.2126589022782828e-33  8.1374533330010051e-31  -1.3325618623342349e-32  -1.3655506740672394e-33  2.9198326493369877e-34  -4.4317831281160006e-32  1.2637525076014763e-33  5.2319123702166388e-31  -1.7094962335350640e-32  -3.7014090555150836e-36  -1.7453804965378110e-36  -2.9595972711522946e-36  -3.4662499622035341e-36  3.4840952967649658e-20  -1.2995853864679978e-19  -8.5771481903562065e-20  4.2076950026529056e-19  2.0515161577116088e-19  -1.2097205756388105e-18  -3.1622073251320060e-19  2.8705392519906643e-18  -2.7975280538892081e-19  -4.3099799281815639e-18  4.7474874175469219e-18  -4.6496838469081978e-18  -2.3363935883207214e-17  6.8991207583267108e-17  8.0970994119064118e-17  -3.3342387112828911e-16  -2.1158945883612929e-16  1.1328875859876395e-15  3.8162534441137561e-16  -2.8846906178721434e-15  -2.0353338148910185e-16  -4.7525365228822898e-15  4.9165515322177897e-15  -1.6200972220885684e-15  -1.5863594039749004e-15  7.3808896743087267e-15  -2.5145867983052558e-14  -1.5924050876746851e-14  9.9126082617645968e-14  9.7169892566839154e-15  -1.8521729601291786e-13  5.6053609176159852e-14  -3.7650739612038479e-13  2.9176600882299468e-14  -1.9703581743749885e-13  8.8654769339492391e-13  1.5536374229516860e-13  -2.2293418411607828e-12  7.7802422809251637e-13  -1.2244336981672966e-13  -2.4767516820932600e-12  1.3240155931425742e-11  -1.0637196759524577e-13  -2.1326469245038236e-11  -2.3720652811213430e-11  1.5576247009935962e-11  -4.0435952045635633e-11  -2.6197012869003689e-11  -3.0475912355815685e-13  1.7310823077356968e-11  -4.9867791381256484e-11  -2.3475135708365248e-11  -1.2717075722085278e-12  1.8382148797902000e-11  -2.7278786695065840e-12  -3.2804594803148075e-12  -1.3737055712345156e-11  1.8262697308418627e-11  -1.8308174202759964e-12  -6.7099889825467560e-12  1.4874964285751263e-12  3.6898559551778888e-13  1.1085117084149789e-11  -8.5790477283647621e-12  9.5890423603977955e-13  3.5615956614539522e-12  -1.4405371068668909e-11  2.2790826713571139e-12  -9.7888607307938743e-13  2.8368194034349916e-13  -4.9727517276319703e-12  2.1933211487555420e-12  -8.9153970158411328e-12  1.4121257002927849e-13  1.4211347154363412e-12  2.1923162496117097e-12  -3.5655665932078081e-12  2.5691752892393494e-11  -9.9231836383598213e-12  4.6010883386463161e-11  -1.3699294576992752e-11  5.3263093434515947e-11  3.2758544443114060e-12  -1.4243374932830831e-11  5.2221928445210975e-11  -1.3903420620437955e-11  5.2098944759937683e-11  -1.4170391000088588e-11  5.2925328908540905e-11  -1.3636625499470843e-11  4.6053135976470950e-11  -1.0050731235664629e-11  2.6443074023302371e-11  -3.7217950371901907e-12  1.9329610684374549e-12  3.2815925322811251e-12  -1.3958261622082236e-10  2.4285553175915968e+00  1.9657194164978377e-12  -1.3155472465476814e-11  3.9195615624996417e-12  -1.2890727390801527e-11  2.4583694204445514e+00  2.4093829722575607e-12  -4.4108063762557476e-12  2.4261454588728770e+00  1.7731977757785074e-13  1.8651508228989157e-12  1.7157256419191346e-12  -1.0302683818332399e-11  2.3501704981713724e-12  -4.7670239444739935e-12  -1.9087587878106209e-10  -3.2984915697751077e-13  1.8432622162013398e-13  2.4645994618792017e-12  1.3488330398757501e-12  -1.3790391802535228e-11  3.1898842290656215e-12  -6.8563692268424137e-12  4.4371950605792525e-11  5.1244506266820084e-12  1.7258460486074644e-12  -1.0569915663675401e-11  2.9623779220875422e-11  2.7853214542685212e-11  -3.0702008538276115e-12  -2.6880776531977072e-12  -2.9987064453580343e-11  2.4130673408565458e-11  -4.4952484067280255e-12  2.5570520956601136e-12  -4.7095793014085747e-11  1.4854720459881492e-11  -3.5622357190870237e-12  2.0500077098583292e-12  -3.4324192561402681e-11  1.3009330063937116e-11  -1.6553381365765318e-11  -2.7050955813313565e-11  7.5645210111800980e-13  1.4717606745575713e-11  -2.5669976881303211e-11  -3.4304969201589272e-11  1.0572736092243905e-12  1.9253530088442484e-11  -3.8079961337835299e-11  -4.0373115780733859e-11  3.3819462365822074e-10  -1.0483233650328904e-10  3.4580262202041761e-11  2.7917972563319309e-10  -1.0165063647722889e-11  -1.5823944524088608e-10  7.0783422332481319e-10  -9.7361564377992057e-11  -3.1622957911767564e-10  3.3493437726218739e-10  -1.7628015493074807e-09  3.1752780930852240e-10  5.2665978374298325e-10  -9.3923099476300682e-10  5.5427483324598756e-11  4.6159473922017664e-10  -2.0802912132848755e-09  4.1337074458379834e-10  4.8791477384590569e-11  -7.7781119367458811e-10  6.2578760873556831e-09  -2.5231405359602959e-09  1.1102765719358518e-08  -2.6967308290744372e-09  6.0766426567025500e-09  3.0385538534295078e-10  -1.0068211705251986e-08  5.1677422116898050e-09  -2.7534221515263246e-08  8.9689482940372396e-09  -3.7317871121058265e-08  1.0594632896091532e-08  -4.0077937867425305e-08  1.0586085300952247e-08  -3.7174829456602013e-08  8.7248565376239339e-09  -2.6310946084593603e-08  5.0685734748521165e-09  -1.1416167857148009e-08  -1.8825365465793779e-09  -8.3021156752384955e-10  3.6490896694104897e-10  9.5298866335800032e-11  -6.0274824667556760e-11  2.9173086513974100e-12  6.9892875836813847e-12  -6.6547369627069541e-12  1.9364906208910285e-13  2.8335951113038213e-12  -1.2437671715057750e-11  -4.7751776163305301e-13  4.5647883880038257e-10  3.2651046166378072e-12  -1.0225749912801144e-11  1.8589515607180930e-12  -3.3190791006592984e-12  1.0211905271430146e-13  1.5019751705089903e-12  -5.0334253247577908e-13  1.3507411