<?xml version="1.0"?>
<VTKFile type="UnstructuredGrid"  version="0.1"  >
<UnstructuredGrid>
<Piece  NumberOfPoints="11902" NumberOfCells="23402">
<Points>
<DataArray  type="Float64"  NumberOfComponents="3"  format="ascii">-5 -5 0  5 -5 0  5 5 0  -5 5 0  1.202272924610971 0.001300049928576352 0  -4.9 -5 0  -4.8 -5 0  -4.7 -5 0  -4.6 -5 0  -4.5 -5 0  -4.4 -5 0  -4.3 -5 0  -4.2 -5 0  -4.1 -5 0  -4 -5 0  -3.9 -5 0  -3.8 -5 0  -3.7 -5 0  -3.6 -5 0  -3.5 -5 0  -3.4 -5 0  -3.3 -5 0  -3.2 -5 0  -3.1 -5 0  -3 -5 0  -2.9 -5 0  -2.8 -5 0  -2.7 -5 0  -2.6 -5 0  -2.5 -5 0  -2.4 -5 0  -2.3 -5 0  -2.2 -5 0  -2.1 -5 0  -2 -5 0  -1.9 -5 0  -1.8 -5 0  -1.7 -5 0  -1.6 -5 0  -1.5 -5 0  -1.4 -5 0  -1.3 -5 0  -1.2 -5 0  -1.1 -5 0  -1 -5 0  -0.9000000000000004 -5 0  -0.7999999999999998 -5 0  -0.7000000000000002 -5 0  -0.5999999999999996 -5 0  -0.5 -5 0  -0.4000000000000004 -5 0  -0.2999999999999998 -5 0  -0.2000000000000002 -5 0  -0.09999999999999964 -5 0  0 -5 0  0.09999999999999964 -5 0  0.2000000000000002 -5 0  0.2999999999999998 -5 0  0.4000000000000004 -5 0  0.5 -5 0  0.5999999999999996 -5 0  0.7000000000000002 -5 0  0.7999999999999998 -5 0  0.9000000000000004 -5 0  1 -5 0  1.1 -5 0  1.2 -5 0  1.3 -5 0  1.4 -5 0  1.5 -5 0  1.6 -5 0  1.7 -5 0  1.8 -5 0  1.9 -5 0  2 -5 0  2.1 -5 0  2.2 -5 0  2.3 -5 0  2.4 -5 0  2.5 -5 0  2.6 -5 0  2.7 -5 0  2.8 -5 0  2.9 -5 0  3 -5 0  3.1 -5 0  3.199999999999999 -5 0  3.300000000000001 -5 0  3.4 -5 0  3.5 -5 0  3.6 -5 0  3.699999999999999 -5 0  3.800000000000001 -5 0  3.9 -5 0  4 -5 0  4.1 -5 0  4.199999999999999 -5 0  4.300000000000001 -5 0  4.4 -5 0  4.5 -5 0  4.6 -5 0  4.699999999999999 -5 0  4.800000000000001 -5 0  4.9 -5 0  5 -4.9 0  5 -4.8 0  5 -4.7 0  5 -4.6 0  5 -4.5 0  5 -4.4 0  5 -4.3 0  5 -4.2 0  5 -4.1 0  5 -4 0  5 -3.9 0  5 -3.8 0  5 -3.7 0  5 -3.6 0  5 -3.5 0  5 -3.4 0  5 -3.3 0  5 -3.2 0  5 -3.1 0  5 -3 0  5 -2.9 0  5 -2.8 0  5 -2.7 0  5 -2.6 0  5 -2.5 0  5 -2.4 0  5 -2.3 0  5 -2.2 0  5 -2.1 0  5 -2 0  5 -1.9 0  5 -1.8 0  5 -1.7 0  5 -1.6 0  5 -1.5 0  5 -1.4 0  5 -1.3 0  5 -1.2 0  5 -1.1 0  5 -1 0  5 -0.9000000000000004 0  5 -0.7999999999999998 0  5 -0.7000000000000002 0  5 -0.5999999999999996 0  5 -0.5 0  5 -0.4000000000000004 0  5 -0.2999999999999998 0  5 -0.2000000000000002 0  5 -0.09999999999999964 0  5 0 0  5 0.09999999999999964 0  5 0.2000000000000002 0  5 0.2999999999999998 0  5 0.4000000000000004 0  5 0.5 0  5 0.5999999999999996 0  5 0.7000000000000002 0  5 0.7999999999999998 0  5 0.9000000000000004 0  5 1 0  5 1.1 0  5 1.2 0  5 1.3 0  5 1.4 0  5 1.5 0  5 1.6 0  5 1.7 0  5 1.8 0  5 1.9 0  5 2 0  5 2.1 0  5 2.2 0  5 2.3 0  5 2.4 0  5 2.5 0  5 2.6 0  5 2.7 0  5 2.8 0  5 2.9 0  5 3 0  5 3.1 0  5 3.199999999999999 0  5 3.300000000000001 0  5 3.4 0  5 3.5 0  5 3.6 0  5 3.699999999999999 0  5 3.800000000000001 0  5 3.9 0  5 4 0  5 4.1 0  5 4.199999999999999 0  5 4.300000000000001 0  5 4.4 0  5 4.5 0  5 4.6 0  5 4.699999999999999 0  5 4.800000000000001 0  5 4.9 0  4.9 5 0  4.8 5 0  4.7 5 0  4.6 5 0  4.5 5 0  4.4 5 0  4.3 5 0  4.2 5 0  4.1 5 0  4 5 0  3.9 5 0  3.8 5 0  3.7 5 0  3.6 5 0  3.5 5 0  3.4 5 0  3.3 5 0  3.2 5 0  3.1 5 0  3 5 0  2.9 5 0  2.8 5 0  2.7 5 0  2.6 5 0  2.5 5 0  2.4 5 0  2.3 5 0  2.2 5 0  2.1 5 0  2 5 0  1.9 5 0  1.8 5 0  1.7 5 0  1.6 5 0  1.5 5 0  1.4 5 0  1.3 5 0  1.2 5 0  1.1 5 0  1 5 0  0.9000000000000004 5 0  0.7999999999999998 5 0  0.7000000000000002 5 0  0.5999999999999996 5 0  0.5 5 0  0.4000000000000004 5 0  0.2999999999999998 5 0  0.2000000000000002 5 0  0.09999999999999964 5 0  0 5 0  -0.09999999999999964 5 0  -0.2000000000000002 5 0  -0.2999999999999998 5 0  -0.4000000000000004 5 0  -0.5 5 0  -0.5999999999999996 5 0  -0.7000000000000002 5 0  -0.7999999999999998 5 0  -0.9000000000000004 5 0  -1 5 0  -1.1 5 0  -1.2 5 0  -1.3 5 0  -1.4 5 0  -1.5 5 0  -1.6 5 0  -1.7 5 0  -1.8 5 0  -1.9 5 0  -2 5 0  -2.1 5 0  -2.2 5 0  -2.3 5 0  -2.4 5 0  -2.5 5 0  -2.6 5 0  -2.7 5 0  -2.8 5 0  -2.9 5 0  -3 5 0  -3.1 5 0  -3.199999999999999 5 0  -3.300000000000001 5 0  -3.4 5 0  -3.5 5 0  -3.6 5 0  -3.699999999999999 5 0  -3.800000000000001 5 0  -3.9 5 0  -4 5 0  -4.1 5 0  -4.199999999999999 5 0  -4.300000000000001 5 0  -4.4 5 0  -4.5 5 0  -4.6 5 0  -4.699999999999999 5 0  -4.800000000000001 5 0  -4.9 5 0  -5 4.9 0  -5 4.8 0  -5 4.7 0  -5 4.6 0  -5 4.5 0  -5 4.4 0  -5 4.3 0  -5 4.2 0  -5 4.1 0  -5 4 0  -5 3.9 0  -5 3.8 0  -5 3.7 0  -5 3.6 0  -5 3.5 0  -5 3.4 0  -5 3.3 0  -5 3.2 0  -5 3.1 0  -5 3 0  -5 2.9 0  -5 2.8 0  -5 2.7 0  -5 2.6 0  -5 2.5 0  -5 2.4 0  -5 2.3 0  -5 2.2 0  -5 2.1 0  -5 2 0  -5 1.9 0  -5 1.8 0  -5 1.7 0  -5 1.6 0  -5 1.5 0  -5 1.4 0  -5 1.3 0  -5 1.2 0  -5 1.1 0  -5 1 0  -5 0.9000000000000004 0  -5 0.7999999999999998 0  -5 0.7000000000000002 0  -5 0.5999999999999996 0  -5 0.5 0  -5 0.4000000000000004 0  -5 0.2999999999999998 0  -5 0.2000000000000002 0  -5 0.09999999999999964 0  -5 0 0  -5 -0.09999999999999964 0  -5 -0.2000000000000002 0  -5 -0.2999999999999998 0  -5 -0.4000000000000004 0  -5 -0.5 0  -5 -0.5999999999999996 0  -5 -0.7000000000000002 0  -5 -0.7999999999999998 0  -5 -0.9000000000000004 0  -5 -1 0  -5 -1.1 0  -5 -1.2 0  -5 -1.3 0  -5 -1.4 0  -5 -1.5 0  -5 -1.6 0  -5 -1.7 0  -5 -1.8 0  -5 -1.9 0  -5 -2 0  -5 -2.1 0  -5 -2.2 0  -5 -2.3 0  -5 -2.4 0  -5 -2.5 0  -5 -2.6 0  -5 -2.7 0  -5 -2.8 0  -5 -2.9 0  -5 -3 0  -5 -3.1 0  -5 -3.199999999999999 0  -5 -3.300000000000001 0  -5 -3.4 0  -5 -3.5 0  -5 -3.6 0  -5 -3.699999999999999 0  -5 -3.800000000000001 0  -5 -3.9 0  -5 -4 0  -5 -4.1 0  -5 -4.199999999999999 0  -5 -4.300000000000001 0  -5 -4.4 0  -5 -4.5 0  -5 -4.6 0  -5 -4.699999999999999 0  -5 -4.800000000000001 0  -5 -4.9 0  1.196248334014039 0.09896643880515452 0  1.17740356882585 0.197052208595195 0  1.145923097166537 0.2942529881998562 0  1.105224124539492 0.3856389430028934 0  1.052252671780834 0.4762870026485999 0  0.989931924238844 0.5613621009851052 0  0.9166488849703541 0.6411322544533896 0  0.8341195407112713 0.7139772615683422 0  0.7445787144544702 0.7796173662980601 0  0.6467580574506546 0.8380920018817011 0  0.5418053662431944 0.8890295653041062 0  0.4327903518664024 0.9310045460547515 0  0.3214762780857218 0.9638356915886466 0  0.204413259083673 0.9862192291272017 0  0.08862886532484709 1.001027167760908 0  -0.0277135208767205 1.003817888195451 0  -0.1442743397407625 0.9938891263830709 0  -0.2624785949130814 0.9761554519404936 0  -0.3772343475190323 0.9500575113298475 0  -0.4867450096901691 0.9135580818160004 0  -0.591597993054444 0.8679317285442505 0  -0.6913458436707605 0.8132152717920217 0  -0.7839124408662971 0.7502190954523129 0  -0.8700738604483867 0.6795829692790141 0  -0.9489839671005996 0.6014439196106502 0  -1.017466708135825 0.5190956340045396 0  -1.076375761820787 0.4322340341042086 0  -1.123990079248989 0.340185832313918 0  -1.159669952892977 0.2462624571722223 0  -1.183618489025889 0.1498242235118389 0  -1.195744428296601 0.05076862345050352 0  -1.19573568681006 -0.04897474915252861 0  -1.183543307682511 -0.1476839103696058 0  -1.1604297591694 -0.2441118593018824 0  -1.123410592338875 -0.3398477686133183 0  -1.076727871530747 -0.4310543333723509 0  -1.018482844709045 -0.5182151248360855 0  -0.950555439068981 -0.6001063220790082 0  -0.8719936022754404 -0.6770555507887882 0  -0.7854621867581503 -0.7466441169857594 0  -0.6915493591795699 -0.8078984249000692 0  -0.5917654292020696 -0.8621788717847454 0  -0.4839137698479924 -0.90913763196328 0  -0.3737923998888164 -0.9472313069905528 0  -0.259564347315698 -0.9748508255149865 0  -0.1428793963882257 -0.9930059503364871 0  -0.02736964665689938 -1.002926873687184 0  0.08923403552514692 -0.998380485555832 0  0.207416220854121 -0.9838799961788934 0  0.323155019836065 -0.9621655078640815 0  0.4362469099848134 -0.9295814079980609 0  0.543525392628753 -0.8880760012231412 0  0.6474971765508726 -0.837723280927288 0  0.7447401018424157 -0.7806208319357562 0  0.8341772764470612 -0.7147132835630463 0  0.9161387742886248 -0.6405881687003461 0  0.9884470052959146 -0.5607096348522056 0  1.052094421284342 -0.475706627700409 0  1.106246921246637 -0.385701493639338 0  1.147367718852719 -0.292754417388685 0  1.17768002484956 -0.1962097956882516 0  1.196274896450326 -0.09849962143853484 0  -2.448769043741228 4.91849589060508 0  -2.448662091106004 -4.910908899319815 0  4.91084263758738 2.448190274115867 0  4.918930317408759 -2.449625037952363 0  2.446428602311288 -4.896212490406465 0  2.440853652609123 4.899959627860738 0  -4.910866381221408 -2.448213538933861 0  -4.9108645813173 2.448217416394609 0  -1.748731261465042 4.911553701449636 0  -1.744508780853354 -4.914973580705353 0  4.921131178395308 1.744337283884617 0  4.909735015967038 -1.748137513776954 0  -4.910022797741208 -1.747867317603657 0  -4.910840933037998 1.747609041698458 0  1.746017605769604 4.905450894915475 0  1.747458069708306 -4.893665702908835 0  -1.148998617047688 4.909452549095728 0  -1.129838712412798 -4.917314076390999 0  -4.909885203168292 -1.14814263439895 0  -4.909705744056639 1.147942797826741 0  1.143982957044408 -4.913524744179794 0  1.149006393755121 4.909440940592423 0  4.910030955751537 1.146419741002388 0  4.920777813104976 -1.152176719149639 0  -0.5467512448128128 -4.910698815700968 0  -0.54652477040571 4.919320272863517 0  -4.908734347946802 -0.548827997041333 0  -4.908758735528601 0.5473843711361061 0  4.908067132642747 -0.5491485442181576 0  4.919622750008204 0.5458896699658268 0  0.5425410572459575 -4.897676127945853 0  0.5512551172905105 4.9161669159753 0  -4.912158956698945 -3.048520920434418 0  4.918712376291258 3.046522284767554 0  4.91166968137841 -3.048500210001388 0  -4.913005471099459 3.045610589738931 0  3.055473195578215 -4.917648113322575 0  -3.048816582241439 -4.911602196261474 0  3.052379989329843 4.91367482491904 0  -3.048261399046519 4.912489426268751 0  -4.907886070522648 -0.04991961561700455 0  0.04512516662308907 -4.912654716156079 0  0.04957299442817355 4.919629656116495 0  4.914885008401227 -0.05130097517953997 0  3.545754875296464 -4.91921215469016 0  -3.549047699358658 4.9121264927166
[...]
<PointData  Scalars="f_30"> 
<DataArray  type="Float64"  Name="f_30"  format="ascii">0.0000000000000000e+00  0.0000000000000000e+00  0.0000000000000000e+00  0.0000000000000000e+00  2.6326880844311479e-01  0.0000000000000000e+00  0.0000000000000000e+00  0.0000000000000000e+00  0.0000000000000000e+00  0.0000000000000000e+00  0.0000000000000000e+00  0.0000000000000000e+00  0.0000000000000000e+00  0.0000000000000000e+00  0.0000000000000000e+00  0.0000000000000000e+00  0.0000000000000000e+00  0.0000000000000000e+00  0.0000000000000000e+00  0.0000000000000000e+00  0.0000000000000000e+00  0.0000000000000000e+00  0.0000000000000000e+00  0.0000000000000000e+00  0.0000000000000000e+00  0.0000000000000000e+00  0.0000000000000000e+00  0.0000000000000000e+00  0.0000000000000000e+00  0.0000000000000000e+00  0.0000000000000000e+00  0.0000000000000000e+00  0.0000000000000000e+00  0.0000000000000000e+00  0.0000000000000000e+00  0.0000000000000000e+00  0.0000000000000000e+00  0.0000000000000000e+00  0.0000000000000000e+00  0.0000000000000000e+00  0.0000000000000000e+00  0.0000000000000000e+00  0.0000000000000000e+00  0.0000000000000000e+00  0.0000000000000000e+00  0.0000000000000000e+00  0.0000000000000000e+00  0.0000000000000000e+00  0.0000000000000000e+00  0.0000000000000000e+00  0.0000000000000000e+00  0.0000000000000000e+00  0.0000000000000000e+00  0.0000000000000000e+00  0.0000000000000000e+00  0.0000000000000000e+00  0.0000000000000000e+00  0.0000000000000000e+00  0.0000000000000000e+00  0.0000000000000000e+00  0.0000000000000000e+00  0.0000000000000000e+00  0.0000000000000000e+00  0.0000000000000000e+00  0.0000000000000000e+00  0.0000000000000000e+00  0.0000000000000000e+00  0.0000000000000000e+00  0.0000000000000000e+00  0.0000000000000000e+00  0.0000000000000000e+00  0.0000000000000000e+00  0.0000000000000000e+00  0.0000000000000000e+00  0.0000000000000000e+00  0.0000000000000000e+00  0.0000000000000000e+00  0.0000000000000000e+00  0.0000000000000000e+00  0.0000000000000000e+00  0.0000000000000000e+00  0.0000000000000000e+00  0.0000000000000000e+00  0.0000000000000000e+00  0.0000000000000000e+00  0.0000000000000000e+00  0.0000000000000000e+00  0.0000000000000000e+00  0.0000000000000000e+00  0.0000000000000000e+00  0.0000000000000000e+00  0.0000000000000000e+00  0.0000000000000000e+00  0.0000000000000000e+00  0.0000000000000000e+00  0.0000000000000000e+00  0.0000000000000000e+00  0.0000000000000000e+00  0.0000000000000000e+00  0.0000000000000000e+00  0.0000000000000000e+00  0.0000000000000000e+00  0.0000000000000000e+00  0.0000000000000000e+00  0.0000000000000000e+00  0.0000000000000000e+00  0.0000000000000000e+00  0.0000000000000000e+00  0.0000000000000000e+00  0.0000000000000000e+00  0.0000000000000000e+00  0.0000000000000000e+00  0.0000000000000000e+00  0.0000000000000000e+00  0.0000000000000000e+00  0.0000000000000000e+00  0.0000000000000000e+00  0.0000000000000000e+00  0.0000000000000000e+00  0.0000000000000000e+00  0.0000000000000000e+00  0.0000000000000000e+00  0.0000000000000000e+00  0.0000000000000000e+00  0.0000000000000000e+00  0.0000000000000000e+00  0.0000000000000000e+00  0.0000000000000000e+00  0.0000000000000000e+00  0.0000000000000000e+00  0.0000000000000000e+00  0.0000000000000000e+00  0.0000000000000000e+00  0.0000000000000000e+00  0.0000000000000000e+00  0.0000000000000000e+00  0.0000000000000000e+00  0.0000000000000000e+00  0.0000000000000000e+00  0.0000000000000000e+00  0.0000000000000000e+00  0.0000000000000000e+00  0.0000000000000000e+00  0.0000000000000000e+00  0.0000000000000000e+00  0.0000000000000000e+00  0.0000000000000000e+00  0.0000000000000000e+00  0.0000000000000000e+00  0.0000000000000000e+00  0.0000000000000000e+00  0.0000000000000000e+00  0.0000000000000000e+00  0.0000000000000000e+00  0.0000000000000000e+00  0.0000000000000000e+00  0.0000000000000000e+00  0.0000000000000000e+00  0.0000000000000000e+00  0.0000000000000000e+00  0.0000000000000000e+00  0.0000000000000000e+00  0.0000000000000000e+00  0.0000000000000000e+00  0.0000000000000000e+00  0.0000000000000000e+00  0.0000000000000000e+00  0.0000000000000000e+00  0.0000000000000000e+00  0.0000000000000000e+00  0.0000000000000000e+00  0.0000000000000000e+00  0.0000000000000000e+00  0.0000000000000000e+00  0.0000000000000000e+00  0.0000000000000000e+00  0.0000000000000000e+00  0.0000000000000000e+00  0.0000000000000000e+00  0.0000000000000000e+00  0.0000000000000000e+00  0.0000000000000000e+00  0.0000000000000000e+00  0.0000000000000000e+00  0.0000000000000000e+00  0.0000000000000000e+00  0.0000000000000000e+00  0.0000000000000000e+00  0.0000000000000000e+00  0.0000000000000000e+00  0.0000000000000000e+00  0.0000000000000000e+00  0.0000000000000000e+00  0.0000000000000000e+00  0.0000000000000000e+00  0.0000000000000000e+00  0.0000000000000000e+00  0.0000000000000000e+00  0.0000000000000000e+00  0.0000000000000000e+00  0.0000000000000000e+00  0.0000000000000000e+00  0.0000000000000000e+00  0.0000000000000000e+00  0.0000000000000000e+00  0.0000000000000000e+00  0.0000000000000000e+00  0.0000000000000000e+00  0.0000000000000000e+00  0.0000000000000000e+00  0.0000000000000000e+00  0.0000000000000000e+00  0.0000000000000000e+00  0.0000000000000000e+00  0.0000000000000000e+00  0.0000000000000000e+00  0.0000000000000000e+00  0.0000000000000000e+00  0.0000000000000000e+00  0.0000000000000000e+00  0.0000000000000000e+00  0.0000000000000000e+00  0.0000000000000000e+00  0.0000000000000000e+00  0.0000000000000000e+00  0.0000000000000000e+00  0.0000000000000000e+00  0.0000000000000000e+00  0.0000000000000000e+00  0.0000000000000000e+00  0.0000000000000000e+00  0.0000000000000000e+00  0.0000000000000000e+00  0.0000000000000000e+00  0.0000000000000000e+00  0.0000000000000000e+00  0.0000000000000000e+00  0.0000000000000000e+00  0.0000000000000000e+00  0.0000000000000000e+00  0.0000000000000000e+00  0.0000000000000000e+00  0.0000000000000000e+00  0.0000000000000000e+00  0.0000000000000000e+00  0.0000000000000000e+00  0.0000000000000000e+00  0.0000000000000000e+00  0.0000000000000000e+00  0.0000000000000000e+00  0.0000000000000000e+00  0.0000000000000000e+00  0.0000000000000000e+00  0.0000000000000000e+00  0.0000000000000000e+00  0.0000000000000000e+00  0.0000000000000000e+00  0.0000000000000000e+00  0.0000000000000000e+00  0.0000000000000000e+00  0.0000000000000000e+00  0.0000000000000000e+00  0.0000000000000000e+00  0.0000000000000000e+00  0.0000000000000000e+00  0.0000000000000000e+00  0.0000000000000000e+00  0.0000000000000000e+00  0.0000000000000000e+00  0.0000000000000000e+00  0.0000000000000000e+00  0.0000000000000000e+00  0.0000000000000000e+00  0.0000000000000000e+00  0.0000000000000000e+00  0.0000000000000000e+00  0.0000000000000000e+00  0.0000000000000000e+00  0.0000000000000000e+00  0.0000000000000000e+00  0.0000000000000000e+00  0.0000000000000000e+00  0.0000000000000000e+00  0.0000000000000000e+00  0.0000000000000000e+00  0.0000000000000000e+00  0.0000000000000000e+00  0.0000000000000000e+00  0.0000000000000000e+00  0.0000000000000000e+00  0.0000000000000000e+00  0.0000000000000000e+00  0.0000000000000000e+00  0.0000000000000000e+00  0.0000000000000000e+00  0.0000000000000000e+00  0.0000000000000000e+00  0.0000000000000000e+00  0.0000000000000000e+00  0.0000000000000000e+00  0.0000000000000000e+00  0.0000000000000000e+00  0.0000000000000000e+00  0.0000000000000000e+00  0.0000000000000000e+00  0.0000000000000000e+00  0.0000000000000000e+00  0.0000000000000000e+00  0.0000000000000000e+00  0.0000000000000000e+00  0.0000000000000000e+00  0.0000000000000000e+00  0.0000000000000000e+00  0.0000000000000000e+00  0.0000000000000000e+00  0.0000000000000000e+00  0.0000000000000000e+00  0.0000000000000000e+00  0.0000000000000000e+00  0.0000000000000000e+00  0.0000000000000000e+00  0.0000000000000000e+00  0.0000000000000000e+00  0.0000000000000000e+00  0.0000000000000000e+00  0.0000000000000000e+00  0.0000000000000000e+00  0.0000000000000000e+00  0.0000000000000000e+00  0.0000000000000000e+00  0.0000000000000000e+00  0.0000000000000000e+00  0.0000000000000000e+00  0.0000000000000000e+00  0.0000000000000000e+00  0.0000000000000000e+00  0.0000000000000000e+00  0.0000000000000000e+00  0.0000000000000000e+00  0.0000000000000000e+00  0.0000000000000000e+00  0.0000000000000000e+00  0.0000000000000000e+00  0.0000000000000000e+00  0.0000000000000000e+00  0.0000000000000000e+00  0.0000000000000000e+00  0.0000000000000000e+00  0.0000000000000000e+00  0.0000000000000000e+00  0.0000000000000000e+00  0.0000000000000000e+00  0.0000000000000000e+00  0.0000000000000000e+00  0.0000000000000000e+00  0.0000000000000000e+00  0.0000000000000000e+00  0.0000000000000000e+00  0.0000000000000000e+00  0.0000000000000000e+00  0.0000000000000000e+00  0.0000000000000000e+00  0.0000000000000000e+00  0.0000000000000000e+00  0.0000000000000000e+00  0.0000000000000000e+00  0.0000000000000000e+00  0.0000000000000000e+00  0.0000000000000000e+00  0.0000000000000000e+00  0.0000000000000000e+00  0.0000000000000000e+00  0.0000000000000000e+00  0.0000000000000000e+00  0.0000000000000000e+00  0.0000000000000000e+00  0.0000000000000000e+00  0.0000000000000000e+00  0.0000000000000000e+00  0.0000000000000000e+00  0.0000000000000000e+00  0.0000000000000000e+00  0.0000000000000000e+00  0.0000000000000000e+00  0.0000000000000000e+00  0.0000000000000000e+00  0.0000000000000000e+00  0.0000000000000000e+00  0.0000000000000000e+00  0.0000000000000000e+00  0.0000000000000000e+00  0.0000000000000000e+00  0.0000000000000000e+00  0.0000000000000000e+00  0.0000000000000000e+00  0.0000000000000000e+00  0.0000000000000000e+00  0.0000000000000000e+00  0.0000000000000000e+00  0.0000000000000000e+00  0.0000000000000000e+00  2.7245886224323407e-01  2.5709822262126791e-01  2.0122396345051663e-01  2.0165482237086868e-01  2.3544194562297857e-01  3.0277687625463706e-01  2.8868413739601351e-01  2.2274779882423662e-01  2.4802144515564842e-01  3.0641980527202523e-01  2.7957416967106336e-01  2.6783075003048568e-01  3.1916374084254850e-01  2.4268908907034462e-01  2.5076198255178062e-01  2.4602760490004788e-01  2.0973136586464242e-01  2.5551477970737946e-01  2.7542463271803730e-01  2.4285572740753875e-01  2.5773296100948501e-01  2.4783354061720586e-01  2.6006369122618167e-01  2.8564721516853764e-01  2.5865103958820101e-01  2.2962579272825229e-01  2.6740036916430515e-01  2.5030855756898496e-01  2.1363840708422929e-01  2.3184279099340635e-01  2.5036630068730070e-01  2.5669742353728625e-01  2.4247310938942113e-01  3.3502641900213248e-01  2.4455980836590016e-01  2.7528430721590363e-01  2.5004420289155171e-01  2.8724681938239144e-01  2.8342261345728920e-01  2.4586764632139996e-01  1.9185089502498731e-01  3.0436876763210685e-01  2.3765930282827863e-01  2.8318260473020512e-01  2.6775296794350406e-01  2.4853535964833126e-01  3.6086697196834328e-01  3.0832839904774106e-01  2.5684319129808614e-01  2.7267824111919092e-01  2.4850835360412388e-01  2.2446727040949419e-01  2.4864783743329014e-01  2.9495641273336004e-01  2.6532630473600793e-01  2.5512326255534268e-01  2.2768105077180129e-01  2.5528352580898678e-01  3.3013658804117640e-01  2.7582945051062091e-01  2.6744692118437224e-01  2.8299974726820865e-01  3.6122647595175746e-27  -1.3177966098351845e-27  -2.6372989479859352e-27  -2.9362112899462284e-27  -1.2755978665232117e-27  -5.3203085324243406e-28  -2.0321713225268062e-28  1.8085996850314431e-27  7.1909393095768538e-27  4.1262055955562407e-27  -7.0167492077650231e-25  -6.6245824630076831e-25  5.4015517198532735e-25  1.1894523267389981e-24  3.7089950496256717e-26  3.0576465668821537e-26  -4.7811777082505760e-26  -3.0032629641456559e-26  -1.1242593715046558e-22  -1.6505400113640954e-22  -4.3274137967331083e-26  -4.9233582940996297e-26  4.7612440154533152e-23  4.7758643999988286e-23  -4.7353103094049784e-27  -3.9749191154955846e-26  -7.5369922275721022e-21  -7.1236227362055743e-21  -4.5758827616656419e-21  -4.8274272925161358e-21  8.3197826797258818e-26  -2.6523724952840739e-26  7.1703416699715556e-30  -8.8439290881472666e-30  -9.0742327697285775e-30  1.6282538081673948e-29  1.9759665614784393e-28  3.9844429954770004e-28  2.8927639327290884e-28  3.1818127943944654e-28  3.5536296173879201e-20  6.3544020476775128e-26  1.2229770038690702e-26  3.8447619927018372e-20  -9.0965228658810680e-30  -9.9263771496774128e-30  -6.2620504968317052e-30  2.3186073599859222e-31  2.4329242211636337e-31  2.3940967012068787e-31  1.4562221251020783e-31  -9.9633743824203791e-30  -6.1356146753414887e-33  -2.3068874531701836e-32  1.1371222502879798e-31  -4.0599776269562752e-33  2.5154836725474633e-32  -6.0625822845799233e-33  1.3756203197310752e-31  -9.9017319686771435e-34  -1.2942972873677149e-33  -4.6819436806450126e-34  -1.9574372750585560e-34  1.4856514752457771e-34  1.3409178715123016e-34  7.7341091263724826e-35  7.3735807053904129e-36  -1.6096910864839203e-33  2.7758149335650358e-20  4.6288833283696373e-26  -1.3626073518667793e-26  1.3821896946373121e-20  1.1675237330576947e-25  -3.4725239754423488e-24  1.3394908185706935e-21  8.8430431168662210e-22  -3.2579698502368251e-24  2.7351812439515827e-26  7.8784138770449638e-26  -5.2867330325523573e-26  -3.8569837137204357e-26  -1.1547888457034332e-23  3.9597119616642223e-22  4.1482008328308456e-22  -1.1338401575134222e-23  -2.5522468391529803e-27  8.8215196198758178e-26  -4.0408312828436811e-27  5.5590841045073678e-27  -6.5543414388338204e-27  8.9115013757605954e-26  1.1270770335022952e-25  -4.0127173335347198e-27  -2.4123332865794108e-27  3.0464782090909963e-26  2.8830727190808300e-26  -1.5704727900450525e-28  -7.7608789217667729e-28  -1.2224917702864812e-27  2.0590623888819899e-28  6.3878638147401827e-28  6.7275927931101398e-29  -1.5133888800661936e-28  -9.2256087991443845e-28  1.2567464074055656e-35  1.8952171027264129e-35  7.5316873807009684e-36  -1.6946004524506157e-36  6.4699468774120929e-36  1.5368891533584782e-36  1.0557454964645520e-35  5.2339956278966802e-37  2.7877468436731669e-20  1.2034966949873571e-25  1.1446448471125710e-25  1.3760366818956191e-20  -1.7863605886657243e-27  4.4955695738989704e-27  4.7956996058819560e-27  -7.1559625651313796e-27  -1.1865851899018219e-26  -7.0000384969705674e-29  -8.1945692590868398e-27  -2.0294424857706409e-26  3.5252789409318095e-30  -1.1192011278449344e-28  -7.3960757257974959e-29  2.8341012950947786e-30  3.4754380469523549e-30  -9.6395357774003427e-29  -1.2779660859636629e-28  1.1569375515463808e-30  -3.7499970253746552e-33  3.6441419231580202e-34  1.2052993811879459e-30  -1.2997728341854915e-32  2.7360716612983048e-31  -1.5412839061602952e-32  -3.6562408019554370e-32  1.2126588504954676e-33  8.1374482175759427e-31  -1.3325621212635897e-32  -1.3655504670677191e-33  2.9198315760858055e-34  -4.4317825866603363e-32  1.2637524906098159e-33  5.2319095028331989e-31  -1.7094964953377838e-32  -3.7014095519376887e-36  -1.7453802951189052e-36  -2.9595976258294432e-36  -3.4662507437396804e-36  3.4840952705645336e-20  -1.2995853862035727e-19  -8.5771483170193659e-20  4.2076950336401699e-19  2.0515162076666284e-19  -1.2097205939045731e-18  -3.1622074717437283e-19  2.8705393226227271e-18  -2.7975277587775621e-19  -4.3099801325057658e-18  4.7474874060201580e-18  -4.6496834483894058e-18  -2.3363936121005307e-17  6.8991207484010558e-17  8.0970995545525092e-17  -3.3342387466674418e-16  -2.1158946424607198e-16  1.1328876063865435e-15  3.8162535983255362e-16  -2.8846906938146811e-15  -2.0353341306559865e-16  -4.7525365753393328e-15  4.9165517455555035e-15  -1.6200971957532598e-15  -1.5863598286578514e-15  7.3808898057311486e-15  -2.5145867705347014e-14  -1.5924051665111679e-14  9.9126084693083701e-14  9.7169916509432180e-15  -1.8521730736189309e-13  5.6053605169193511e-14  -3.7650739348101139e-13  2.9176633653049257e-14  -1.9703581955409339e-13  8.8654764621094264e-13  1.5536377994148379e-13  -2.2293419030989964e-12  7.7802410846034484e-13  -1.2244279444969994e-13  -2.4767515450949151e-12  1.3240154388070566e-11  -1.0637157185311685e-13  -2.1326470592298910e-11  -2.3720651849811348e-11  1.5576244909345073e-11  -4.0435944349479805e-11  -2.6197009711943900e-11  -3.0475902882823948e-13  1.7310820847591428e-11  -4.9867785975687488e-11  -2.3475131254448249e-11  -1.2717077023907389e-12  1.8382146586971550e-11  -2.7278782057806043e-12  -3.2804596528418167e-12  -1.3737051079957297e-11  1.8262695127514478e-11  -1.8308169784017661e-12  -6.7099889994522719e-12  1.4874963047882236e-12  3.6898594984550626e-13  1.1085115015412914e-11  -8.5790474834020835e-12  9.5890410130924438e-13  3.5615958649789061e-12  -1.4405372717000317e-11  2.2790831072169459e-12  -9.7888619321632281e-13  2.8368197733998625e-13  -4.9727526316042715e-12  2.1933215665559948e-12  -8.9153982259850771e-12  1.4121259367145159e-13  1.4211344248721503e-12  2.1923203425512530e-12  -3.5655684194942071e-12  2.5691758424985748e-11  -9.9231827093329497e-12  4.6010863762762280e-11  -1.3699283041181384e-11  5.3263031486357595e-11  3.2758528973203138e-12  -1.4243357426285840e-11  5.2221888561957976e-11  -1.3903428237105380e-11  5.2099072672885928e-11  -1.4170457843373802e-11  5.2925682363350445e-11  -1.3636733092706489e-11  4.6053512538026605e-11  -1.0050800529320142e-11  2.6443166401122943e-11  -3.7217735825243691e-12  1.9327556891899416e-12  3.2816188045819311e-12  -1.3958260821291149e-10  2.5035620104161693e+00  1.9657804366061465e-12  -1.3155635179437746e-11  3.9195672979628788e-12  -1.2890590234204600e-11  2.5271523659731785e+00  2.4093149130092908e-12  -4.4104950746920923e-12  2.4922495045944291e+00  1.7724268746814511e-13  1.8653655120287110e-12  1.7146395422214661e-12  -1.0303122351912831e-11  2.3502061922720459e-12  -4.7669393188797624e-12  -1.9087740744144569e-10  -3.2982740912529762e-13  1.8427904035418339e-13  2.4647812806692486e-12  1.3481681874696862e-12  -1.3790898060750483e-11  3.1899651881419237e-12  -6.8564849093524710e-12  4.4373025943813963e-11  5.1244484404131245e-12  1.7258907165305323e-12  -1.0570073230094423e-11  2.9624443826088026e-11  2.7853400290751744e-11  -3.0701662810226971e-12  -2.6883681869160302e-12  -2.9986291800461188e-11  2.4131400977289025e-11  -4.4952830916152377e-12  2.5566862358549275e-12  -4.7095643646783865e-11  1.4856127594493069e-11  -3.5623893892664981e-12  2.0496675108681951e-12  -3.4325192861247131e-11  1.3011239467496447e-11  -1.6561290906354619e-11  -2.7052559150146772e-11  7.5610402993978810e-13  1.4719763580245099e-11  -2.5679254900899425e-11  -3.4305918983780855e-11  1.0567906609567927e-12  1.9255519853522465e-11  -3.8090493625063426e-11  -4.0372218182790914e-11  3.3820627430819614e-10  -1.0484133214184612e-10  3.4620427526650903e-11  2.7917740104052705e-10  -1.0162672651115308e-11  -1.5824305241629443e-10  7.0785920932830181e-10  -9.7366735428712930e-11  -3.1623552989991795e-10  3.3494918881705565e-10  -1.7628971957497821e-09  3.1755341362234249e-10  5.2662188156232227e-10  -9.3925709847611848e-10  5.5425492856715011e-11  4.6161420688832909e-10  -2.0804120034808964e-09  4.1341349677278560e-10  4.8604271651819475e-11  -7.7775712395020764e-10  6.2576667242906618e-09  -2.5230825085750910e-09  1.1102541328148651e-08  -2.6966675559084113e-09  6.0763945844000893e-09  3.0392502246932319e-10  -1.0068477350074023e-08  5.1678123560637683e-09  -2.7534464068931269e-08  8.9690026804705883e-09  -3.7318019007524319e-08  1.0594655347067847e-08  -4.0077960953738860e-08  1.0586079941553579e-08  -3.7174786438931611e-08  8.7248452107031685e-09  -2.6310917659366587e-08  5.0685703014826701e-09  -1.1416169809669939e-08  -1.8825344343683385e-09  -8.3021159377762087e-10  3.6490870614003615e-10  9.5298981680382766e-11  -6.0274818723995665e-11  2.9172768063194006e-12  6.9892947671952043e-12  -6.6547320700031666e-12  1.9364678741107586e-13  2.8335949014895037e-12  -1.2437674042327802e-11  -4.7751736648647333e-13  4.5646373228090800e-10  3.2651053188914183e-12  -1.0225751402153968e-11  1.8589516291764301e-12  -3.3190784513179483e-12  1.0211886731459885e-13  1.5019755032872497e-12  -5.0334253660492929e-13  1.3507409