<?xml version="1.0"?>
<VTKFile type="UnstructuredGrid"  version="0.1"  >
<UnstructuredGrid>
<Piece  NumberOfPoints="11902" NumberOfCells="23402">
<Points>
<DataArray  type="Float64"  NumberOfComponents="3"  format="ascii">-5 -5 0  5 -5 0  5 5 0  -5 5 0  1.206999503540382 0.001319334619526854 0  -4.9 -5 0  -4.8 -5 0  -4.7 -5 0  -4.6 -5 0  -4.5 -5 0  -4.4 -5 0  -4.3 -5 0  -4.2 -5 0  -4.1 -5 0  -4 -5 0  -3.9 -5 0  -3.8 -5 0  -3.7 -5 0  -3.6 -5 0  -3.5 -5 0  -3.4 -5 0  -3.3 -5 0  -3.2 -5 0  -3.1 -5 0  -3 -5 0  -2.9 -5 0  -2.8 -5 0  -2.7 -5 0  -2.6 -5 0  -2.5 -5 0  -2.4 -5 0  -2.3 -5 0  -2.2 -5 0  -2.1 -5 0  -2 -5 0  -1.9 -5 0  -1.8 -5 0  -1.7 -5 0  -1.6 -5 0  -1.5 -5 0  -1.4 -5 0  -1.3 -5 0  -1.2 -5 0  -1.1 -5 0  -1 -5 0  -0.9000000000000004 -5 0  -0.7999999999999998 -5 0  -0.7000000000000002 -5 0  -0.5999999999999996 -5 0  -0.5 -5 0  -0.4000000000000004 -5 0  -0.2999999999999998 -5 0  -0.2000000000000002 -5 0  -0.09999999999999964 -5 0  0 -5 0  0.09999999999999964 -5 0  0.2000000000000002 -5 0  0.2999999999999998 -5 0  0.4000000000000004 -5 0  0.5 -5 0  0.5999999999999996 -5 0  0.7000000000000002 -5 0  0.7999999999999998 -5 0  0.9000000000000004 -5 0  1 -5 0  1.1 -5 0  1.2 -5 0  1.3 -5 0  1.4 -5 0  1.5 -5 0  1.6 -5 0  1.7 -5 0  1.8 -5 0  1.9 -5 0  2 -5 0  2.1 -5 0  2.2 -5 0  2.3 -5 0  2.4 -5 0  2.5 -5 0  2.6 -5 0  2.7 -5 0  2.8 -5 0  2.9 -5 0  3 -5 0  3.1 -5 0  3.199999999999999 -5 0  3.300000000000001 -5 0  3.4 -5 0  3.5 -5 0  3.6 -5 0  3.699999999999999 -5 0  3.800000000000001 -5 0  3.9 -5 0  4 -5 0  4.1 -5 0  4.199999999999999 -5 0  4.300000000000001 -5 0  4.4 -5 0  4.5 -5 0  4.6 -5 0  4.699999999999999 -5 0  4.800000000000001 -5 0  4.9 -5 0  5 -4.9 0  5 -4.8 0  5 -4.7 0  5 -4.6 0  5 -4.5 0  5 -4.4 0  5 -4.3 0  5 -4.2 0  5 -4.1 0  5 -4 0  5 -3.9 0  5 -3.8 0  5 -3.7 0  5 -3.6 0  5 -3.5 0  5 -3.4 0  5 -3.3 0  5 -3.2 0  5 -3.1 0  5 -3 0  5 -2.9 0  5 -2.8 0  5 -2.7 0  5 -2.6 0  5 -2.5 0  5 -2.4 0  5 -2.3 0  5 -2.2 0  5 -2.1 0  5 -2 0  5 -1.9 0  5 -1.8 0  5 -1.7 0  5 -1.6 0  5 -1.5 0  5 -1.4 0  5 -1.3 0  5 -1.2 0  5 -1.1 0  5 -1 0  5 -0.9000000000000004 0  5 -0.7999999999999998 0  5 -0.7000000000000002 0  5 -0.5999999999999996 0  5 -0.5 0  5 -0.4000000000000004 0  5 -0.2999999999999998 0  5 -0.2000000000000002 0  5 -0.09999999999999964 0  5 0 0  5 0.09999999999999964 0  5 0.2000000000000002 0  5 0.2999999999999998 0  5 0.4000000000000004 0  5 0.5 0  5 0.5999999999999996 0  5 0.7000000000000002 0  5 0.7999999999999998 0  5 0.9000000000000004 0  5 1 0  5 1.1 0  5 1.2 0  5 1.3 0  5 1.4 0  5 1.5 0  5 1.6 0  5 1.7 0  5 1.8 0  5 1.9 0  5 2 0  5 2.1 0  5 2.2 0  5 2.3 0  5 2.4 0  5 2.5 0  5 2.6 0  5 2.7 0  5 2.8 0  5 2.9 0  5 3 0  5 3.1 0  5 3.199999999999999 0  5 3.300000000000001 0  5 3.4 0  5 3.5 0  5 3.6 0  5 3.699999999999999 0  5 3.800000000000001 0  5 3.9 0  5 4 0  5 4.1 0  5 4.199999999999999 0  5 4.300000000000001 0  5 4.4 0  5 4.5 0  5 4.6 0  5 4.699999999999999 0  5 4.800000000000001 0  5 4.9 0  4.9 5 0  4.8 5 0  4.7 5 0  4.6 5 0  4.5 5 0  4.4 5 0  4.3 5 0  4.2 5 0  4.1 5 0  4 5 0  3.9 5 0  3.8 5 0  3.7 5 0  3.6 5 0  3.5 5 0  3.4 5 0  3.3 5 0  3.2 5 0  3.1 5 0  3 5 0  2.9 5 0  2.8 5 0  2.7 5 0  2.6 5 0  2.5 5 0  2.4 5 0  2.3 5 0  2.2 5 0  2.1 5 0  2 5 0  1.9 5 0  1.8 5 0  1.7 5 0  1.6 5 0  1.5 5 0  1.4 5 0  1.3 5 0  1.2 5 0  1.1 5 0  1 5 0  0.9000000000000004 5 0  0.7999999999999998 5 0  0.7000000000000002 5 0  0.5999999999999996 5 0  0.5 5 0  0.4000000000000004 5 0  0.2999999999999998 5 0  0.2000000000000002 5 0  0.09999999999999964 5 0  0 5 0  -0.09999999999999964 5 0  -0.2000000000000002 5 0  -0.2999999999999998 5 0  -0.4000000000000004 5 0  -0.5 5 0  -0.5999999999999996 5 0  -0.7000000000000002 5 0  -0.7999999999999998 5 0  -0.9000000000000004 5 0  -1 5 0  -1.1 5 0  -1.2 5 0  -1.3 5 0  -1.4 5 0  -1.5 5 0  -1.6 5 0  -1.7 5 0  -1.8 5 0  -1.9 5 0  -2 5 0  -2.1 5 0  -2.2 5 0  -2.3 5 0  -2.4 5 0  -2.5 5 0  -2.6 5 0  -2.7 5 0  -2.8 5 0  -2.9 5 0  -3 5 0  -3.1 5 0  -3.199999999999999 5 0  -3.300000000000001 5 0  -3.4 5 0  -3.5 5 0  -3.6 5 0  -3.699999999999999 5 0  -3.800000000000001 5 0  -3.9 5 0  -4 5 0  -4.1 5 0  -4.199999999999999 5 0  -4.300000000000001 5 0  -4.4 5 0  -4.5 5 0  -4.6 5 0  -4.699999999999999 5 0  -4.800000000000001 5 0  -4.9 5 0  -5 4.9 0  -5 4.8 0  -5 4.7 0  -5 4.6 0  -5 4.5 0  -5 4.4 0  -5 4.3 0  -5 4.2 0  -5 4.1 0  -5 4 0  -5 3.9 0  -5 3.8 0  -5 3.7 0  -5 3.6 0  -5 3.5 0  -5 3.4 0  -5 3.3 0  -5 3.2 0  -5 3.1 0  -5 3 0  -5 2.9 0  -5 2.8 0  -5 2.7 0  -5 2.6 0  -5 2.5 0  -5 2.4 0  -5 2.3 0  -5 2.2 0  -5 2.1 0  -5 2 0  -5 1.9 0  -5 1.8 0  -5 1.7 0  -5 1.6 0  -5 1.5 0  -5 1.4 0  -5 1.3 0  -5 1.2 0  -5 1.1 0  -5 1 0  -5 0.9000000000000004 0  -5 0.7999999999999998 0  -5 0.7000000000000002 0  -5 0.5999999999999996 0  -5 0.5 0  -5 0.4000000000000004 0  -5 0.2999999999999998 0  -5 0.2000000000000002 0  -5 0.09999999999999964 0  -5 0 0  -5 -0.09999999999999964 0  -5 -0.2000000000000002 0  -5 -0.2999999999999998 0  -5 -0.4000000000000004 0  -5 -0.5 0  -5 -0.5999999999999996 0  -5 -0.7000000000000002 0  -5 -0.7999999999999998 0  -5 -0.9000000000000004 0  -5 -1 0  -5 -1.1 0  -5 -1.2 0  -5 -1.3 0  -5 -1.4 0  -5 -1.5 0  -5 -1.6 0  -5 -1.7 0  -5 -1.8 0  -5 -1.9 0  -5 -2 0  -5 -2.1 0  -5 -2.2 0  -5 -2.3 0  -5 -2.4 0  -5 -2.5 0  -5 -2.6 0  -5 -2.7 0  -5 -2.8 0  -5 -2.9 0  -5 -3 0  -5 -3.1 0  -5 -3.199999999999999 0  -5 -3.300000000000001 0  -5 -3.4 0  -5 -3.5 0  -5 -3.6 0  -5 -3.699999999999999 0  -5 -3.800000000000001 0  -5 -3.9 0  -5 -4 0  -5 -4.1 0  -5 -4.199999999999999 0  -5 -4.300000000000001 0  -5 -4.4 0  -5 -4.5 0  -5 -4.6 0  -5 -4.699999999999999 0  -5 -4.800000000000001 0  -5 -4.9 0  1.200905203498507 0.09879193827108235 0  1.18191184165296 0.1967650983643795 0  1.150247095379804 0.2939003114224163 0  1.109347694973043 0.3851280342756815 0  1.056057881665261 0.4757437999268759 0  0.9934442745937359 0.5607782695509662 0  0.91979669758435 0.6405500591883716 0  0.8369364738770733 0.7134309532257517 0  0.7471004079829809 0.7790230428720446 0  0.6488351043602524 0.8374417730979051 0  0.5434082826679525 0.8884972470558538 0  0.4340576259030304 0.930551246166656 0  0.3224653845487506 0.9633995395141957 0  0.2048821092371873 0.9857551425240411 0  0.08879279020618082 1.000808037287457 0  -0.02772124055125772 1.003619399487229 0  -0.1444976233037554 0.9934658917044128 0  -0.2632907846249082 0.9756698058156957 0  -0.378446294887293 0.9496666613153456 0  -0.488201126870646 0.9131888367098563 0  -0.59340183433394 0.8675042749467634 0  -0.6934651837500001 0.8128007630492938 0  -0.7862818503614873 0.7497085703018551 0  -0.8728269752675405 0.6789419206931762 0  -0.9522095807663514 0.600743836341232 0  -1.021080902394778 0.5184826784884549 0  -1.080287480812454 0.4316998612656381 0  -1.128203074564915 0.3397275482938096 0  -1.164084542681193 0.2459797886344326 0  -1.18812284969984 0.1497027868178566 0  -1.20027780300325 0.05075132633220466 0  -1.200264565653056 -0.04891273713684433 0  -1.188034358191421 -0.1474993205016074 0  -1.164762643558939 -0.2437527315029946 0  -1.127549528986176 -0.3394186242616705 0  -1.080627460975134 -0.4305594123675112 0  -1.022126259201048 -0.5176364793826281 0  -0.9538426412504349 -0.5994265638646187 0  -0.8748438580228626 -0.6764129939188569 0  -0.78797061948034 -0.746074866285577 0  -0.6937526745748661 -0.8072917826360846 0  -0.5935259169874338 -0.8615140961746928 0  -0.4852622057760647 -0.9086396082768895 0  -0.3748184725786975 -0.9468015995087906 0  -0.2603042101766522 -0.9744177531163951 0  -0.1431057818806112 -0.9926171683323295 0  -0.02744527083638527 -1.002713012551106 0  0.08938588280304391 -0.9980020671658438 0  0.2080255558693092 -0.9833538519975819 0  0.3242169116758905 -0.9617283028551608 0  0.4375952967623377 -0.9291291899562253 0  0.5451867254423324 -0.8875506400274 0  0.6495903413377959 -0.8371124120721012 0  0.747251107135888 -0.7800563037770661 0  0.8369879743766183 -0.7141924989693041 0  0.9192753218620824 -0.6400245714375963 0  0.9918942041052755 -0.5601335572769821 0  1.055886888907591 -0.4751418669891944 0  1.110359654490017 -0.3851840739187087 0  1.151718999265045 -0.2923451669824949 0  1.18220969741072 -0.1959104871944974 0  1.200938920448252 -0.09832378393955683 0  -2.448749674097102 4.918460190067763 0  -2.448641015414729 -4.910869968858839 0  4.91080279655144 2.448162295890348 0  4.918894172641163 -2.449599598681979 0  2.446404066111989 -4.896166735522224 0  2.440829925794146 4.899915385720681 0  -4.910826869028711 -2.4481858694591 0  -4.91082497123644 2.448189752905261 0  -1.748711242383576 4.91150221898868 0  -1.744489636981423 -4.914924174659104 0  4.921080802198254 1.744311933036808 0  4.90967747051931 -1.74810845576973 0  -4.909965898429142 -1.74783869250123 0  -4.910784441298125 1.747580718811534 0  1.745996351411931 4.90539559694098 0  1.747434245813316 -4.893603586557754 0  -1.148982671863974 4.909390143440293 0  -1.129824354526956 -4.917257037041969 0  -4.90981389828215 -1.148119058734099 0  -4.909634202861145 1.147919255110788 0  1.143968040166052 -4.913465013152031 0  1.148990624048844 4.90937833971117 0  4.909959058246546 1.146395978855594 0  4.920714665058224 -1.152155702695795 0  -0.5467429542457276 -4.910630998083559 0  -0.5465172300615452 4.919258821575641 0  -4.908651441371202 -0.5488148823832583 0  -4.908675784060765 0.5473713967717773 0  4.907982835084189 -0.5491351733335705 0  4.919549024551151 0.5458780915599313 0  0.5425319487379359 -4.897598216848595 0  0.5512474513725008 4.916102990591293 0  -4.9121323279399 -3.048498074419377 0  4.918687532587204 3.046500898440126 0  4.911642746663206 -3.048476988028342 0  -4.912978971699917 3.045587922790335 0  3.055455969667247 -4.917621973842224 0  -3.048798049127383 -4.911574264946458 0  3.052361853377952 4.913647343426024 0  -3.048242995558926 4.912461690540296 0  -4.907798818552955 -0.04991830690485934 0  0.04512466335604448 -4.912586377991256 0  0.04957240959621704 4.919566599505712 0  4.914803643361392 -0.05129975023785487 0  3.545741197348528 -4.919193868439389 0  -3.549032851627211 4.912106794
[...]
<PointData  Scalars="f_30"> 
<DataArray  type="Float64"  Name="f_30"  format="ascii">0.0000000000000000e+00  0.0000000000000000e+00  0.0000000000000000e+00  0.0000000000000000e+00  2.4387584379083699e-01  0.0000000000000000e+00  0.0000000000000000e+00  0.0000000000000000e+00  0.0000000000000000e+00  0.0000000000000000e+00  0.0000000000000000e+00  0.0000000000000000e+00  0.0000000000000000e+00  0.0000000000000000e+00  0.0000000000000000e+00  0.0000000000000000e+00  0.0000000000000000e+00  0.0000000000000000e+00  0.0000000000000000e+00  0.0000000000000000e+00  0.0000000000000000e+00  0.0000000000000000e+00  0.0000000000000000e+00  0.0000000000000000e+00  0.0000000000000000e+00  0.0000000000000000e+00  0.0000000000000000e+00  0.0000000000000000e+00  0.0000000000000000e+00  0.0000000000000000e+00  0.0000000000000000e+00  0.0000000000000000e+00  0.0000000000000000e+00  0.0000000000000000e+00  0.0000000000000000e+00  0.0000000000000000e+00  0.0000000000000000e+00  0.0000000000000000e+00  0.0000000000000000e+00  0.0000000000000000e+00  0.0000000000000000e+00  0.0000000000000000e+00  0.0000000000000000e+00  0.0000000000000000e+00  0.0000000000000000e+00  0.0000000000000000e+00  0.0000000000000000e+00  0.0000000000000000e+00  0.0000000000000000e+00  0.0000000000000000e+00  0.0000000000000000e+00  0.0000000000000000e+00  0.0000000000000000e+00  0.0000000000000000e+00  0.0000000000000000e+00  0.0000000000000000e+00  0.0000000000000000e+00  0.0000000000000000e+00  0.0000000000000000e+00  0.0000000000000000e+00  0.0000000000000000e+00  0.0000000000000000e+00  0.0000000000000000e+00  0.0000000000000000e+00  0.0000000000000000e+00  0.0000000000000000e+00  0.0000000000000000e+00  0.0000000000000000e+00  0.0000000000000000e+00  0.0000000000000000e+00  0.0000000000000000e+00  0.0000000000000000e+00  0.0000000000000000e+00  0.0000000000000000e+00  0.0000000000000000e+00  0.0000000000000000e+00  0.0000000000000000e+00  0.0000000000000000e+00  0.0000000000000000e+00  0.0000000000000000e+00  0.0000000000000000e+00  0.0000000000000000e+00  0.0000000000000000e+00  0.0000000000000000e+00  0.0000000000000000e+00  0.0000000000000000e+00  0.0000000000000000e+00  0.0000000000000000e+00  0.0000000000000000e+00  0.0000000000000000e+00  0.0000000000000000e+00  0.0000000000000000e+00  0.0000000000000000e+00  0.0000000000000000e+00  0.0000000000000000e+00  0.0000000000000000e+00  0.0000000000000000e+00  0.0000000000000000e+00  0.0000000000000000e+00  0.0000000000000000e+00  0.0000000000000000e+00  0.0000000000000000e+00  0.0000000000000000e+00  0.0000000000000000e+00  0.0000000000000000e+00  0.0000000000000000e+00  0.0000000000000000e+00  0.0000000000000000e+00  0.0000000000000000e+00  0.0000000000000000e+00  0.0000000000000000e+00  0.0000000000000000e+00  0.0000000000000000e+00  0.0000000000000000e+00  0.0000000000000000e+00  0.0000000000000000e+00  0.0000000000000000e+00  0.0000000000000000e+00  0.0000000000000000e+00  0.0000000000000000e+00  0.0000000000000000e+00  0.0000000000000000e+00  0.0000000000000000e+00  0.0000000000000000e+00  0.0000000000000000e+00  0.0000000000000000e+00  0.0000000000000000e+00  0.0000000000000000e+00  0.0000000000000000e+00  0.0000000000000000e+00  0.0000000000000000e+00  0.0000000000000000e+00  0.0000000000000000e+00  0.0000000000000000e+00  0.0000000000000000e+00  0.0000000000000000e+00  0.0000000000000000e+00  0.0000000000000000e+00  0.0000000000000000e+00  0.0000000000000000e+00  0.0000000000000000e+00  0.0000000000000000e+00  0.0000000000000000e+00  0.0000000000000000e+00  0.0000000000000000e+00  0.0000000000000000e+00  0.0000000000000000e+00  0.0000000000000000e+00  0.0000000000000000e+00  0.0000000000000000e+00  0.0000000000000000e+00  0.0000000000000000e+00  0.0000000000000000e+00  0.0000000000000000e+00  0.0000000000000000e+00  0.0000000000000000e+00  0.0000000000000000e+00  0.0000000000000000e+00  0.0000000000000000e+00  0.0000000000000000e+00  0.0000000000000000e+00  0.0000000000000000e+00  0.0000000000000000e+00  0.0000000000000000e+00  0.0000000000000000e+00  0.0000000000000000e+00  0.0000000000000000e+00  0.0000000000000000e+00  0.0000000000000000e+00  0.0000000000000000e+00  0.0000000000000000e+00  0.0000000000000000e+00  0.0000000000000000e+00  0.0000000000000000e+00  0.0000000000000000e+00  0.0000000000000000e+00  0.0000000000000000e+00  0.0000000000000000e+00  0.0000000000000000e+00  0.0000000000000000e+00  0.0000000000000000e+00  0.0000000000000000e+00  0.0000000000000000e+00  0.0000000000000000e+00  0.0000000000000000e+00  0.0000000000000000e+00  0.0000000000000000e+00  0.0000000000000000e+00  0.0000000000000000e+00  0.0000000000000000e+00  0.0000000000000000e+00  0.0000000000000000e+00  0.0000000000000000e+00  0.0000000000000000e+00  0.0000000000000000e+00  0.0000000000000000e+00  0.0000000000000000e+00  0.0000000000000000e+00  0.0000000000000000e+00  0.0000000000000000e+00  0.0000000000000000e+00  0.0000000000000000e+00  0.0000000000000000e+00  0.0000000000000000e+00  0.0000000000000000e+00  0.0000000000000000e+00  0.0000000000000000e+00  0.0000000000000000e+00  0.0000000000000000e+00  0.0000000000000000e+00  0.0000000000000000e+00  0.0000000000000000e+00  0.0000000000000000e+00  0.0000000000000000e+00  0.0000000000000000e+00  0.0000000000000000e+00  0.0000000000000000e+00  0.0000000000000000e+00  0.0000000000000000e+00  0.0000000000000000e+00  0.0000000000000000e+00  0.0000000000000000e+00  0.0000000000000000e+00  0.0000000000000000e+00  0.0000000000000000e+00  0.0000000000000000e+00  0.0000000000000000e+00  0.0000000000000000e+00  0.0000000000000000e+00  0.0000000000000000e+00  0.0000000000000000e+00  0.0000000000000000e+00  0.0000000000000000e+00  0.0000000000000000e+00  0.0000000000000000e+00  0.0000000000000000e+00  0.0000000000000000e+00  0.0000000000000000e+00  0.0000000000000000e+00  0.0000000000000000e+00  0.0000000000000000e+00  0.0000000000000000e+00  0.0000000000000000e+00  0.0000000000000000e+00  0.0000000000000000e+00  0.0000000000000000e+00  0.0000000000000000e+00  0.0000000000000000e+00  0.0000000000000000e+00  0.0000000000000000e+00  0.0000000000000000e+00  0.0000000000000000e+00  0.0000000000000000e+00  0.0000000000000000e+00  0.0000000000000000e+00  0.0000000000000000e+00  0.0000000000000000e+00  0.0000000000000000e+00  0.0000000000000000e+00  0.0000000000000000e+00  0.0000000000000000e+00  0.0000000000000000e+00  0.0000000000000000e+00  0.0000000000000000e+00  0.0000000000000000e+00  0.0000000000000000e+00  0.0000000000000000e+00  0.0000000000000000e+00  0.0000000000000000e+00  0.0000000000000000e+00  0.0000000000000000e+00  0.0000000000000000e+00  0.0000000000000000e+00  0.0000000000000000e+00  0.0000000000000000e+00  0.0000000000000000e+00  0.0000000000000000e+00  0.0000000000000000e+00  0.0000000000000000e+00  0.0000000000000000e+00  0.0000000000000000e+00  0.0000000000000000e+00  0.0000000000000000e+00  0.0000000000000000e+00  0.0000000000000000e+00  0.0000000000000000e+00  0.0000000000000000e+00  0.0000000000000000e+00  0.0000000000000000e+00  0.0000000000000000e+00  0.0000000000000000e+00  0.0000000000000000e+00  0.0000000000000000e+00  0.0000000000000000e+00  0.0000000000000000e+00  0.0000000000000000e+00  0.0000000000000000e+00  0.0000000000000000e+00  0.0000000000000000e+00  0.0000000000000000e+00  0.0000000000000000e+00  0.0000000000000000e+00  0.0000000000000000e+00  0.0000000000000000e+00  0.0000000000000000e+00  0.0000000000000000e+00  0.0000000000000000e+00  0.0000000000000000e+00  0.0000000000000000e+00  0.0000000000000000e+00  0.0000000000000000e+00  0.0000000000000000e+00  0.0000000000000000e+00  0.0000000000000000e+00  0.0000000000000000e+00  0.0000000000000000e+00  0.0000000000000000e+00  0.0000000000000000e+00  0.0000000000000000e+00  0.0000000000000000e+00  0.0000000000000000e+00  0.0000000000000000e+00  0.0000000000000000e+00  0.0000000000000000e+00  0.0000000000000000e+00  0.0000000000000000e+00  0.0000000000000000e+00  0.0000000000000000e+00  0.0000000000000000e+00  0.0000000000000000e+00  0.0000000000000000e+00  0.0000000000000000e+00  0.0000000000000000e+00  0.0000000000000000e+00  0.0000000000000000e+00  0.0000000000000000e+00  0.0000000000000000e+00  0.0000000000000000e+00  0.0000000000000000e+00  0.0000000000000000e+00  0.0000000000000000e+00  0.0000000000000000e+00  0.0000000000000000e+00  0.0000000000000000e+00  0.0000000000000000e+00  0.0000000000000000e+00  0.0000000000000000e+00  0.0000000000000000e+00  0.0000000000000000e+00  0.0000000000000000e+00  0.0000000000000000e+00  0.0000000000000000e+00  0.0000000000000000e+00  0.0000000000000000e+00  0.0000000000000000e+00  0.0000000000000000e+00  0.0000000000000000e+00  0.0000000000000000e+00  0.0000000000000000e+00  0.0000000000000000e+00  0.0000000000000000e+00  0.0000000000000000e+00  0.0000000000000000e+00  0.0000000000000000e+00  0.0000000000000000e+00  0.0000000000000000e+00  0.0000000000000000e+00  0.0000000000000000e+00  0.0000000000000000e+00  0.0000000000000000e+00  0.0000000000000000e+00  0.0000000000000000e+00  0.0000000000000000e+00  0.0000000000000000e+00  0.0000000000000000e+00  0.0000000000000000e+00  0.0000000000000000e+00  0.0000000000000000e+00  0.0000000000000000e+00  0.0000000000000000e+00  0.0000000000000000e+00  0.0000000000000000e+00  0.0000000000000000e+00  0.0000000000000000e+00  0.0000000000000000e+00  0.0000000000000000e+00  0.0000000000000000e+00  0.0000000000000000e+00  0.0000000000000000e+00  0.0000000000000000e+00  0.0000000000000000e+00  0.0000000000000000e+00  0.0000000000000000e+00  0.0000000000000000e+00  0.0000000000000000e+00  0.0000000000000000e+00  0.0000000000000000e+00  0.0000000000000000e+00  0.0000000000000000e+00  0.0000000000000000e+00  0.0000000000000000e+00  2.5241397592444664e-01  2.3767574616593476e-01  1.8614061423615899e-01  1.8612897774517137e-01  2.1742516065441789e-01  2.8041356970991244e-01  2.6696881884668999e-01  2.0606747776599479e-01  2.2950107459907115e-01  2.8342355339610581e-01  2.5821548396795285e-01  2.4829689812101971e-01  2.9445635976066969e-01  2.2425885703010301e-01  2.3129644891202289e-01  2.2749553865571165e-01  1.9374983770803647e-01  2.3524254527839314e-01  2.5495923214689697e-01  2.2476947087439228e-01  2.3808885974827412e-01  2.2898422837405388e-01  2.4066242893702727e-01  2.6404743409556158e-01  2.3916962715261258e-01  2.1257430079502171e-01  2.4726995617068928e-01  2.3161544434439615e-01  1.9743790576495684e-01  2.1439788914213112e-01  2.3137627191392840e-01  2.3753845043919816e-01  2.2485150362252043e-01  3.1081156401275073e-01  2.2629009091659413e-01  2.5506187955197995e-01  2.3161161680101378e-01  2.6583511873249233e-01  2.6198272408779522e-01  2.2761004619260608e-01  1.7767389142180826e-01  2.8196396543002739e-01  2.1972302226019449e-01  2.6226440678450752e-01  2.4696388432909019e-01  2.2985203400544815e-01  3.3449865204756074e-01  2.8532184967900909e-01  2.3726713653850248e-01  2.5147847771836773e-01  2.2995545525496752e-01  2.0724545439511827e-01  2.2981598540326040e-01  2.7335364055888450e-01  2.4538575740644034e-01  2.3582115414912475e-01  2.1053814747490146e-01  2.3582500232616993e-01  3.0585732352168171e-01  2.5559696310005825e-01  2.4777366132545015e-01  2.6200709706437902e-01  3.6122502258521943e-27  -1.3177868584736692e-27  -2.6372989279382112e-27  -2.9362112568850082e-27  -1.2755797173678849e-27  -5.3200822118901419e-28  -2.0321713280931615e-28  1.8085996805523924e-27  7.1909213278619341e-27  4.1261982202614063e-27  -7.0167491601999474e-25  -6.6245824005027887e-25  5.4015517539018228e-25  1.1894523306256286e-24  3.7090152737634665e-26  3.0576579879538987e-26  -4.7812105471151386e-26  -3.0032601566801126e-26  -1.1242593764228092e-22  -1.6505400181979834e-22  -4.3274259669982358e-26  -4.9233700116476952e-26  4.7612439801450131e-23  4.7758643596282859e-23  -4.7355771633482775e-27  -3.9749366760450569e-26  -7.5369922342557502e-21  -7.1236227347140258e-21  -4.5758827647324273e-21  -4.8274273081379314e-21  8.3198364682885407e-26  -2.6523830402758167e-26  7.1703413483651026e-30  -8.8439288743973299e-30  -9.0742326039724868e-30  1.6282537758727828e-29  1.9759697170061449e-28  3.9844452147511018e-28  2.8927656596249224e-28  3.1818148690785219e-28  3.5536296100832530e-20  6.3544762734376859e-26  1.2229752502174247e-26  3.8447620044159516e-20  -9.0965221755715337e-30  -9.9263767586802503e-30  -6.2620495705853131e-30  2.3186073303388993e-31  2.4329242246240255e-31  2.3940966698730757e-31  1.4562221385268473e-31  -9.9633746105260048e-30  -6.1356146206695314e-33  -2.3068886042162933e-32  1.1371222192442930e-31  -4.0599777289704052e-33  2.5154824557888828e-32  -6.0625822000005669e-33  1.3756202483082042e-31  -9.9017333526768657e-34  -1.2942973131108339e-33  -4.6819440356813597e-34  -1.9574375517651277e-34  1.4856514665537699e-34  1.3409178715150653e-34  7.7341094449272970e-35  7.3735848858319214e-36  -1.6096911240682309e-33  2.7758149448197335e-20  4.6288968277106214e-26  -1.3626149189979988e-26  1.3821897049373217e-20  1.1675259711154556e-25  -3.4725238706852847e-24  1.3394908189647316e-21  8.8430431216785594e-22  -3.2579697380883424e-24  2.7351922449337909e-26  7.8784090048220659e-26  -5.2867986312364232e-26  -3.8569940804745398e-26  -1.1547888487200297e-23  3.9597119824187708e-22  4.1482008691715553e-22  -1.1338401594782831e-23  -2.5521459713440740e-27  8.8215066344929754e-26  -4.0407800187391552e-27  5.5589391510575932e-27  -6.5544402256421601e-27  8.9115012638644008e-26  1.1270770230089379e-25  -4.0127469849498216e-27  -2.4123684052146178e-27  3.0464782668695777e-26  2.8830727748941926e-26  -1.5704727633674765e-28  -7.7608905371154285e-28  -1.2224901453712657e-27  2.0590623600694173e-28  6.3878705071704621e-28  6.7275925132485929e-29  -1.5133888547056052e-28  -9.2255823486038815e-28  1.2567464233826522e-35  1.8952171573467967e-35  7.5316872684981522e-36  -1.6946007181208099e-36  6.4699468233985022e-36  1.5368889648525012e-36  1.0557455226583071e-35  5.2339974977767530e-37  2.7877468458609126e-20  1.2035076540526165e-25  1.1446467887163023e-25  1.3760366933259495e-20  -1.7863556707839958e-27  4.4955694439847259e-27  4.7956994576698692e-27  -7.1559766051648768e-27  -1.1865851748397339e-26  -6.9987692570075508e-29  -8.1945486883374792e-27  -2.0294424714656022e-26  3.5252788985447549e-30  -1.1192018286933461e-28  -7.3960789084464217e-29  2.8341012975368319e-30  3.4754380114011816e-30  -9.6395359956496952e-29  -1.2779665333719202e-28  1.1569375647852382e-30  -3.7499967746453117e-33  3.6441417841966616e-34  1.2052992566710990e-30  -1.2997728541579070e-32  2.7360710970658311e-31  -1.5412839252748859e-32  -3.6562407328398574e-32  1.2126588437833807e-33  8.1374476094420081e-31  -1.3325621517550219e-32  -1.3655504384285164e-33  2.9198314485008877e-34  -4.4317825215876187e-32  1.2637524881526327e-33  5.2319091663984966e-31  -1.7094965261773748e-32  -3.7014096110444523e-36  -1.7453802716744656e-36  -2.9595976669752798e-36  -3.4662508347765862e-36  3.4840952674014705e-20  -1.2995853861256144e-19  -8.5771483316044755e-20  4.2076950371086580e-19  2.0515162135173536e-19  -1.2097205960084467e-18  -3.1622074892720910e-19  2.8705393308987570e-18  -2.7975277219259802e-19  -4.3099801569620871e-18  4.7474874036939304e-18  -4.6496833984040927e-18  -2.3363936145646160e-17  6.8991207458432015e-17  8.0970995704436672e-17  -3.3342387503605010e-16  -2.1158946486554877e-16  1.1328876086641861e-15  3.8162536163283124e-16  -2.8846907025261754e-15  -2.0353341682644399e-16  -4.7525365808508539e-15  4.9165517705141222e-15  -1.6200971924377602e-15  -1.5863598793528598e-15  7.3808898208752395e-15  -2.5145867669721226e-14  -1.5924051758740555e-14  9.9126084934420397e-14  9.7169919386668619e-15  -1.8521730871498197e-13  5.6053604684451775e-14  -3.7650739313197536e-13  2.9176637599409252e-14  -1.9703581981327809e-13  8.8654764050369964e-13  1.5536378454116083e-13  -2.2293419107028243e-12  7.7802409382845906e-13  -1.2244272405713910e-13  -2.4767515283745944e-12  1.3240154199298571e-11  -1.0637152312573756e-13  -2.1326470757831751e-11  -2.3720651733153135e-11  1.5576244651407065e-11  -4.0435943403414487e-11  -2.6197009324517468e-11  -3.0475901733921852e-13  1.7310820575012168e-11  -4.9867785314566453e-11  -2.3475130712649023e-11  -1.2717077178692141e-12  1.8382146317069538e-11  -2.7278781495004447e-12  -3.2804596720844680e-12  -1.3737050524486767e-11  1.8262694861558857e-11  -1.8308169252623426e-12  -6.7099889985133088e-12  1.4874962894759177e-12  3.6898599162922633e-13  1.1085114766698014e-11  -8.5790474516004059e-12  9.5890408497294487e-13  3.5615958883218291e-12  -1.4405372910655031e-11  2.2790831592696855e-12  -9.7888620741924899e-13  2.8368198168081473e-13  -4.9727527399900380e-12  2.1933216172857858e-12  -8.9153983766864408e-12  1.4121259650479820e-13  1.4211343924456720e-12  2.1923208198651364e-12  -3.5655686333318391e-12  2.5691759061883577e-11  -9.9231825886027194e-12  4.6010861383479799e-11  -1.3699281661686610e-11  5.3263024147259106e-11  3.2758527099313901e-12  -1.4243355378481748e-11  5.2221884032237171e-11  -1.3903429200807710e-11  5.2099087958273252e-11  -1.4170465720994095e-11  5.2925723652120158e-11  -1.3636745558864114e-11  4.6053555679463696e-11  -1.0050808292587827e-11  2.6443175648040911e-11  -3.7217706232178464e-12  1.9327300207871586e-12  3.2816218154998191e-12  -1.3958260713711068e-10  2.5109130254208409e+00  1.9657879761014288e-12  -1.3155655427394893e-11  3.9195681936068299e-12  -1.2890574601085683e-11  2.5343885492141283e+00  2.4093069464050599e-12  -4.4104583264063367e-12  2.4979695964541051e+00  1.7723354112827154e-13  1.8653910468037279e-12  1.7145107076719109e-12  -1.0303174371664844e-11  2.3502102614858270e-12  -4.7669279821413845e-12  -1.9087758446883410e-10  -3.2982484061265719e-13  1.8427298887632925e-13  2.4648045875807418e-12  1.3480827924144129e-12  -1.3790963260461704e-11  3.1899756269640402e-12  -6.8564996892309703e-12  4.4373164566575811e-11  5.1244469999347754e-12  1.7258967780668958e-12  -1.0570094339936357e-11  2.9624533623070432e-11  2.7853425898443104e-11  -3.0701621736558109e-12  -2.6884044379276187e-12  -2.9986197564082674e-11  2.4131491610178231e-11  -4.4952874332036429e-12  2.5566408203558336e-12  -4.7095624644481242e-11  1.4856301337465338e-11  -3.5624083362952032e-12  2.0496255105786390e-12  -3.4325315195302192e-11  1.3011473800348296e-11  -1.6562262221724260e-11  -2.7052755081313131e-11  7.5606145837718465e-13  1.4720026369607579e-11  -2.5680385017359553e-11  -3.4306033742610985e-11  1.0567319155257879e-12  1.9255760526674428e-11  -3.8091767641369875e-11  -4.0372108706188879e-11  3.3820767296330778e-10  -1.0484241409327835e-10  3.4625253197669626e-11  2.7917712446278597e-10  -1.0162384440697632e-11  -1.5824349222427018e-10  7.0786228131800405e-10  -9.7367399331189663e-11  -3.1623600564167298e-10  3.3495089608214722e-10  -1.7629084935124853e-09  3.1755650925536493e-10  5.2661690219728053e-10  -9.3926001954801342e-10  5.5425222684365053e-11  4.6161646934560330e-10  -2.0804261639750250e-09  4.1341852430348487e-10  4.8582287671646246e-11  -7.7775080226054490e-10  6.2576423970569566e-09  -2.5230757895889351e-09  1.1102515376998137e-08  -2.6966602050117944e-09  6.0763656243722663e-09  3.0393318806251119e-10  -1.0068508541025782e-08  5.1678205860985956e-09  -2.7534492445012471e-08  8.9690090333973663e-09  -3.7318036251848672e-08  1.0594657971905529e-08  -4.0077963704180081e-08  1.0586079336747436e-08  -3.7174781498542027e-08  8.7248439041078321e-09  -2.6310914374461218e-08  5.0685699349849522e-09  -1.1416170041649468e-08  -1.8825341902468087e-09  -8.3021159710295424e-10  3.6490867599292003e-10  9.5298995096522444e-11  -6.0274818049548537e-11  2.9172731188829359e-12  6.9892956020253521e-12  -6.6547315087432000e-12  1.9364652406082949e-13  2.8335948795253688e-12  -1.2437674321336448e-11  -4.7751732105579174e-13  4.5646197501731920e-10  3.2651054018675660e-12  -1.0225751575928852e-11  1.8589516366092008e-12  -3.3190783729088897e-12  1.0211884521290197e-13  1.5019755424804687e-12  -5.0334253699772992e-13  1.3507409