<?xml version="1.0"?>
<VTKFile type="UnstructuredGrid"  version="0.1"  >
<UnstructuredGrid>
<Piece  NumberOfPoints="11902" NumberOfCells="23402">
<Points>
<DataArray  type="Float64"  NumberOfComponents="3"  format="ascii">-5 -5 0  5 -5 0  5 5 0  -5 5 0  1.081589476207755 0.0005411295755481878 0  -4.9 -5 0  -4.8 -5 0  -4.7 -5 0  -4.6 -5 0  -4.5 -5 0  -4.4 -5 0  -4.3 -5 0  -4.2 -5 0  -4.1 -5 0  -4 -5 0  -3.9 -5 0  -3.8 -5 0  -3.7 -5 0  -3.6 -5 0  -3.5 -5 0  -3.4 -5 0  -3.3 -5 0  -3.2 -5 0  -3.1 -5 0  -3 -5 0  -2.9 -5 0  -2.8 -5 0  -2.7 -5 0  -2.6 -5 0  -2.5 -5 0  -2.4 -5 0  -2.3 -5 0  -2.2 -5 0  -2.1 -5 0  -2 -5 0  -1.9 -5 0  -1.8 -5 0  -1.7 -5 0  -1.6 -5 0  -1.5 -5 0  -1.4 -5 0  -1.3 -5 0  -1.2 -5 0  -1.1 -5 0  -1 -5 0  -0.9000000000000004 -5 0  -0.7999999999999998 -5 0  -0.7000000000000002 -5 0  -0.5999999999999996 -5 0  -0.5 -5 0  -0.4000000000000004 -5 0  -0.2999999999999998 -5 0  -0.2000000000000002 -5 0  -0.09999999999999964 -5 0  0 -5 0  0.09999999999999964 -5 0  0.2000000000000002 -5 0  0.2999999999999998 -5 0  0.4000000000000004 -5 0  0.5 -5 0  0.5999999999999996 -5 0  0.7000000000000002 -5 0  0.7999999999999998 -5 0  0.9000000000000004 -5 0  1 -5 0  1.1 -5 0  1.2 -5 0  1.3 -5 0  1.4 -5 0  1.5 -5 0  1.6 -5 0  1.7 -5 0  1.8 -5 0  1.9 -5 0  2 -5 0  2.1 -5 0  2.2 -5 0  2.3 -5 0  2.4 -5 0  2.5 -5 0  2.6 -5 0  2.7 -5 0  2.8 -5 0  2.9 -5 0  3 -5 0  3.1 -5 0  3.199999999999999 -5 0  3.300000000000001 -5 0  3.4 -5 0  3.5 -5 0  3.6 -5 0  3.699999999999999 -5 0  3.800000000000001 -5 0  3.9 -5 0  4 -5 0  4.1 -5 0  4.199999999999999 -5 0  4.300000000000001 -5 0  4.4 -5 0  4.5 -5 0  4.6 -5 0  4.699999999999999 -5 0  4.800000000000001 -5 0  4.9 -5 0  5 -4.9 0  5 -4.8 0  5 -4.7 0  5 -4.6 0  5 -4.5 0  5 -4.4 0  5 -4.3 0  5 -4.2 0  5 -4.1 0  5 -4 0  5 -3.9 0  5 -3.8 0  5 -3.7 0  5 -3.6 0  5 -3.5 0  5 -3.4 0  5 -3.3 0  5 -3.2 0  5 -3.1 0  5 -3 0  5 -2.9 0  5 -2.8 0  5 -2.7 0  5 -2.6 0  5 -2.5 0  5 -2.4 0  5 -2.3 0  5 -2.2 0  5 -2.1 0  5 -2 0  5 -1.9 0  5 -1.8 0  5 -1.7 0  5 -1.6 0  5 -1.5 0  5 -1.4 0  5 -1.3 0  5 -1.2 0  5 -1.1 0  5 -1 0  5 -0.9000000000000004 0  5 -0.7999999999999998 0  5 -0.7000000000000002 0  5 -0.5999999999999996 0  5 -0.5 0  5 -0.4000000000000004 0  5 -0.2999999999999998 0  5 -0.2000000000000002 0  5 -0.09999999999999964 0  5 0 0  5 0.09999999999999964 0  5 0.2000000000000002 0  5 0.2999999999999998 0  5 0.4000000000000004 0  5 0.5 0  5 0.5999999999999996 0  5 0.7000000000000002 0  5 0.7999999999999998 0  5 0.9000000000000004 0  5 1 0  5 1.1 0  5 1.2 0  5 1.3 0  5 1.4 0  5 1.5 0  5 1.6 0  5 1.7 0  5 1.8 0  5 1.9 0  5 2 0  5 2.1 0  5 2.2 0  5 2.3 0  5 2.4 0  5 2.5 0  5 2.6 0  5 2.7 0  5 2.8 0  5 2.9 0  5 3 0  5 3.1 0  5 3.199999999999999 0  5 3.300000000000001 0  5 3.4 0  5 3.5 0  5 3.6 0  5 3.699999999999999 0  5 3.800000000000001 0  5 3.9 0  5 4 0  5 4.1 0  5 4.199999999999999 0  5 4.300000000000001 0  5 4.4 0  5 4.5 0  5 4.6 0  5 4.699999999999999 0  5 4.800000000000001 0  5 4.9 0  4.9 5 0  4.8 5 0  4.7 5 0  4.6 5 0  4.5 5 0  4.4 5 0  4.3 5 0  4.2 5 0  4.1 5 0  4 5 0  3.9 5 0  3.8 5 0  3.7 5 0  3.6 5 0  3.5 5 0  3.4 5 0  3.3 5 0  3.2 5 0  3.1 5 0  3 5 0  2.9 5 0  2.8 5 0  2.7 5 0  2.6 5 0  2.5 5 0  2.4 5 0  2.3 5 0  2.2 5 0  2.1 5 0  2 5 0  1.9 5 0  1.8 5 0  1.7 5 0  1.6 5 0  1.5 5 0  1.4 5 0  1.3 5 0  1.2 5 0  1.1 5 0  1 5 0  0.9000000000000004 5 0  0.7999999999999998 5 0  0.7000000000000002 5 0  0.5999999999999996 5 0  0.5 5 0  0.4000000000000004 5 0  0.2999999999999998 5 0  0.2000000000000002 5 0  0.09999999999999964 5 0  0 5 0  -0.09999999999999964 5 0  -0.2000000000000002 5 0  -0.2999999999999998 5 0  -0.4000000000000004 5 0  -0.5 5 0  -0.5999999999999996 5 0  -0.7000000000000002 5 0  -0.7999999999999998 5 0  -0.9000000000000004 5 0  -1 5 0  -1.1 5 0  -1.2 5 0  -1.3 5 0  -1.4 5 0  -1.5 5 0  -1.6 5 0  -1.7 5 0  -1.8 5 0  -1.9 5 0  -2 5 0  -2.1 5 0  -2.2 5 0  -2.3 5 0  -2.4 5 0  -2.5 5 0  -2.6 5 0  -2.7 5 0  -2.8 5 0  -2.9 5 0  -3 5 0  -3.1 5 0  -3.199999999999999 5 0  -3.300000000000001 5 0  -3.4 5 0  -3.5 5 0  -3.6 5 0  -3.699999999999999 5 0  -3.800000000000001 5 0  -3.9 5 0  -4 5 0  -4.1 5 0  -4.199999999999999 5 0  -4.300000000000001 5 0  -4.4 5 0  -4.5 5 0  -4.6 5 0  -4.699999999999999 5 0  -4.800000000000001 5 0  -4.9 5 0  -5 4.9 0  -5 4.8 0  -5 4.7 0  -5 4.6 0  -5 4.5 0  -5 4.4 0  -5 4.3 0  -5 4.2 0  -5 4.1 0  -5 4 0  -5 3.9 0  -5 3.8 0  -5 3.7 0  -5 3.6 0  -5 3.5 0  -5 3.4 0  -5 3.3 0  -5 3.2 0  -5 3.1 0  -5 3 0  -5 2.9 0  -5 2.8 0  -5 2.7 0  -5 2.6 0  -5 2.5 0  -5 2.4 0  -5 2.3 0  -5 2.2 0  -5 2.1 0  -5 2 0  -5 1.9 0  -5 1.8 0  -5 1.7 0  -5 1.6 0  -5 1.5 0  -5 1.4 0  -5 1.3 0  -5 1.2 0  -5 1.1 0  -5 1 0  -5 0.9000000000000004 0  -5 0.7999999999999998 0  -5 0.7000000000000002 0  -5 0.5999999999999996 0  -5 0.5 0  -5 0.4000000000000004 0  -5 0.2999999999999998 0  -5 0.2000000000000002 0  -5 0.09999999999999964 0  -5 0 0  -5 -0.09999999999999964 0  -5 -0.2000000000000002 0  -5 -0.2999999999999998 0  -5 -0.4000000000000004 0  -5 -0.5 0  -5 -0.5999999999999996 0  -5 -0.7000000000000002 0  -5 -0.7999999999999998 0  -5 -0.9000000000000004 0  -5 -1 0  -5 -1.1 0  -5 -1.2 0  -5 -1.3 0  -5 -1.4 0  -5 -1.5 0  -5 -1.6 0  -5 -1.7 0  -5 -1.8 0  -5 -1.9 0  -5 -2 0  -5 -2.1 0  -5 -2.2 0  -5 -2.3 0  -5 -2.4 0  -5 -2.5 0  -5 -2.6 0  -5 -2.7 0  -5 -2.8 0  -5 -2.9 0  -5 -3 0  -5 -3.1 0  -5 -3.199999999999999 0  -5 -3.300000000000001 0  -5 -3.4 0  -5 -3.5 0  -5 -3.6 0  -5 -3.699999999999999 0  -5 -3.800000000000001 0  -5 -3.9 0  -5 -4 0  -5 -4.1 0  -5 -4.199999999999999 0  -5 -4.300000000000001 0  -5 -4.4 0  -5 -4.5 0  -5 -4.6 0  -5 -4.699999999999999 0  -5 -4.800000000000001 0  -5 -4.9 0  1.076318843082448 0.1003776257904275 0  1.060096862246218 0.1996755811277776 0  1.032810424957831 0.2972657841565789 0  0.9962466902640916 0.3910153293625364 0  0.9495596494849378 0.4818290472019394 0  0.8937723998848817 0.5675369158982532 0  0.8286575807047463 0.6473509506966634 0  0.7547978949026461 0.7205811241325972 0  0.6740651426713579 0.7869497922586489 0  0.5866422725094811 0.8457330502366366 0  0.4930448838349012 0.895729114133171 0  0.3944587481924333 0.936957461911075 0  0.292852001915731 0.9692149774393585 0  0.1876843629159182 0.9912801107892746 0  0.08124850758830841 1.003940421934796 0  -0.02629906174023901 1.006494986005665 0  -0.1335943702435998 0.9986976133698351 0  -0.2396547638863962 0.9816135813139304 0  -0.343304029406308 0.9546505139344902 0  -0.4434199598582918 0.9179115442277243 0  -0.5389923699401432 0.8724415569368306 0  -0.6293856132510602 0.8179777778797943 0  -0.7135396544181869 0.75555572202525 0  -0.7906679961083403 0.6857594880580919 0  -0.8601077133072181 0.6084685005094942 0  -0.9206915322102818 0.5253588310686578 0  -0.972631694786335 0.4374024861428568 0  -1.014470828301991 0.3447009096132862 0  -1.046064903680462 0.2489010438706793 0  -1.067515262185993 0.1506644860073512 0  -1.078395332550437 0.05062953141235604 0  -1.078415822733742 -0.04996019703832189 0  -1.067558549932515 -0.1498899909672764 0  -1.047011763219629 -0.2480919597974897 0  -1.014453337940096 -0.3442763648182945 0  -0.9728000475006641 -0.4365872276580923 0  -0.921034365252086 -0.5246938557948254 0  -0.8605179216303236 -0.6075965936434258 0  -0.7910427292485779 -0.6844376131178705 0  -0.7135865555228426 -0.7540927984699608 0  -0.6290635557364549 -0.8160983822753494 0  -0.5392441690919787 -0.8708736120073767 0  -0.4426549283386528 -0.9163718490365438 0  -0.3424721105826781 -0.9534136960125679 0  -0.2386490664767136 -0.9805936877524928 0  -0.1328006685630251 -0.9979770209696166 0  -0.02575759192034049 -1.006185326748519 0  0.0814717052548409 -1.003334690932205 0  0.1884293628544325 -0.9904454858068252 0  0.2931631867081972 -0.9683090305089618 0  0.3956848633108646 -0.9361129276895122 0  0.4934717172445345 -0.894973752840353 0  0.5869513398017823 -0.8450529003405179 0  0.674267552560207 -0.7871655662951618 0  0.754966302912784 -0.7207945713954986 0  0.8284185608549773 -0.6470197053046298 0  0.8933038098011812 -0.5669596453015594 0  0.9497434125321328 -0.481464270694332 0  0.9970500554062723 -0.3910598661513422 0  1.033500206890623 -0.2969260309866996 0  1.060150457177948 -0.1993338602237354 0  1.076356088257061 -0.1002159829126947 0  -2.449401865963398 4.919667494743527 0  -2.44935066496443 -4.912186275965228 0  4.91215040205239 2.449112250847111 0  4.920116835477553 -2.450463420892933 0  2.447229979208727 -4.897713636807549 0  2.441628919250616 4.901411593342328 0  -4.912163098590343 -2.449125262694793 0  -4.912164726314482 2.449128934936835 0  -1.749383303770846 4.913237237401967 0  -1.745132175872142 -4.916589074451264 0  4.922781466582791 1.745170770999633 0  4.911619471015505 -1.749093051191986 0  -4.911886105343228 -1.74880846140835 0  -4.912691112213184 1.748540155874025 0  1.746709776862739 4.9072597239668 0  1.748233517180026 -4.89569662154447 0  -1.14951655738425 4.911487856433303 0  -1.130304460106076 -4.919174010519836 0  -4.912215914898214 -1.148916346546413 0  -4.912044329504837 1.148715271242126 0  1.144466912996099 -4.915472333378767 0  1.149518215289645 4.911482496223938 0  4.912381357701746 1.147199507708657 0  4.922842356491091 -1.15286658615325 0  -0.5470203454852551 -4.912906180219704 0  -0.5467686269754186 4.921320922340679 0  -4.91144051430845 -0.5492578667647467 0  -4.911466469761478 0.5478093837121545 0  4.910818876546251 -0.5495867849349966 0  4.922029797067366 0.5462690067763805 0  0.5428358602305862 -4.900212086712437 0  0.5515030673788333 4.918247869446412 0  -4.913034268511717 -3.049274941193713 0  4.919529420003735 3.047228133447436 0  4.912555082764552 -3.049266695613526 0  -4.913876749900935 3.04635864540068 0  3.056038188202133 -4.91850835664801 0  -3.049424088387637 -4.912521397531716 0  3.052974739844029 4.914579100572065 0  -3.048865171071912 4.913401988912421 0  -4.910732774053761 -0.04996260015794928 0  0.0451414487607348 -4.914878033403027 0  0.049591692150981 4.921681434508417 0  4.917540038907508 -0.05134122222374683 0  3.546203825503795 -4.919815193793033 0  -3.549535617394741 
[...]
<PointData  Scalars="f_30"> 
<DataArray  type="Float64"  Name="f_30"  format="ascii">0.0000000000000000e+00  0.0000000000000000e+00  0.0000000000000000e+00  0.0000000000000000e+00  7.4659753300592713e-01  0.0000000000000000e+00  0.0000000000000000e+00  0.0000000000000000e+00  0.0000000000000000e+00  0.0000000000000000e+00  0.0000000000000000e+00  0.0000000000000000e+00  0.0000000000000000e+00  0.0000000000000000e+00  0.0000000000000000e+00  0.0000000000000000e+00  0.0000000000000000e+00  0.0000000000000000e+00  0.0000000000000000e+00  0.0000000000000000e+00  0.0000000000000000e+00  0.0000000000000000e+00  0.0000000000000000e+00  0.0000000000000000e+00  0.0000000000000000e+00  0.0000000000000000e+00  0.0000000000000000e+00  0.0000000000000000e+00  0.0000000000000000e+00  0.0000000000000000e+00  0.0000000000000000e+00  0.0000000000000000e+00  0.0000000000000000e+00  0.0000000000000000e+00  0.0000000000000000e+00  0.0000000000000000e+00  0.0000000000000000e+00  0.0000000000000000e+00  0.0000000000000000e+00  0.0000000000000000e+00  0.0000000000000000e+00  0.0000000000000000e+00  0.0000000000000000e+00  0.0000000000000000e+00  0.0000000000000000e+00  0.0000000000000000e+00  0.0000000000000000e+00  0.0000000000000000e+00  0.0000000000000000e+00  0.0000000000000000e+00  0.0000000000000000e+00  0.0000000000000000e+00  0.0000000000000000e+00  0.0000000000000000e+00  0.0000000000000000e+00  0.0000000000000000e+00  0.0000000000000000e+00  0.0000000000000000e+00  0.0000000000000000e+00  0.0000000000000000e+00  0.0000000000000000e+00  0.0000000000000000e+00  0.0000000000000000e+00  0.0000000000000000e+00  0.0000000000000000e+00  0.0000000000000000e+00  0.0000000000000000e+00  0.0000000000000000e+00  0.0000000000000000e+00  0.0000000000000000e+00  0.0000000000000000e+00  0.0000000000000000e+00  0.0000000000000000e+00  0.0000000000000000e+00  0.0000000000000000e+00  0.0000000000000000e+00  0.0000000000000000e+00  0.0000000000000000e+00  0.0000000000000000e+00  0.0000000000000000e+00  0.0000000000000000e+00  0.0000000000000000e+00  0.0000000000000000e+00  0.0000000000000000e+00  0.0000000000000000e+00  0.0000000000000000e+00  0.0000000000000000e+00  0.0000000000000000e+00  0.0000000000000000e+00  0.0000000000000000e+00  0.0000000000000000e+00  0.0000000000000000e+00  0.0000000000000000e+00  0.0000000000000000e+00  0.0000000000000000e+00  0.0000000000000000e+00  0.0000000000000000e+00  0.0000000000000000e+00  0.0000000000000000e+00  0.0000000000000000e+00  0.0000000000000000e+00  0.0000000000000000e+00  0.0000000000000000e+00  0.0000000000000000e+00  0.0000000000000000e+00  0.0000000000000000e+00  0.0000000000000000e+00  0.0000000000000000e+00  0.0000000000000000e+00  0.0000000000000000e+00  0.0000000000000000e+00  0.0000000000000000e+00  0.0000000000000000e+00  0.0000000000000000e+00  0.0000000000000000e+00  0.0000000000000000e+00  0.0000000000000000e+00  0.0000000000000000e+00  0.0000000000000000e+00  0.0000000000000000e+00  0.0000000000000000e+00  0.0000000000000000e+00  0.0000000000000000e+00  0.0000000000000000e+00  0.0000000000000000e+00  0.0000000000000000e+00  0.0000000000000000e+00  0.0000000000000000e+00  0.0000000000000000e+00  0.0000000000000000e+00  0.0000000000000000e+00  0.0000000000000000e+00  0.0000000000000000e+00  0.0000000000000000e+00  0.0000000000000000e+00  0.0000000000000000e+00  0.0000000000000000e+00  0.0000000000000000e+00  0.0000000000000000e+00  0.0000000000000000e+00  0.0000000000000000e+00  0.0000000000000000e+00  0.0000000000000000e+00  0.0000000000000000e+00  0.0000000000000000e+00  0.0000000000000000e+00  0.0000000000000000e+00  0.0000000000000000e+00  0.0000000000000000e+00  0.0000000000000000e+00  0.0000000000000000e+00  0.0000000000000000e+00  0.0000000000000000e+00  0.0000000000000000e+00  0.0000000000000000e+00  0.0000000000000000e+00  0.0000000000000000e+00  0.0000000000000000e+00  0.0000000000000000e+00  0.0000000000000000e+00  0.0000000000000000e+00  0.0000000000000000e+00  0.0000000000000000e+00  0.0000000000000000e+00  0.0000000000000000e+00  0.0000000000000000e+00  0.0000000000000000e+00  0.0000000000000000e+00  0.0000000000000000e+00  0.0000000000000000e+00  0.0000000000000000e+00  0.0000000000000000e+00  0.0000000000000000e+00  0.0000000000000000e+00  0.0000000000000000e+00  0.0000000000000000e+00  0.0000000000000000e+00  0.0000000000000000e+00  0.0000000000000000e+00  0.0000000000000000e+00  0.0000000000000000e+00  0.0000000000000000e+00  0.0000000000000000e+00  0.0000000000000000e+00  0.0000000000000000e+00  0.0000000000000000e+00  0.0000000000000000e+00  0.0000000000000000e+00  0.0000000000000000e+00  0.0000000000000000e+00  0.0000000000000000e+00  0.0000000000000000e+00  0.0000000000000000e+00  0.0000000000000000e+00  0.0000000000000000e+00  0.0000000000000000e+00  0.0000000000000000e+00  0.0000000000000000e+00  0.0000000000000000e+00  0.0000000000000000e+00  0.0000000000000000e+00  0.0000000000000000e+00  0.0000000000000000e+00  0.0000000000000000e+00  0.0000000000000000e+00  0.0000000000000000e+00  0.0000000000000000e+00  0.0000000000000000e+00  0.0000000000000000e+00  0.0000000000000000e+00  0.0000000000000000e+00  0.0000000000000000e+00  0.0000000000000000e+00  0.0000000000000000e+00  0.0000000000000000e+00  0.0000000000000000e+00  0.0000000000000000e+00  0.0000000000000000e+00  0.0000000000000000e+00  0.0000000000000000e+00  0.0000000000000000e+00  0.0000000000000000e+00  0.0000000000000000e+00  0.0000000000000000e+00  0.0000000000000000e+00  0.0000000000000000e+00  0.0000000000000000e+00  0.0000000000000000e+00  0.0000000000000000e+00  0.0000000000000000e+00  0.0000000000000000e+00  0.0000000000000000e+00  0.0000000000000000e+00  0.0000000000000000e+00  0.0000000000000000e+00  0.0000000000000000e+00  0.0000000000000000e+00  0.0000000000000000e+00  0.0000000000000000e+00  0.0000000000000000e+00  0.0000000000000000e+00  0.0000000000000000e+00  0.0000000000000000e+00  0.0000000000000000e+00  0.0000000000000000e+00  0.0000000000000000e+00  0.0000000000000000e+00  0.0000000000000000e+00  0.0000000000000000e+00  0.0000000000000000e+00  0.0000000000000000e+00  0.0000000000000000e+00  0.0000000000000000e+00  0.0000000000000000e+00  0.0000000000000000e+00  0.0000000000000000e+00  0.0000000000000000e+00  0.0000000000000000e+00  0.0000000000000000e+00  0.0000000000000000e+00  0.0000000000000000e+00  0.0000000000000000e+00  0.0000000000000000e+00  0.0000000000000000e+00  0.0000000000000000e+00  0.0000000000000000e+00  0.0000000000000000e+00  0.0000000000000000e+00  0.0000000000000000e+00  0.0000000000000000e+00  0.0000000000000000e+00  0.0000000000000000e+00  0.0000000000000000e+00  0.0000000000000000e+00  0.0000000000000000e+00  0.0000000000000000e+00  0.0000000000000000e+00  0.0000000000000000e+00  0.0000000000000000e+00  0.0000000000000000e+00  0.0000000000000000e+00  0.0000000000000000e+00  0.0000000000000000e+00  0.0000000000000000e+00  0.0000000000000000e+00  0.0000000000000000e+00  0.0000000000000000e+00  0.0000000000000000e+00  0.0000000000000000e+00  0.0000000000000000e+00  0.0000000000000000e+00  0.0000000000000000e+00  0.0000000000000000e+00  0.0000000000000000e+00  0.0000000000000000e+00  0.0000000000000000e+00  0.0000000000000000e+00  0.0000000000000000e+00  0.0000000000000000e+00  0.0000000000000000e+00  0.0000000000000000e+00  0.0000000000000000e+00  0.0000000000000000e+00  0.0000000000000000e+00  0.0000000000000000e+00  0.0000000000000000e+00  0.0000000000000000e+00  0.0000000000000000e+00  0.0000000000000000e+00  0.0000000000000000e+00  0.0000000000000000e+00  0.0000000000000000e+00  0.0000000000000000e+00  0.0000000000000000e+00  0.0000000000000000e+00  0.0000000000000000e+00  0.0000000000000000e+00  0.0000000000000000e+00  0.0000000000000000e+00  0.0000000000000000e+00  0.0000000000000000e+00  0.0000000000000000e+00  0.0000000000000000e+00  0.0000000000000000e+00  0.0000000000000000e+00  0.0000000000000000e+00  0.0000000000000000e+00  0.0000000000000000e+00  0.0000000000000000e+00  0.0000000000000000e+00  0.0000000000000000e+00  0.0000000000000000e+00  0.0000000000000000e+00  0.0000000000000000e+00  0.0000000000000000e+00  0.0000000000000000e+00  0.0000000000000000e+00  0.0000000000000000e+00  0.0000000000000000e+00  0.0000000000000000e+00  0.0000000000000000e+00  0.0000000000000000e+00  0.0000000000000000e+00  0.0000000000000000e+00  0.0000000000000000e+00  0.0000000000000000e+00  0.0000000000000000e+00  0.0000000000000000e+00  0.0000000000000000e+00  0.0000000000000000e+00  0.0000000000000000e+00  0.0000000000000000e+00  0.0000000000000000e+00  0.0000000000000000e+00  0.0000000000000000e+00  0.0000000000000000e+00  0.0000000000000000e+00  0.0000000000000000e+00  0.0000000000000000e+00  0.0000000000000000e+00  0.0000000000000000e+00  0.0000000000000000e+00  0.0000000000000000e+00  0.0000000000000000e+00  0.0000000000000000e+00  0.0000000000000000e+00  0.0000000000000000e+00  0.0000000000000000e+00  0.0000000000000000e+00  0.0000000000000000e+00  0.0000000000000000e+00  0.0000000000000000e+00  0.0000000000000000e+00  0.0000000000000000e+00  0.0000000000000000e+00  0.0000000000000000e+00  0.0000000000000000e+00  0.0000000000000000e+00  0.0000000000000000e+00  0.0000000000000000e+00  0.0000000000000000e+00  0.0000000000000000e+00  0.0000000000000000e+00  0.0000000000000000e+00  0.0000000000000000e+00  0.0000000000000000e+00  0.0000000000000000e+00  0.0000000000000000e+00  0.0000000000000000e+00  0.0000000000000000e+00  0.0000000000000000e+00  0.0000000000000000e+00  0.0000000000000000e+00  0.0000000000000000e+00  0.0000000000000000e+00  0.0000000000000000e+00  0.0000000000000000e+00  0.0000000000000000e+00  0.0000000000000000e+00  0.0000000000000000e+00  0.0000000000000000e+00  7.6697138820213751e-01  7.4068112447792789e-01  5.9379319260781904e-01  6.0273238366075832e-01  6.9443548381643816e-01  8.4028232975608086e-01  8.1527722010069781e-01  6.5723744936753581e-01  7.1907681556154424e-01  8.5630077765448287e-01  8.0332284461316095e-01  7.6481724296275222e-01  8.9500934666048715e-01  7.1835142228839233e-01  7.3363122493667254e-01  7.1654744940685766e-01  6.3278050659201701e-01  7.5362110264610715e-01  7.8630323957223580e-01  7.0834322764098767e-01  7.4895980467164902e-01  7.2578444863278169e-01  7.4912010571994259e-01  8.1207383240447317e-01  7.4550692100366867e-01  6.6904000865225011e-01  7.6392645794131853e-01  7.1682481333926695e-01  6.3213334429745760e-01  6.7589998978490617e-01  7.2310485067670160e-01  7.3276051215176918e-01  6.9323097285260760e-01  9.0240007776832254e-01  7.0967854061068159e-01  7.7315806258013264e-01  7.1858032799340976e-01  8.0882082633361119e-01  8.0659403130094198e-01  7.1345513166193086e-01  5.7791769728200859e-01  8.4653356530917001e-01  6.9983524109219186e-01  8.0374933389065650e-01  7.7788191307436816e-01  7.2713384587380891e-01  9.6504464716920912e-01  8.6087316941110081e-01  7.5111897367348313e-01  7.9004195576631986e-01  7.2468226498506150e-01  6.6951558975866254e-01  7.2671245740065604e-01  8.2470571287750039e-01  7.6335703948272604e-01  7.3679907099525388e-01  6.6833437604936474e-01  7.4123481259153201e-01  8.9847162087520271e-01  7.7587805967586243e-01  7.5579956510127855e-01  7.9486222527651496e-01  3.6124711626396973e-27  -1.3179290548571036e-27  -2.6372992363157236e-27  -2.9362117545341964e-27  -1.2758550232690963e-27  -5.3232335895153637e-28  -2.0321711890055259e-28  1.8085997639430393e-27  7.1911466751849240e-27  4.1262764156593274e-27  -7.0167498824264215e-25  -6.6245833052581025e-25  5.4015512549659317e-25  1.1894522765752859e-24  3.7087325615625211e-26  3.0575059506456443e-26  -4.7806999447456968e-26  -3.0033036338574555e-26  -1.1242593020567460e-22  -1.6505399164900775e-22  -4.3272487082601292e-26  -4.9231815903071158e-26  4.7612445263263838e-23  4.7758649110740311e-23  -4.7319444355119341e-27  -3.9746263502359354e-26  -7.5369920986175026e-21  -7.1236227251628517e-21  -4.5758827219047286e-21  -4.8274270536842236e-21  8.3190683840543947e-26  -2.6521670398357911e-26  7.1703459921509443e-30  -8.8439321201603364e-30  -9.0742350429565131e-30  1.6282542634852800e-29  1.9759225604267110e-28  3.9844071656594057e-28  2.8927365778667943e-28  3.1817842750927453e-28  3.5536297220423580e-20  6.3534400267451227e-26  1.2229835710824396e-26  3.8447618304720197e-20  -9.0965329934660078e-30  -9.9263830583826565e-30  -6.2620636496870035e-30  2.3186077752524247e-31  2.4329241456615678e-31  2.3940971277480557e-31  1.4562219195418266e-31  -9.9633711071847687e-30  -6.1356153898088654e-33  -2.3068709946896214e-32  1.1371227113359571e-31  -4.0599762262310145e-33  2.5155009612888143e-32  -6.0625834845908718e-33  1.3756213126724765e-31  -9.9017123267115896e-34  -1.2942969341204358e-33  -4.6819386477503192e-34  -1.9574334653714175e-34  1.4856516040812347e-34  1.3409178595273644e-34  7.7341048435548155e-35  7.3735220857152780e-36  -1.6096905607176075e-33  2.7758147675768461e-20  4.6287155287095893e-26  -1.3624836719248769e-26  1.3821895509238229e-20  1.1674876017792393e-25  -3.4725253535471879e-24  1.3394908102236717e-21  8.8430430131682245e-22  -3.2579713766825258e-24  2.7350404007162725e-26  7.8784923394830423e-26  -5.2858649884653231e-26  -3.8568399327763526e-26  -1.1547888058872246e-23  3.9597116942191871e-22  4.1482003169820200e-22  -1.1338401310484863e-23  -2.5536333994726979e-27  8.8216972577624521e-26  -4.0414583758116019e-27  5.5611036696427575e-27  -6.5531493838240328e-27  8.9115028317459199e-26  1.1270771798186167e-25  -4.0123184158770031e-27  -2.4118671705061586e-27  3.0464774071742150e-26  2.8830719564361417e-26  -1.5704731610952585e-28  -7.7607488374856973e-28  -1.2225146102146267e-27  2.0590628009699676e-28  6.3877722280535345e-28  6.7275965846936843e-29  -1.5133892403082756e-28  -9.2259865841464137e-28  1.2567461878488287e-35  1.8952163524099091e-35  7.5316889881601037e-36  -1.6945965248184337e-36  6.4699475622554271e-36  1.5368915792374273e-36  1.0557451200443943e-35  5.2339693570983329e-37  2.7877468079267251e-20  1.2033523348315307e-25  1.1445993214625395e-25  1.3760365283184890e-20  -1.7864339164970283e-27  4.4955714103863123e-27  4.7957016636604932e-27  -7.1557356722640795e-27  -1.1865853873580392e-26  -7.0178872855900179e-29  -8.1948618604475720e-27  -2.0294426906314285e-26  3.5252795239286939e-30  -1.1191912584034595e-28  -7.3960322013172035e-29  2.8341012270673742e-30  3.4754385473375219e-30  -9.6395331089193505e-29  -1.2779595871001380e-28  1.1569373464162716e-30  -3.7500005669794675e-33  3.6441438346852753e-34  1.2053010299186783e-30  -1.2997725223715544e-32  2.7360797380999723e-31  -1.5412836473530184e-32  -3.6562416856275736e-32  1.2126589280378480e-33  8.1374565368085228e-31  -1.3325616893733690e-32  -1.3655507451314689e-33  2.9198333425408390e-34  -4.4317834672584487e-32  1.2637525119968096e-33  5.2319143017293672e-31  -1.7094960632806423e-32  -3.7014087478505659e-36  -1.7453806402594880e-36  -2.9595970202265262e-36  -3.4662494377598415e-36  3.4840953125948732e-20  -1.2995853855388064e-19  -8.5771480949333002e-20  4.2076949771867273e-19  2.0515161219137791e-19  -1.2097205619025240e-18  -3.1622072259676262e-19  2.8705392014570312e-18  -2.7975282292151567e-19  -4.3099797904617024e-18  4.7474874111082207e-18  -4.6496840801857806e-18  -2.3363935667741953e-17  6.8991207444261275e-17  8.0970992997868501e-17  -3.3342386795954865e-16  -2.1158945486310527e-16  1.1328875700290321e-15  3.8162533372280979e-16  -2.8846905623602926e-15  -2.0353336119540650e-16  -4.7525364764135231e-15  4.9165513853400704e-15  -1.6200972342671791e-15  -1.5863591336890169e-15  7.3808895724581284e-15  -2.5145868091765698e-14  -1.5924050338373425e-14  9.9126081057245359e-14  9.7169877092039729e-15  -1.8521728836433313e-13  5.6053611637083586e-14  -3.7650739682353481e-13  2.9176579876248315e-14  -1.9703581584089254e-13  8.8654772216543520e-13  1.5536371849198092e-13  -2.2293417996022951e-12  7.7802430207686181e-13  -1.2244373017608895e-13  -2.4767517658018656e-12  1.3240156883984715e-11  -1.0637220925402271e-13  -2.1326468378063877e-11  -2.3720653403553890e-11  1.5576248287615334e-11  -4.0435956732023761e-11  -2.6197014788315977e-11  -3.0475918220915771e-13  1.7310824437821393e-11  -4.9867794664865873e-11  -2.3475138465968004e-11  -1.2717074850259351e-12  1.8382150142891850e-11  -2.7278789567068988e-12  -3.2804593477690361e-12  -1.3737058680633997e-11  1.8262698635287774e-11  -1.8308176999267508e-12  -6.7099889290664380e-12  1.4874965006221677e-12  3.6898536024999899e-13  1.1085118392819825e-11  -8.5790478520481419e-12  9.5890431920952039e-13  3.5615955189631813e-12  -1.4405369971961291e-11  2.2790823913202575e-12  -9.7888599454390274e-13  2.8368191762688341e-13  -4.9727511697056976e-12  2.1933208984002035e-12  -8.9153963394583732e-12  1.4121255492186128e-13  1.4211349279415306e-12  2.1923135262910884e-12  -3.5655653890557820e-12  2.5691749082875758e-11  -9.9231840792629157e-12  4.6010895195766643e-11  -1.3699301803415464e-11  5.3263133382728415e-11  3.2758553760893592e-12  -1.4243386671076201e-11  5.2221957729493013e-11  -1.3903416958111420e-11  5.2098865915762412e-11  -1.4170347751677257e-11  5.2925093149350551e-11  -1.3636551711927263e-11  4.6052867665121234e-11  -1.0050678192434255e-11  2.6442980317380802e-11  -3.7218000407081620e-12  1.9330645740914613e-12  3.2815738328579588e-12  -1.3958261954339993e-10  2.3410233717561635e+00  1.9656864718163727e-12  -1.3155385362737828e-11  3.9195611802981417e-12  -1.2890823230850267e-11  2.3781066477891000e+00  2.4094276482722887e-12  -4.4110073245288842e-12  2.3413020979026564e+00  1.7736912670519434e-13  1.8650130799009604e-12  1.7164224339938654e-12  -1.0302395957853309e-11  2.3501435225085154e-12  -4.7670547885360662e-12  -1.9087482852555807e-10  -3.2986316011687158e-13  1.8434922922268309e-13  2.4645085110347032e-12  1.3491568975310063e-12  -1.3790139478345080e-11  3.1898437283213157e-12  -6.8563088058769595e-12  4.4371411484513629e-11  5.1244336278661779e-12  1.7258284729790456e-12  -1.0569850213850071e-11  2.9623510493794618e-11  2.7853154581811036e-11  -3.0702251534091990e-12  -2.6879110530198726e-12  -2.9987557689655092e-11  2.4130264158442939e-11  -4.4952310335562309e-12  2.5572676072669641e-12  -4.7095902510191299e-11  1.4853896174705388e-11  -3.5621468733062176e-12  2.0502114281375809e-12  -3.4323614919655065e-11  1.3008193660052068e-11  -1.6548632737171978e-11  -2.7050019293638785e-11  7.5666589657937734e-13  1.4716302575187574e-11  -2.5664304553292224e-11  -3.4304418231845799e-11  1.0575722088348255e-12  1.9252312521670912e-11  -3.8073449874592749e-11  -4.0373693613028422e-11  3.3818754076399203e-10  -1.0482678159420442e-10  3.4555087109786173e-11  2.7918138198037881e-10  -1.0166548502174151e-11  -1.5823739375612022e-10  7.0782029827524864e-10  -9.7359202589483509e-11  -3.1622144604275458e-10  3.3492394510415906e-10  -1.7627395480937688e-09  3.1751277602587687e-10  5.2667241397321751e-10  -9.3920961930243411e-10  5.5427920582215847e-11  4.6158084348112146e-10  -2.0802081050727314e-09  4.1334182274533644e-10  4.8918090211781521e-11  -7.7784810857238140e-10  6.2580214915747353e-09  -2.5231812594488572e-09  1.1102923981763018e-08  -2.6967748362598305e-09  6.0768123644826125e-09  3.0380869732625428e-10  -1.0068035503173699e-08  5.1676958886098762e-09  -2.7534060492365452e-08  8.9689120654539755e-09  -3.7317771867524481e-08  1.0594617905345733e-08  -4.0077923186904168e-08  1.0586089280072895e-08  -3.7174860179703177e-08  8.7248645841504322e-09  -2.6310966433421275e-08  5.0685757972661468e-09  -1.1416166779270940e-08  -1.8825380518780265e-09  -8.3021156853284912e-10  3.6490915582781283e-10  9.5298788037473732e-11  -6.0274830126572255e-11  2.9173310257404610e-12  6.9892827400033844e-12  -6.6547405484846486e-12  1.9365065262480199e-13  2.8335953144563170e-12  -1.2437670265418511e-11  -4.7751804760956168e-13  4.5648929257873441e-10  3.2651041494979800e-12  -1.0225748862467066e-11  1.8589514989537364e-12  -3.3190794980569072e-12  1.0211917346298656e-13  1.5019749399135591e-12  -5.0334252681632706e-13  1.3507412