<?xml version="1.0"?>
<VTKFile type="UnstructuredGrid"  version="0.1"  >
<UnstructuredGrid>
<Piece  NumberOfPoints="11902" NumberOfCells="23402">
<Points>
<DataArray  type="Float64"  NumberOfComponents="3"  format="ascii">-5 -5 0  5 -5 0  5 5 0  -5 5 0  1.114558233322134 0.0007677048187864728 0  -4.9 -5 0  -4.8 -5 0  -4.7 -5 0  -4.6 -5 0  -4.5 -5 0  -4.4 -5 0  -4.3 -5 0  -4.2 -5 0  -4.1 -5 0  -4 -5 0  -3.9 -5 0  -3.8 -5 0  -3.7 -5 0  -3.6 -5 0  -3.5 -5 0  -3.4 -5 0  -3.3 -5 0  -3.2 -5 0  -3.1 -5 0  -3 -5 0  -2.9 -5 0  -2.8 -5 0  -2.7 -5 0  -2.6 -5 0  -2.5 -5 0  -2.4 -5 0  -2.3 -5 0  -2.2 -5 0  -2.1 -5 0  -2 -5 0  -1.9 -5 0  -1.8 -5 0  -1.7 -5 0  -1.6 -5 0  -1.5 -5 0  -1.4 -5 0  -1.3 -5 0  -1.2 -5 0  -1.1 -5 0  -1 -5 0  -0.9000000000000004 -5 0  -0.7999999999999998 -5 0  -0.7000000000000002 -5 0  -0.5999999999999996 -5 0  -0.5 -5 0  -0.4000000000000004 -5 0  -0.2999999999999998 -5 0  -0.2000000000000002 -5 0  -0.09999999999999964 -5 0  0 -5 0  0.09999999999999964 -5 0  0.2000000000000002 -5 0  0.2999999999999998 -5 0  0.4000000000000004 -5 0  0.5 -5 0  0.5999999999999996 -5 0  0.7000000000000002 -5 0  0.7999999999999998 -5 0  0.9000000000000004 -5 0  1 -5 0  1.1 -5 0  1.2 -5 0  1.3 -5 0  1.4 -5 0  1.5 -5 0  1.6 -5 0  1.7 -5 0  1.8 -5 0  1.9 -5 0  2 -5 0  2.1 -5 0  2.2 -5 0  2.3 -5 0  2.4 -5 0  2.5 -5 0  2.6 -5 0  2.7 -5 0  2.8 -5 0  2.9 -5 0  3 -5 0  3.1 -5 0  3.199999999999999 -5 0  3.300000000000001 -5 0  3.4 -5 0  3.5 -5 0  3.6 -5 0  3.699999999999999 -5 0  3.800000000000001 -5 0  3.9 -5 0  4 -5 0  4.1 -5 0  4.199999999999999 -5 0  4.300000000000001 -5 0  4.4 -5 0  4.5 -5 0  4.6 -5 0  4.699999999999999 -5 0  4.800000000000001 -5 0  4.9 -5 0  5 -4.9 0  5 -4.8 0  5 -4.7 0  5 -4.6 0  5 -4.5 0  5 -4.4 0  5 -4.3 0  5 -4.2 0  5 -4.1 0  5 -4 0  5 -3.9 0  5 -3.8 0  5 -3.7 0  5 -3.6 0  5 -3.5 0  5 -3.4 0  5 -3.3 0  5 -3.2 0  5 -3.1 0  5 -3 0  5 -2.9 0  5 -2.8 0  5 -2.7 0  5 -2.6 0  5 -2.5 0  5 -2.4 0  5 -2.3 0  5 -2.2 0  5 -2.1 0  5 -2 0  5 -1.9 0  5 -1.8 0  5 -1.7 0  5 -1.6 0  5 -1.5 0  5 -1.4 0  5 -1.3 0  5 -1.2 0  5 -1.1 0  5 -1 0  5 -0.9000000000000004 0  5 -0.7999999999999998 0  5 -0.7000000000000002 0  5 -0.5999999999999996 0  5 -0.5 0  5 -0.4000000000000004 0  5 -0.2999999999999998 0  5 -0.2000000000000002 0  5 -0.09999999999999964 0  5 0 0  5 0.09999999999999964 0  5 0.2000000000000002 0  5 0.2999999999999998 0  5 0.4000000000000004 0  5 0.5 0  5 0.5999999999999996 0  5 0.7000000000000002 0  5 0.7999999999999998 0  5 0.9000000000000004 0  5 1 0  5 1.1 0  5 1.2 0  5 1.3 0  5 1.4 0  5 1.5 0  5 1.6 0  5 1.7 0  5 1.8 0  5 1.9 0  5 2 0  5 2.1 0  5 2.2 0  5 2.3 0  5 2.4 0  5 2.5 0  5 2.6 0  5 2.7 0  5 2.8 0  5 2.9 0  5 3 0  5 3.1 0  5 3.199999999999999 0  5 3.300000000000001 0  5 3.4 0  5 3.5 0  5 3.6 0  5 3.699999999999999 0  5 3.800000000000001 0  5 3.9 0  5 4 0  5 4.1 0  5 4.199999999999999 0  5 4.300000000000001 0  5 4.4 0  5 4.5 0  5 4.6 0  5 4.699999999999999 0  5 4.800000000000001 0  5 4.9 0  4.9 5 0  4.8 5 0  4.7 5 0  4.6 5 0  4.5 5 0  4.4 5 0  4.3 5 0  4.2 5 0  4.1 5 0  4 5 0  3.9 5 0  3.8 5 0  3.7 5 0  3.6 5 0  3.5 5 0  3.4 5 0  3.3 5 0  3.2 5 0  3.1 5 0  3 5 0  2.9 5 0  2.8 5 0  2.7 5 0  2.6 5 0  2.5 5 0  2.4 5 0  2.3 5 0  2.2 5 0  2.1 5 0  2 5 0  1.9 5 0  1.8 5 0  1.7 5 0  1.6 5 0  1.5 5 0  1.4 5 0  1.3 5 0  1.2 5 0  1.1 5 0  1 5 0  0.9000000000000004 5 0  0.7999999999999998 5 0  0.7000000000000002 5 0  0.5999999999999996 5 0  0.5 5 0  0.4000000000000004 5 0  0.2999999999999998 5 0  0.2000000000000002 5 0  0.09999999999999964 5 0  0 5 0  -0.09999999999999964 5 0  -0.2000000000000002 5 0  -0.2999999999999998 5 0  -0.4000000000000004 5 0  -0.5 5 0  -0.5999999999999996 5 0  -0.7000000000000002 5 0  -0.7999999999999998 5 0  -0.9000000000000004 5 0  -1 5 0  -1.1 5 0  -1.2 5 0  -1.3 5 0  -1.4 5 0  -1.5 5 0  -1.6 5 0  -1.7 5 0  -1.8 5 0  -1.9 5 0  -2 5 0  -2.1 5 0  -2.2 5 0  -2.3 5 0  -2.4 5 0  -2.5 5 0  -2.6 5 0  -2.7 5 0  -2.8 5 0  -2.9 5 0  -3 5 0  -3.1 5 0  -3.199999999999999 5 0  -3.300000000000001 5 0  -3.4 5 0  -3.5 5 0  -3.6 5 0  -3.699999999999999 5 0  -3.800000000000001 5 0  -3.9 5 0  -4 5 0  -4.1 5 0  -4.199999999999999 5 0  -4.300000000000001 5 0  -4.4 5 0  -4.5 5 0  -4.6 5 0  -4.699999999999999 5 0  -4.800000000000001 5 0  -4.9 5 0  -5 4.9 0  -5 4.8 0  -5 4.7 0  -5 4.6 0  -5 4.5 0  -5 4.4 0  -5 4.3 0  -5 4.2 0  -5 4.1 0  -5 4 0  -5 3.9 0  -5 3.8 0  -5 3.7 0  -5 3.6 0  -5 3.5 0  -5 3.4 0  -5 3.3 0  -5 3.2 0  -5 3.1 0  -5 3 0  -5 2.9 0  -5 2.8 0  -5 2.7 0  -5 2.6 0  -5 2.5 0  -5 2.4 0  -5 2.3 0  -5 2.2 0  -5 2.1 0  -5 2 0  -5 1.9 0  -5 1.8 0  -5 1.7 0  -5 1.6 0  -5 1.5 0  -5 1.4 0  -5 1.3 0  -5 1.2 0  -5 1.1 0  -5 1 0  -5 0.9000000000000004 0  -5 0.7999999999999998 0  -5 0.7000000000000002 0  -5 0.5999999999999996 0  -5 0.5 0  -5 0.4000000000000004 0  -5 0.2999999999999998 0  -5 0.2000000000000002 0  -5 0.09999999999999964 0  -5 0 0  -5 -0.09999999999999964 0  -5 -0.2000000000000002 0  -5 -0.2999999999999998 0  -5 -0.4000000000000004 0  -5 -0.5 0  -5 -0.5999999999999996 0  -5 -0.7000000000000002 0  -5 -0.7999999999999998 0  -5 -0.9000000000000004 0  -5 -1 0  -5 -1.1 0  -5 -1.2 0  -5 -1.3 0  -5 -1.4 0  -5 -1.5 0  -5 -1.6 0  -5 -1.7 0  -5 -1.8 0  -5 -1.9 0  -5 -2 0  -5 -2.1 0  -5 -2.2 0  -5 -2.3 0  -5 -2.4 0  -5 -2.5 0  -5 -2.6 0  -5 -2.7 0  -5 -2.8 0  -5 -2.9 0  -5 -3 0  -5 -3.1 0  -5 -3.199999999999999 0  -5 -3.300000000000001 0  -5 -3.4 0  -5 -3.5 0  -5 -3.6 0  -5 -3.699999999999999 0  -5 -3.800000000000001 0  -5 -3.9 0  -5 -4 0  -5 -4.1 0  -5 -4.199999999999999 0  -5 -4.300000000000001 0  -5 -4.4 0  -5 -4.5 0  -5 -4.6 0  -5 -4.699999999999999 0  -5 -4.800000000000001 0  -5 -4.9 0  1.109156527723519 0.1003877393833533 0  1.092329004626716 0.1996634754898433 0  1.063951420092331 0.2973917156793491 0  1.026370646620596 0.3908001012647357 0  0.9781794394810748 0.4817544094700255 0  0.9207704667517869 0.5674552974551497 0  0.8535638616680348 0.6472786185934224 0  0.7772845368733323 0.7203885413800342 0  0.6941071421123045 0.7867033511942596 0  0.6039910820578128 0.8455451529838923 0  0.5073741999520833 0.8955898294703397 0  0.405742474765828 0.9368954959220783 0  0.3012818537235689 0.9693333397332452 0  0.1929298208009444 0.9914411101989575 0  0.08367096903107371 1.004295297768275 0  -0.02683392808344217 1.006878258599731 0  -0.1370929806418618 0.9988631430316899 0  -0.2462803585848505 0.9817855060478028 0  -0.3530303533069923 0.9548971285252359 0  -0.456016606939645 0.9181453607175173 0  -0.5542573877310576 0.8727465496542591 0  -0.6473107220254826 0.818193219991996 0  -0.7339313977018255 0.755751491682964 0  -0.8134331429600041 0.6859338243097002 0  -0.8851639615750934 0.6084047286520319 0  -0.9476576025761848 0.5252683977442226 0  -1.001385418689797 0.4374075076542857 0  -1.044593995121511 0.3446300562620622 0  -1.077165568162232 0.2489689287026482 0  -1.099298933524113 0.1508682389563463 0  -1.110551955340022 0.0508014766898202 0  -1.110578537623662 -0.04983973534990017 0  -1.099349101446193 -0.1497489304196897 0  -1.078336252936521 -0.2478285587168204 0  -1.044529923508328 -0.3441258543534077 0  -1.001640238805311 -0.4363448645040169 0  -0.9481714942594196 -0.524406185036116 0  -0.8858154874615087 -0.6072630298447279 0  -0.8140646735997876 -0.6841402955371645 0  -0.7341262872295518 -0.753687138779081 0  -0.6469544320903582 -0.8155217019037804 0  -0.5545899056012201 -0.870325364187994 0  -0.4548258996377526 -0.9159034250660933 0  -0.3517384461034606 -0.953170836568054 0  -0.2448061277987232 -0.9804613032724426 0  -0.1360262289625646 -0.9979365245506886 0  -0.02613738048866762 -1.006435547016675 0  0.0840337938787173 -1.003365140869634 0  0.1941113428987357 -0.9902374686820643 0  0.3018489485060483 -0.9681126271804378 0  0.407551271662632 -0.9357938147332656 0  0.5080844296109961 -0.8946711469634958 0  0.6044178486575982 -0.8447856237932053 0  0.6943475246901967 -0.7870982950396586 0  0.7774685079308638 -0.7207217788491473 0  0.8532445899502383 -0.6468313039210145 0  0.9200742713650362 -0.5667634785637771 0  0.9783417625995423 -0.4813205328218665 0  1.027367600999945 -0.3908838468229754 0  1.064878677198346 -0.2968173693585519 0  1.092410581184162 -0.1991745904174342 0  1.109187294302027 -0.1001323945242564 0  -2.449201045167875 4.919294892945127 0  -2.44913215243894 -4.911780049233652 0  4.911734493223355 2.448818418435691 0  4.91973947285569 -2.45019621965215 0  2.446975698921951 -4.897236300337259 0  2.441382894628302 4.900949855588135 0  -4.911750694760839 -2.448834682219084 0  -4.911751226489176 2.448838427077684 0  -1.749176799506039 4.912702992902906 0  -1.744934763418585 -4.916076427490757 0  4.922257434807079 1.744905562423539 0  4.91102115116438 -1.748788987523597 0  -4.911294445350739 -1.748508974588787 0  -4.912103619848306 1.748243870306411 0  1.746490576436419 4.906685693879227 0  1.747987982360152 -4.89505220275753 0  -1.149352792549738 4.910843027589164 0  -1.130157268127158 -4.918584780886305 0  -4.911476835107505 -1.148670463486192 0  -4.911302758431576 1.148469789168918 0  1.144313948865815 -4.914855358623432 0  1.14935642289717 4.910835719696165 0  4.911636076857778 1.146951717192208 0  4.922187687769078 -1.15264734359094 0  -0.5469353290681238 -4.91220764250736 0  -0.5466916740407255 4.920687758391739 0  -4.91058323402216 -0.5491213873393549 0  -4.910608695362067 0.5476744560444599 0  4.909947216406652 -0.5494476493098627 0  4.921267285963573 0.5461485871363598 0  0.5427427956910309 -4.899409574123223 0  0.5514248095059411 4.917589325206089 0  -4.912755556234135 -3.04903434140651 0  4.919269235952411 3.047002921657396 0  4.912273172203649 -3.049022131529647 0  -4.913599309838311 3.046119962176768 0  3.055858514988842 -4.918234297851799 0  -3.049230929423997 -4.912228540166426 0  3.052785614230239 4.914291029860345 0  -3.048673148918025 4.913111275638849 0  -4.909831273960316 -0.04994895543092776 0  0.0451363050363883 -4.914174665711552 0  0.0495858081807091 4.92103231301053 0  4.916699265941587 -0.05132843854989886 0  3.546060928347166 -4.91962282304191 0  -3.549380257086817 4.
[...]
<PointData  Scalars="f_30"> 
<DataArray  type="Float64"  Name="f_30"  format="ascii">0.0000000000000000e+00  0.0000000000000000e+00  0.0000000000000000e+00  0.0000000000000000e+00  6.1878890139976317e-01  0.0000000000000000e+00  0.0000000000000000e+00  0.0000000000000000e+00  0.0000000000000000e+00  0.0000000000000000e+00  0.0000000000000000e+00  0.0000000000000000e+00  0.0000000000000000e+00  0.0000000000000000e+00  0.0000000000000000e+00  0.0000000000000000e+00  0.0000000000000000e+00  0.0000000000000000e+00  0.0000000000000000e+00  0.0000000000000000e+00  0.0000000000000000e+00  0.0000000000000000e+00  0.0000000000000000e+00  0.0000000000000000e+00  0.0000000000000000e+00  0.0000000000000000e+00  0.0000000000000000e+00  0.0000000000000000e+00  0.0000000000000000e+00  0.0000000000000000e+00  0.0000000000000000e+00  0.0000000000000000e+00  0.0000000000000000e+00  0.0000000000000000e+00  0.0000000000000000e+00  0.0000000000000000e+00  0.0000000000000000e+00  0.0000000000000000e+00  0.0000000000000000e+00  0.0000000000000000e+00  0.0000000000000000e+00  0.0000000000000000e+00  0.0000000000000000e+00  0.0000000000000000e+00  0.0000000000000000e+00  0.0000000000000000e+00  0.0000000000000000e+00  0.0000000000000000e+00  0.0000000000000000e+00  0.0000000000000000e+00  0.0000000000000000e+00  0.0000000000000000e+00  0.0000000000000000e+00  0.0000000000000000e+00  0.0000000000000000e+00  0.0000000000000000e+00  0.0000000000000000e+00  0.0000000000000000e+00  0.0000000000000000e+00  0.0000000000000000e+00  0.0000000000000000e+00  0.0000000000000000e+00  0.0000000000000000e+00  0.0000000000000000e+00  0.0000000000000000e+00  0.0000000000000000e+00  0.0000000000000000e+00  0.0000000000000000e+00  0.0000000000000000e+00  0.0000000000000000e+00  0.0000000000000000e+00  0.0000000000000000e+00  0.0000000000000000e+00  0.0000000000000000e+00  0.0000000000000000e+00  0.0000000000000000e+00  0.0000000000000000e+00  0.0000000000000000e+00  0.0000000000000000e+00  0.0000000000000000e+00  0.0000000000000000e+00  0.0000000000000000e+00  0.0000000000000000e+00  0.0000000000000000e+00  0.0000000000000000e+00  0.0000000000000000e+00  0.0000000000000000e+00  0.0000000000000000e+00  0.0000000000000000e+00  0.0000000000000000e+00  0.0000000000000000e+00  0.0000000000000000e+00  0.0000000000000000e+00  0.0000000000000000e+00  0.0000000000000000e+00  0.0000000000000000e+00  0.0000000000000000e+00  0.0000000000000000e+00  0.0000000000000000e+00  0.0000000000000000e+00  0.0000000000000000e+00  0.0000000000000000e+00  0.0000000000000000e+00  0.0000000000000000e+00  0.0000000000000000e+00  0.0000000000000000e+00  0.0000000000000000e+00  0.0000000000000000e+00  0.0000000000000000e+00  0.0000000000000000e+00  0.0000000000000000e+00  0.0000000000000000e+00  0.0000000000000000e+00  0.0000000000000000e+00  0.0000000000000000e+00  0.0000000000000000e+00  0.0000000000000000e+00  0.0000000000000000e+00  0.0000000000000000e+00  0.0000000000000000e+00  0.0000000000000000e+00  0.0000000000000000e+00  0.0000000000000000e+00  0.0000000000000000e+00  0.0000000000000000e+00  0.0000000000000000e+00  0.0000000000000000e+00  0.0000000000000000e+00  0.0000000000000000e+00  0.0000000000000000e+00  0.0000000000000000e+00  0.0000000000000000e+00  0.0000000000000000e+00  0.0000000000000000e+00  0.0000000000000000e+00  0.0000000000000000e+00  0.0000000000000000e+00  0.0000000000000000e+00  0.0000000000000000e+00  0.0000000000000000e+00  0.0000000000000000e+00  0.0000000000000000e+00  0.0000000000000000e+00  0.0000000000000000e+00  0.0000000000000000e+00  0.0000000000000000e+00  0.0000000000000000e+00  0.0000000000000000e+00  0.0000000000000000e+00  0.0000000000000000e+00  0.0000000000000000e+00  0.0000000000000000e+00  0.0000000000000000e+00  0.0000000000000000e+00  0.0000000000000000e+00  0.0000000000000000e+00  0.0000000000000000e+00  0.0000000000000000e+00  0.0000000000000000e+00  0.0000000000000000e+00  0.0000000000000000e+00  0.0000000000000000e+00  0.0000000000000000e+00  0.0000000000000000e+00  0.0000000000000000e+00  0.0000000000000000e+00  0.0000000000000000e+00  0.0000000000000000e+00  0.0000000000000000e+00  0.0000000000000000e+00  0.0000000000000000e+00  0.0000000000000000e+00  0.0000000000000000e+00  0.0000000000000000e+00  0.0000000000000000e+00  0.0000000000000000e+00  0.0000000000000000e+00  0.0000000000000000e+00  0.0000000000000000e+00  0.0000000000000000e+00  0.0000000000000000e+00  0.0000000000000000e+00  0.0000000000000000e+00  0.0000000000000000e+00  0.0000000000000000e+00  0.0000000000000000e+00  0.0000000000000000e+00  0.0000000000000000e+00  0.0000000000000000e+00  0.0000000000000000e+00  0.0000000000000000e+00  0.0000000000000000e+00  0.0000000000000000e+00  0.0000000000000000e+00  0.0000000000000000e+00  0.0000000000000000e+00  0.0000000000000000e+00  0.0000000000000000e+00  0.0000000000000000e+00  0.0000000000000000e+00  0.0000000000000000e+00  0.0000000000000000e+00  0.0000000000000000e+00  0.0000000000000000e+00  0.0000000000000000e+00  0.0000000000000000e+00  0.0000000000000000e+00  0.0000000000000000e+00  0.0000000000000000e+00  0.0000000000000000e+00  0.0000000000000000e+00  0.0000000000000000e+00  0.0000000000000000e+00  0.0000000000000000e+00  0.0000000000000000e+00  0.0000000000000000e+00  0.0000000000000000e+00  0.0000000000000000e+00  0.0000000000000000e+00  0.0000000000000000e+00  0.0000000000000000e+00  0.0000000000000000e+00  0.0000000000000000e+00  0.0000000000000000e+00  0.0000000000000000e+00  0.0000000000000000e+00  0.0000000000000000e+00  0.0000000000000000e+00  0.0000000000000000e+00  0.0000000000000000e+00  0.0000000000000000e+00  0.0000000000000000e+00  0.0000000000000000e+00  0.0000000000000000e+00  0.0000000000000000e+00  0.0000000000000000e+00  0.0000000000000000e+00  0.0000000000000000e+00  0.0000000000000000e+00  0.0000000000000000e+00  0.0000000000000000e+00  0.0000000000000000e+00  0.0000000000000000e+00  0.0000000000000000e+00  0.0000000000000000e+00  0.0000000000000000e+00  0.0000000000000000e+00  0.0000000000000000e+00  0.0000000000000000e+00  0.0000000000000000e+00  0.0000000000000000e+00  0.0000000000000000e+00  0.0000000000000000e+00  0.0000000000000000e+00  0.0000000000000000e+00  0.0000000000000000e+00  0.0000000000000000e+00  0.0000000000000000e+00  0.0000000000000000e+00  0.0000000000000000e+00  0.0000000000000000e+00  0.0000000000000000e+00  0.0000000000000000e+00  0.0000000000000000e+00  0.0000000000000000e+00  0.0000000000000000e+00  0.0000000000000000e+00  0.0000000000000000e+00  0.0000000000000000e+00  0.0000000000000000e+00  0.0000000000000000e+00  0.0000000000000000e+00  0.0000000000000000e+00  0.0000000000000000e+00  0.0000000000000000e+00  0.0000000000000000e+00  0.0000000000000000e+00  0.0000000000000000e+00  0.0000000000000000e+00  0.0000000000000000e+00  0.0000000000000000e+00  0.0000000000000000e+00  0.0000000000000000e+00  0.0000000000000000e+00  0.0000000000000000e+00  0.0000000000000000e+00  0.0000000000000000e+00  0.0000000000000000e+00  0.0000000000000000e+00  0.0000000000000000e+00  0.0000000000000000e+00  0.0000000000000000e+00  0.0000000000000000e+00  0.0000000000000000e+00  0.0000000000000000e+00  0.0000000000000000e+00  0.0000000000000000e+00  0.0000000000000000e+00  0.0000000000000000e+00  0.0000000000000000e+00  0.0000000000000000e+00  0.0000000000000000e+00  0.0000000000000000e+00  0.0000000000000000e+00  0.0000000000000000e+00  0.0000000000000000e+00  0.0000000000000000e+00  0.0000000000000000e+00  0.0000000000000000e+00  0.0000000000000000e+00  0.0000000000000000e+00  0.0000000000000000e+00  0.0000000000000000e+00  0.0000000000000000e+00  0.0000000000000000e+00  0.0000000000000000e+00  0.0000000000000000e+00  0.0000000000000000e+00  0.0000000000000000e+00  0.0000000000000000e+00  0.0000000000000000e+00  0.0000000000000000e+00  0.0000000000000000e+00  0.0000000000000000e+00  0.0000000000000000e+00  0.0000000000000000e+00  0.0000000000000000e+00  0.0000000000000000e+00  0.0000000000000000e+00  0.0000000000000000e+00  0.0000000000000000e+00  0.0000000000000000e+00  0.0000000000000000e+00  0.0000000000000000e+00  0.0000000000000000e+00  0.0000000000000000e+00  0.0000000000000000e+00  0.0000000000000000e+00  0.0000000000000000e+00  0.0000000000000000e+00  0.0000000000000000e+00  0.0000000000000000e+00  0.0000000000000000e+00  0.0000000000000000e+00  0.0000000000000000e+00  0.0000000000000000e+00  0.0000000000000000e+00  0.0000000000000000e+00  0.0000000000000000e+00  0.0000000000000000e+00  0.0000000000000000e+00  0.0000000000000000e+00  0.0000000000000000e+00  0.0000000000000000e+00  0.0000000000000000e+00  0.0000000000000000e+00  0.0000000000000000e+00  0.0000000000000000e+00  0.0000000000000000e+00  0.0000000000000000e+00  0.0000000000000000e+00  0.0000000000000000e+00  0.0000000000000000e+00  0.0000000000000000e+00  0.0000000000000000e+00  0.0000000000000000e+00  0.0000000000000000e+00  0.0000000000000000e+00  0.0000000000000000e+00  0.0000000000000000e+00  0.0000000000000000e+00  0.0000000000000000e+00  0.0000000000000000e+00  0.0000000000000000e+00  0.0000000000000000e+00  0.0000000000000000e+00  0.0000000000000000e+00  0.0000000000000000e+00  0.0000000000000000e+00  0.0000000000000000e+00  0.0000000000000000e+00  0.0000000000000000e+00  0.0000000000000000e+00  0.0000000000000000e+00  0.0000000000000000e+00  0.0000000000000000e+00  0.0000000000000000e+00  0.0000000000000000e+00  0.0000000000000000e+00  0.0000000000000000e+00  0.0000000000000000e+00  0.0000000000000000e+00  0.0000000000000000e+00  0.0000000000000000e+00  0.0000000000000000e+00  0.0000000000000000e+00  0.0000000000000000e+00  0.0000000000000000e+00  0.0000000000000000e+00  0.0000000000000000e+00  0.0000000000000000e+00  6.3723777761785794e-01  6.1283028435893461e-01  4.8608766036938433e-01  4.9316522822781156e-01  5.7121735187711475e-01  7.0247847651879780e-01  6.7930765480626154e-01  5.3888822103372258e-01  5.9316013501704357e-01  7.1590517199221471e-01  6.6712069787938588e-01  6.3282051911298831e-01  7.5026032103955320e-01  5.9063480909271970e-01  6.0564535097359906e-01  5.9067887161326316e-01  5.1682614937374738e-01  6.2290921171392677e-01  6.5216853472271252e-01  5.8313187021090485e-01  6.1922480781027411e-01  5.9842870750048338e-01  6.1962988833077326e-01  6.7579544500766975e-01  6.1681387382960162e-01  5.5007441805564095e-01  6.3372541932846582e-01  5.9285562339053643e-01  5.1819810035696012e-01  5.5650518740975663e-01  5.9778776800612765e-01  6.0689023034853007e-01  5.7168859193177091e-01  7.5978206516509317e-01  5.8468986858141603e-01  6.4289224553772983e-01  5.9332237067151561e-01  6.7364844780307009e-01  6.7093682748529260e-01  5.8822066967027142e-01  4.6976308069699080e-01  7.0723647263770806e-01  5.7503766972786041e-01  6.6776675155441845e-01  6.4463651448865678e-01  5.9882320736587435e-01  8.1586741721796241e-01  7.1955357723459368e-01  6.2004196586455773e-01  6.5529305032568530e-01  5.9713364119711920e-01  5.4912871546647646e-01  5.9938757322580893e-01  6.8751165366068634e-01  6.3206086653856841e-01  6.0938177946729721e-01  5.4932971227020966e-01  6.1264699964286540e-01  7.5555216707724759e-01  6.4470646653320707e-01  6.2703995075485641e-01  6.6174968583391336e-01  3.6124424783245564e-27  -1.3179124475244950e-27  -2.6372991937584411e-27  -2.9362116904109289e-27  -1.2758193858571128e-27  -5.3229042974866047e-28  -2.0321712194853558e-28  1.8085997497109434e-27  7.1911281376212514e-27  4.1262755583028032e-27  -7.0167497828134065e-25  -6.6245831955810936e-25  5.4015513178910710e-25  1.1894522828418666e-24  3.7087637985108831e-26  3.0575199217208782e-26  -4.7807700286002759e-26  -3.0032974193933830e-26  -1.1242593122181001e-22  -1.6505399299397340e-22  -4.3272691630878626e-26  -4.9232081819323966e-26  4.7612444491494227e-23  4.7758648521930571e-23  -4.7323313239841392e-27  -3.9746765811590738e-26  -7.5369921243521080e-21  -7.1236227335763369e-21  -4.5758827263130220e-21  -4.8274270920245002e-21  8.3191556740559206e-26  -2.6522060208343842e-26  7.1703454441894391e-30  -8.8439316928602615e-30  -9.0742347474783405e-30  1.6282542004181336e-29  1.9759283825802870e-28  3.9844131272242635e-28  2.8927409169621590e-28  3.1817880077647314e-28  3.5536297071440946e-20  6.3535545957625139e-26  1.2229860928754056e-26  3.8447618524050359e-20  -9.0965315152608267e-30  -9.9263821506014882e-30  -6.2620618493740038e-30  2.3186077182593342e-31  2.4329241612364213e-31  2.3940970722857953e-31  1.4562219514447178e-31  -9.9633715825100577e-30  -6.1356153064345572e-33  -2.3068732500866497e-32  1.1371226423696893e-31  -4.0599764079658578e-33  2.5154986033442718e-32  -6.0625833174666081e-33  1.3756211844328812e-31  -9.9017150451273074e-34  -1.2942969793277620e-33  -4.6819393340446324e-34  -1.9574339541188250e-34  1.4856515847699245e-34  1.3409178646332583e-34  7.7341053789019846e-35  7.3735300192094397e-36  -1.6096906312671996e-33  2.7758147929123414e-20  4.6287330629676559e-26  -1.3625046381520002e-26  1.3821895708807868e-20  1.1674936012280251e-25  -3.4725251798968669e-24  1.3394908120584123e-21  8.8430430378855775e-22  -3.2579711684993318e-24  2.7350558718504441e-26  7.8784814142636221e-26  -5.2859709226883445e-26  -3.8568592925773349e-26  -1.1547888110816357e-23  3.9597117261247501e-22  4.1482003924498289e-22  -1.1338401345903761e-23  -2.5534481439247130e-27  8.8216723463036918e-26  -4.0413931199126728e-27  5.5608219158490858e-27  -6.5532669897637424e-27  8.9115026544340754e-26  1.1270771594233740e-25  -4.0123703016626076e-27  -2.4119229989735873e-27  3.0464775198755021e-26  2.8830720576415992e-26  -1.5704731111184888e-28  -7.7607584863043025e-28  -1.2225116170204670e-27  2.0590627423517224e-28  6.3877844924639793e-28  6.7275960952471377e-29  -1.5133891888829434e-28  -9.2259337288958350e-28  1.2567462159964579e-35  1.8952164498414701e-35  7.5316887606783797e-36  -1.6945970798786300e-36  6.4699474884095668e-36  1.5368913146327538e-36  1.0557451727135863e-35  5.2339729609842599e-37  2.7877468142548753e-20  1.2033698713719358e-25  1.1446091605760513e-25  1.3760365481518989e-20  -1.7864235136080135e-27  4.4955711456836702e-27  4.7957013845899774e-27  -7.1557734190574101e-27  -1.1865853630658839e-26  -7.0154455666023711e-29  -8.1948192238362889e-27  -2.0294426611373517e-26  3.5252794466478073e-30  -1.1191925836701684e-28  -7.3960376934476137e-29  2.8341012431402924e-30  3.4754384776358474e-30  -9.6395333410332677e-29  -1.2779605087319517e-28  1.1569373788248078e-30  -3.7500000589676692e-33  3.6441435799201634e-34  1.2053008323847906e-30  -1.2997725710454135e-32  2.7360786028560654e-31  -1.5412836791660540e-32  -3.6562415838548186e-32  1.2126589208338861e-33  8.1374554782420348e-31  -1.3325617491898192e-32  -1.3655507332177648e-33  2.9198331072750575e-34  -4.4317833545135947e-32  1.2637525119034351e-33  5.2319136265435752e-31  -1.7094961209060782e-32  -3.7014088486041836e-36  -1.7453805883429870e-36  -2.9595971102597892e-36  -3.4662496190340515e-36  3.4840953074498807e-20  -1.2995853861072601e-19  -8.5771481306214766e-20  4.2076949871200803e-19  2.0515161349540964e-19  -1.2097205670344646e-18  -3.1622072609385818e-19  2.8705392198477043e-18  -2.7975281723599122e-19  -4.3099798389286200e-18  4.7474874162817831e-18  -4.6496840053513320e-18  -2.3363935754790366e-17  6.8991207535327526e-17  8.0970993424501526e-17  -3.3342386923413631e-16  -2.1158945632447949e-16  1.1328875760886906e-15  3.8162533752778689e-16  -2.8846905827296735e-15  -2.0353336807173713e-16  -4.7525364950292063e-15  4.9165514374215706e-15  -1.6200972313116837e-15  -1.5863592246457160e-15  7.3808896114482603e-15  -2.5145868072229500e-14  -1.5924050529826512e-14  9.9126081645321057e-14  9.7169882395285606e-15  -1.8521729106281345e-13  5.6053610826953407e-14  -3.7650739683347370e-13  2.9176587035146219e-14  -1.9703581646030645e-13  8.8654771275773793e-13  1.5536372659268347e-13  -2.2293418144887879e-12  7.7802427735958197e-13  -1.2244360841961227e-13  -2.4767517381666669e-12  1.3240156566276645e-11  -1.0637212909504419e-13  -2.1326468678665661e-11  -2.3720653207178954e-11  1.5576247865920509e-11  -4.0435955183144672e-11  -2.6197014154845980e-11  -3.0475916288431761e-13  1.7310823989416257e-11  -4.9867793588171347e-11  -2.3475137547527407e-11  -1.2717075157300969e-12  1.8382149701449481e-11  -2.7278788612635343e-12  -3.2804593974807536e-12  -1.3737057672728119e-11  1.8262698200060223e-11  -1.8308176058329294e-12  -6.7099889559680713e-12  1.4874964777089784e-12  3.6898544160821141e-13  1.1085117952791311e-11  -8.5790478166878606e-12  9.5890429167690781e-13  3.5615955694792952e-12  -1.4405370350789151e-11  2.2790824862720664e-12  -9.7888602138457006e-13  2.8368192493408214e-13  -4.9727513528139491e-12  2.1933209790767459e-12  -8.9153965469987547e-12  1.4121256003181783e-13  1.4211348511033299e-12  2.1923144632571515e-12  -3.5655658011215452e-12  2.5691750419096139e-11  -9.9231839627212098e-12  4.6010891378998843e-11  -1.3699299405656060e-11  5.3263119879093327e-11  3.2758550749240833e-12  -1.4243382608213642e-11  5.2221947061930070e-11  -1.3903417920318314e-11  5.2098891725794978e-11  -1.4170362375684551e-11  5.2925174435663515e-11  -1.3636577590686889e-11  4.6052963928450781e-11  -1.0050697983309808e-11  2.6443019713867250e-11  -3.7218003626102383e-12  1.9330361731156384e-12  3.2815805370620262e-12  -1.3958261879631449e-10  2.3806748102891029e+00  1.9656961818403751e-12  -1.3155411028922655e-11  3.9195606660963906e-12  -1.2890789629162513e-11  2.4148649023568987e+00  2.4094124798426042e-12  -4.4109396364248001e-12  2.3802149207229490e+00  1.7735256528842985e-13  1.8650594644873695e-12  1.7161881539506291e-12  -1.0302494519718590e-11  2.3501535352987808e-12  -4.7670495126087614e-12  -1.9087519730811801e-10  -3.2985845264530021e-13  1.8434303086003827e-13  2.4645337350286234e-12  1.3490696321368225e-12  -1.3790209284750119e-11  3.1898549663124119e-12  -6.8563262149133119e-12  4.4371561353080888e-11  5.1244431232679453e-12  1.7258320241608845e-12  -1.0569864377356651e-11  2.9623567221642510e-11  2.7853160547246648e-11  -3.0702161517975208e-12  -2.6879636846648666e-12  -2.9987386883612413e-11  2.4130389893144405e-11  -4.4952355390349592e-12  2.5571977078780362e-12  -4.7095857625434457e-11  1.4854159884500910e-11  -3.5621748409181639e-12  2.0501448083003826e-12  -3.4323795411992902e-11  1.3008561174329828e-11  -1.6550181245522216e-11  -2.7050316818253668e-11  7.5659513381031852e-13  1.4716728120732442e-11  -2.5666171353094252e-11  -3.4304591536713156e-11  1.0574732348683673e-12  1.9252712033166288e-11  -3.8075603657096195e-11  -4.0373496024420149e-11  3.3818984312330238e-10  -1.0482861016481663e-10  3.4563468061356400e-11  2.7918078053902684e-10  -1.0166057384843483e-11  -1.5823802508996730e-10  7.0782451394371186e-10  -9.7359779992152514e-11  -3.1622518847619934e-10  3.3492768509975935e-10  -1.7627606592568924e-09  3.1751754340260182e-10  5.2667079860287142e-10  -9.3921790377616898e-10  5.5427963743098268e-11  4.6158586470313604e-10  -2.0802374990032112e-09  4.1335194248708786e-10  4.8873814431803046e-11  -7.7783513451631153e-10  6.2579698786365039e-09  -2.5231667148672487e-09  1.1102867268602597e-08  -2.6967591893756002e-09  6.0767526150916201e-09  3.0382491445144966e-10  -1.0068096210821465e-08  5.1677117764785819e-09  -2.7534115837711694e-08  8.9689245373698378e-09  -3.7317806206261491e-08  1.0594623079532597e-08  -4.0077928119480013e-08  1.0586087823899104e-08  -3.7174849131675840e-08  8.7248616936442677e-09  -2.6310959069344106e-08  5.0685749425941973e-09  -1.1416167087059088e-08  -1.8825375089960036e-09  -8.3021156290996400e-10  3.6490908682578514e-10  9.5298815264659129e-11  -6.0274827822485849e-11  2.9173230445474844e-12  6.9892844133304635e-12  -6.6547392349415541e-12  1.9365008752612136e-13  2.8335952295743848e-12  -1.2437670743936402e-11  -4.7751794369377241e-13  4.5648559004185295e-10  3.2651043111220604e-12  -1.0225749240122753e-11  1.8589515241153565e-12  -3.3190793682103752e-12  1.0211913216338208e-13  1.5019750221570454e-12  -5.0334252947484668e-13  1.3507412