<?xml version="1.0"?>
<VTKFile type="UnstructuredGrid"  version="0.1"  >
<UnstructuredGrid>
<Piece  NumberOfPoints="11902" NumberOfCells="23402">
<Points>
<DataArray  type="Float64"  NumberOfComponents="3"  format="ascii">-5 -5 0  5 -5 0  5 5 0  -5 5 0  1.179884729239832 0.00118805313963491 0  -4.9 -5 0  -4.8 -5 0  -4.7 -5 0  -4.6 -5 0  -4.5 -5 0  -4.4 -5 0  -4.3 -5 0  -4.2 -5 0  -4.1 -5 0  -4 -5 0  -3.9 -5 0  -3.8 -5 0  -3.7 -5 0  -3.6 -5 0  -3.5 -5 0  -3.4 -5 0  -3.3 -5 0  -3.2 -5 0  -3.1 -5 0  -3 -5 0  -2.9 -5 0  -2.8 -5 0  -2.7 -5 0  -2.6 -5 0  -2.5 -5 0  -2.4 -5 0  -2.3 -5 0  -2.2 -5 0  -2.1 -5 0  -2 -5 0  -1.9 -5 0  -1.8 -5 0  -1.7 -5 0  -1.6 -5 0  -1.5 -5 0  -1.4 -5 0  -1.3 -5 0  -1.2 -5 0  -1.1 -5 0  -1 -5 0  -0.9000000000000004 -5 0  -0.7999999999999998 -5 0  -0.7000000000000002 -5 0  -0.5999999999999996 -5 0  -0.5 -5 0  -0.4000000000000004 -5 0  -0.2999999999999998 -5 0  -0.2000000000000002 -5 0  -0.09999999999999964 -5 0  0 -5 0  0.09999999999999964 -5 0  0.2000000000000002 -5 0  0.2999999999999998 -5 0  0.4000000000000004 -5 0  0.5 -5 0  0.5999999999999996 -5 0  0.7000000000000002 -5 0  0.7999999999999998 -5 0  0.9000000000000004 -5 0  1 -5 0  1.1 -5 0  1.2 -5 0  1.3 -5 0  1.4 -5 0  1.5 -5 0  1.6 -5 0  1.7 -5 0  1.8 -5 0  1.9 -5 0  2 -5 0  2.1 -5 0  2.2 -5 0  2.3 -5 0  2.4 -5 0  2.5 -5 0  2.6 -5 0  2.7 -5 0  2.8 -5 0  2.9 -5 0  3 -5 0  3.1 -5 0  3.199999999999999 -5 0  3.300000000000001 -5 0  3.4 -5 0  3.5 -5 0  3.6 -5 0  3.699999999999999 -5 0  3.800000000000001 -5 0  3.9 -5 0  4 -5 0  4.1 -5 0  4.199999999999999 -5 0  4.300000000000001 -5 0  4.4 -5 0  4.5 -5 0  4.6 -5 0  4.699999999999999 -5 0  4.800000000000001 -5 0  4.9 -5 0  5 -4.9 0  5 -4.8 0  5 -4.7 0  5 -4.6 0  5 -4.5 0  5 -4.4 0  5 -4.3 0  5 -4.2 0  5 -4.1 0  5 -4 0  5 -3.9 0  5 -3.8 0  5 -3.7 0  5 -3.6 0  5 -3.5 0  5 -3.4 0  5 -3.3 0  5 -3.2 0  5 -3.1 0  5 -3 0  5 -2.9 0  5 -2.8 0  5 -2.7 0  5 -2.6 0  5 -2.5 0  5 -2.4 0  5 -2.3 0  5 -2.2 0  5 -2.1 0  5 -2 0  5 -1.9 0  5 -1.8 0  5 -1.7 0  5 -1.6 0  5 -1.5 0  5 -1.4 0  5 -1.3 0  5 -1.2 0  5 -1.1 0  5 -1 0  5 -0.9000000000000004 0  5 -0.7999999999999998 0  5 -0.7000000000000002 0  5 -0.5999999999999996 0  5 -0.5 0  5 -0.4000000000000004 0  5 -0.2999999999999998 0  5 -0.2000000000000002 0  5 -0.09999999999999964 0  5 0 0  5 0.09999999999999964 0  5 0.2000000000000002 0  5 0.2999999999999998 0  5 0.4000000000000004 0  5 0.5 0  5 0.5999999999999996 0  5 0.7000000000000002 0  5 0.7999999999999998 0  5 0.9000000000000004 0  5 1 0  5 1.1 0  5 1.2 0  5 1.3 0  5 1.4 0  5 1.5 0  5 1.6 0  5 1.7 0  5 1.8 0  5 1.9 0  5 2 0  5 2.1 0  5 2.2 0  5 2.3 0  5 2.4 0  5 2.5 0  5 2.6 0  5 2.7 0  5 2.8 0  5 2.9 0  5 3 0  5 3.1 0  5 3.199999999999999 0  5 3.300000000000001 0  5 3.4 0  5 3.5 0  5 3.6 0  5 3.699999999999999 0  5 3.800000000000001 0  5 3.9 0  5 4 0  5 4.1 0  5 4.199999999999999 0  5 4.300000000000001 0  5 4.4 0  5 4.5 0  5 4.6 0  5 4.699999999999999 0  5 4.800000000000001 0  5 4.9 0  4.9 5 0  4.8 5 0  4.7 5 0  4.6 5 0  4.5 5 0  4.4 5 0  4.3 5 0  4.2 5 0  4.1 5 0  4 5 0  3.9 5 0  3.8 5 0  3.7 5 0  3.6 5 0  3.5 5 0  3.4 5 0  3.3 5 0  3.2 5 0  3.1 5 0  3 5 0  2.9 5 0  2.8 5 0  2.7 5 0  2.6 5 0  2.5 5 0  2.4 5 0  2.3 5 0  2.2 5 0  2.1 5 0  2 5 0  1.9 5 0  1.8 5 0  1.7 5 0  1.6 5 0  1.5 5 0  1.4 5 0  1.3 5 0  1.2 5 0  1.1 5 0  1 5 0  0.9000000000000004 5 0  0.7999999999999998 5 0  0.7000000000000002 5 0  0.5999999999999996 5 0  0.5 5 0  0.4000000000000004 5 0  0.2999999999999998 5 0  0.2000000000000002 5 0  0.09999999999999964 5 0  0 5 0  -0.09999999999999964 5 0  -0.2000000000000002 5 0  -0.2999999999999998 5 0  -0.4000000000000004 5 0  -0.5 5 0  -0.5999999999999996 5 0  -0.7000000000000002 5 0  -0.7999999999999998 5 0  -0.9000000000000004 5 0  -1 5 0  -1.1 5 0  -1.2 5 0  -1.3 5 0  -1.4 5 0  -1.5 5 0  -1.6 5 0  -1.7 5 0  -1.8 5 0  -1.9 5 0  -2 5 0  -2.1 5 0  -2.2 5 0  -2.3 5 0  -2.4 5 0  -2.5 5 0  -2.6 5 0  -2.7 5 0  -2.8 5 0  -2.9 5 0  -3 5 0  -3.1 5 0  -3.199999999999999 5 0  -3.300000000000001 5 0  -3.4 5 0  -3.5 5 0  -3.6 5 0  -3.699999999999999 5 0  -3.800000000000001 5 0  -3.9 5 0  -4 5 0  -4.1 5 0  -4.199999999999999 5 0  -4.300000000000001 5 0  -4.4 5 0  -4.5 5 0  -4.6 5 0  -4.699999999999999 5 0  -4.800000000000001 5 0  -4.9 5 0  -5 4.9 0  -5 4.8 0  -5 4.7 0  -5 4.6 0  -5 4.5 0  -5 4.4 0  -5 4.3 0  -5 4.2 0  -5 4.1 0  -5 4 0  -5 3.9 0  -5 3.8 0  -5 3.7 0  -5 3.6 0  -5 3.5 0  -5 3.4 0  -5 3.3 0  -5 3.2 0  -5 3.1 0  -5 3 0  -5 2.9 0  -5 2.8 0  -5 2.7 0  -5 2.6 0  -5 2.5 0  -5 2.4 0  -5 2.3 0  -5 2.2 0  -5 2.1 0  -5 2 0  -5 1.9 0  -5 1.8 0  -5 1.7 0  -5 1.6 0  -5 1.5 0  -5 1.4 0  -5 1.3 0  -5 1.2 0  -5 1.1 0  -5 1 0  -5 0.9000000000000004 0  -5 0.7999999999999998 0  -5 0.7000000000000002 0  -5 0.5999999999999996 0  -5 0.5 0  -5 0.4000000000000004 0  -5 0.2999999999999998 0  -5 0.2000000000000002 0  -5 0.09999999999999964 0  -5 0 0  -5 -0.09999999999999964 0  -5 -0.2000000000000002 0  -5 -0.2999999999999998 0  -5 -0.4000000000000004 0  -5 -0.5 0  -5 -0.5999999999999996 0  -5 -0.7000000000000002 0  -5 -0.7999999999999998 0  -5 -0.9000000000000004 0  -5 -1 0  -5 -1.1 0  -5 -1.2 0  -5 -1.3 0  -5 -1.4 0  -5 -1.5 0  -5 -1.6 0  -5 -1.7 0  -5 -1.8 0  -5 -1.9 0  -5 -2 0  -5 -2.1 0  -5 -2.2 0  -5 -2.3 0  -5 -2.4 0  -5 -2.5 0  -5 -2.6 0  -5 -2.7 0  -5 -2.8 0  -5 -2.9 0  -5 -3 0  -5 -3.1 0  -5 -3.199999999999999 0  -5 -3.300000000000001 0  -5 -3.4 0  -5 -3.5 0  -5 -3.6 0  -5 -3.699999999999999 0  -5 -3.800000000000001 0  -5 -3.9 0  -5 -4 0  -5 -4.1 0  -5 -4.199999999999999 0  -5 -4.300000000000001 0  -5 -4.4 0  -5 -4.5 0  -5 -4.6 0  -5 -4.699999999999999 0  -5 -4.800000000000001 0  -5 -4.9 0  1.174103625661985 0.09960923980775505 0  1.155876208921716 0.1981696879236818 0  1.125241014310332 0.2956368171575897 0  1.085436297512667 0.3876979359987177 0  1.033853092399844 0.4784952505865576 0  0.9728902044052956 0.5637755318924641 0  0.9012613933693138 0.6435430774697362 0  0.8202990889557423 0.7163485543338766 0  0.7322847642819419 0.7822153272923922 0  0.6365317667493608 0.8408791264761271 0  0.533767322173912 0.8913858650538993 0  0.4264635204473307 0.9330732109157661 0  0.3166646958304426 0.9658151876427583 0  0.2019462367655682 0.9882053092413184 0  0.08766963035791692 1.002133140982994 0  -0.02761082682048144 1.004840683428935 0  -0.1429156710749903 0.9957403961787714 0  -0.2585572389090413 0.9782768991415808 0  -0.3713518715490925 0.9518288935662541 0  -0.4794877595988238 0.9152332578724045 0  -0.5827074189892865 0.8697956858648825 0  -0.6808576790430454 0.8150781998011946 0  -0.7720897206914901 0.7523964190311581 0  -0.8564769130327701 0.6822028434945526 0  -0.9333086049597336 0.6042741279549947 0  -1.000071954284012 0.5215898842375822 0  -1.057584609362947 0.4343792903555532 0  -1.103903342191029 0.3420102971382337 0  -1.138689202808426 0.247404061433274 0  -1.162185030787448 0.150321065331793 0  -1.174126171218626 0.0508415095211232 0  -1.174135992126686 -0.0492646075810976 0  -1.162168376383814 -0.1484637222697906 0  -1.139740166920965 -0.2455579001565558 0  -1.103565664593747 -0.341567726282495 0  -1.057959309770786 -0.433107810011661 0  -1.000956587026201 -0.5206086597788535 0  -0.9346052474356777 -0.6028870382208923 0  -0.8579691021983096 -0.6797487370867678 0  -0.7730928999650206 -0.7491581346244336 0  -0.6807719226989949 -0.8105769425651536 0  -0.5830134916644227 -0.865074054777308 0  -0.4771450813953027 -0.9114110599717834 0  -0.3686595863233718 -0.949230462275517 0  -0.2560150476947946 -0.9768056736129638 0  -0.1415335172679937 -0.994739843580646 0  -0.02702091559399388 -1.004054645090689 0  0.08827223681135389 -1.000119439227874 0  0.2043571799032412 -0.9861663024254249 0  0.318008853447754 -0.9641862599311286 0  0.4295121196722316 -0.9316732794935844 0  0.5352089210701189 -0.8904024057950416 0  0.637191882989653 -0.8403401811590879 0  0.7324893106731092 -0.7830633431033769 0  0.8203985606701144 -0.7169677358258205 0  0.9008029769157717 -0.6429638418881616 0  0.9716596160820875 -0.5630805449172412 0  1.033789302154855 -0.4779796941816916 0  1.086505661937628 -0.3877907659201794 0  1.12655878928551 -0.2944054561362191 0  1.156072159527764 -0.1974005538502216 0  1.174115126475816 -0.09917220716225064 0  -2.448865941771972 4.918674710819026 0  -2.448767525064978 -4.91110388275195 0  4.91104221841488 2.448330568364141 0  4.919111385487345 -2.449752604282951 0  2.446551334485134 -4.896441654646321 0  2.440972355236549 4.900181241813423 0  -4.911064292559799 -2.448352275211258 0  -4.911062999202222 2.448356123931269 0  -1.748831352523087 4.911811382785737 0  -1.744604489451099 -4.91522085876101 0  4.921383478167418 1.744464358517452 0  4.910023182794823 -1.748283179510664 0  -4.91030771661188 -1.748010800124258 0  -4.911123828877169 1.747751004256173 0  1.746123867879272 4.905727709019624 0  1.747577154908996 -4.893976595242794 0  -1.149078293256277 4.909764728960901 0  -1.129910423055042 -4.917599391897948 0  -4.910242162734784 -1.148260776337339 0  -4.910063900541247 1.148060763585211 0  1.144057461674268 -4.913823520030807 0  1.149085168970291 4.909754094535707 0  4.910390918069282 1.146538815906557 0  4.921093976896597 -1.152282046282584 0  -0.5467926736412915 -4.91103791093173 0  -0.5465623988279042 4.919627566010023 0  -4.909149303361316 -0.5488937082273597 0  -4.909173924888317 0.5474493604773957 0  4.908489078269533 -0.5492155368250803 0  4.919991801264473 0.5459476731279891 0  0.542586522487068 -4.898065699868628 0  0.5512933727085798 4.91648656920414 0  -4.912292364832199 -3.048635498333721 0  4.918836867996702 3.046629546099469 0  4.911804628467575 -3.048616680880767 0  -4.913138246100505 3.045724268510738 0  3.055559453078744 -4.917779116414548 0  -3.048909364473819 -4.911742175017184 0  3.052470798986607 4.913812546778518 0  -3.048353561676874 4.912628415794429 0  -4.908322747221542 -0.04992618089118649 0  0.04512767749280661 -4.912996389529046 0  0.04957589986349814 4.919944941359943 0  4.915292260763395 -0.0513071190320939 0  3.545823360339115 -4.919303836097697 0  -3.549122073018885 4.
[...]
<PointData  Vectors="f_1968"> 
<DataArray  type="Float64"  Name="f_1968"  NumberOfComponents="3" format="ascii">-4.5506484864211933e-07 -4.5508188349597900e-07 0.0000000000000000e+00  4.5506262895132102e-07 -4.5508024039295504e-07 0.0000000000000000e+00  5.0301808680868380e-07 5.0303052049860039e-07 0.0000000000000000e+00  -4.5506432468449740e-07 4.5508113787145531e-07 0.0000000000000000e+00  -4.6360139521103333e-01 -9.0773836826348580e-03 0.0000000000000000e+00  9.1217338065960438e-08 -9.0589496272183748e-07 0.0000000000000000e+00  -1.0653535544094363e-07 -8.5983270889087936e-07 0.0000000000000000e+00  1.0480846101312110e-07 -8.7285222302041037e-07 0.0000000000000000e+00  -9.1337491940590039e-08 -8.8030930424827419e-07 0.0000000000000000e+00  -2.1172300825232068e-08 -9.0427589667571459e-07 0.0000000000000000e+00  3.5929334883975863e-08 -1.0611555780328068e-06 0.0000000000000000e+00  6.0989398438125786e-09 -9.3617729082789638e-07 0.0000000000000000e+00  7.3506628777956112e-08 -7.7878835254712151e-07 0.0000000000000000e+00  -1.0499318377209885e-07 -8.4442993462792911e-07 0.0000000000000000e+00  1.2031218515208559e-07 -8.2494373807664947e-07 0.0000000000000000e+00  -2.6559017990176832e-08 -6.7977395122039510e-07 0.0000000000000000e+00  -5.3226193492029066e-09 -7.5164751739437836e-07 0.0000000000000000e+00  -1.2948125489620878e-08 -7.6593244229358468e-07 0.0000000000000000e+00  1.0420110146818536e-08 -7.7472066098713236e-07 0.0000000000000000e+00  3.5209204285572956e-10 -7.5895898064645715e-07 0.0000000000000000e+00  3.6233871987254501e-10 -7.5815678971113419e-07 0.0000000000000000e+00  5.0575377479379281e-08 -7.2410564053339433e-07 0.0000000000000000e+00  -4.4494856868426971e-08 -6.8552250761221842e-07 0.0000000000000000e+00  3.8158445916727919e-10 -7.5566133814119241e-07 0.0000000000000000e+00  3.9973745408100989e-08 -6.5879981609058437e-07 0.0000000000000000e+00  -1.2842287741888171e-07 -8.0358301640922050e-07 0.0000000000000000e+00  9.7399728996241326e-08 -8.4597298733214214e-07 0.0000000000000000e+00  -9.4207345434993292e-08 -8.4511441003886667e-07 0.0000000000000000e+00  1.2511067730198647e-07 -7.9574682346868724e-07 0.0000000000000000e+00  -3.7827991499966260e-08 -6.4361380026255072e-07 0.0000000000000000e+00  4.0606592445171364e-10 -7.4945343793119145e-07 0.0000000000000000e+00  3.5663060782122932e-08 -6.8140790358967408e-07 0.0000000000000000e+00  -1.2113316233316390e-07 -8.0599919143479559e-07 0.0000000000000000e+00  1.0033978103735136e-07 -8.4061960581281940e-07 0.0000000000000000e+00  -9.4886055406869055e-08 -8.6083273950051161e-07 0.0000000000000000e+00  1.1185109505982307e-09 -8.6226672305873091e-07 0.0000000000000000e+00  6.7903121639120728e-08 -9.6795684960523188e-07 0.0000000000000000e+00  1.1533209328950478e-08 -7.8557340204324126e-07 0.0000000000000000e+00  7.9987545027833508e-09 -7.5686719895384997e-07 0.0000000000000000e+00  6.8507974693655376e-10 -7.4209166165093888e-07 0.0000000000000000e+00  9.9993902097479838e-09 -7.1979229343731270e-07 0.0000000000000000e+00  4.0656712074601612e-08 -6.3137337442119622e-07 0.0000000000000000e+00  -7.9931282480715649e-08 -6.7211505754351529e-07 0.0000000000000000e+00  -8.9129866061315863e-08 -9.5568051015872322e-07 0.0000000000000000e+00  9.8011045570820156e-08 -9.5252323176414874e-07 0.0000000000000000e+00  5.2313828335671255e-08 -6.9438597141063470e-07 0.0000000000000000e+00  -9.5541603360513010e-08 -8.1806630520148998e-07 0.0000000000000000e+00  -1.0664049784722915e-08 -7.4505748055179167e-07 0.0000000000000000e+00  5.8113332541015930e-08 -9.0583277279238021e-07 0.0000000000000000e+00  1.8806431430430239e-09 -7.5063738122263767e-07 0.0000000000000000e+00  4.5943464845260391e-09 -7.4779711838506709e-07 0.0000000000000000e+00  9.6693795155384280e-11 -7.3540625491681407e-07 0.0000000000000000e+00  -3.5595018354670332e-10 -7.3623845333616375e-07 0.0000000000000000e+00  -1.8551244807756218e-09 -7.4061645497063488e-07 0.0000000000000000e+00  -1.2199472430919231e-08 -7.6922302050981891e-07 0.0000000000000000e+00  -7.2714950248672863e-08 -9.5239249453992714e-07 0.0000000000000000e+00  7.7384596385491912e-09 -8.2560057458585886e-07 0.0000000000000000e+00  9.1607437936675481e-08 -8.1711249920090891e-07 0.0000000000000000e+00  -1.0602304937161171e-07 -8.0972951333848439e-07 0.0000000000000000e+00  1.1977769286481431e-07 -7.9243754156870909e-07 0.0000000000000000e+00  -2.7980603695705939e-08 -6.5680177306081123e-07 0.0000000000000000e+00  -9.4440175265349737e-09 -7.3294382639646791e-07 0.0000000000000000e+00  -6.7132356115615672e-09 -7.4431073886185116e-07 0.0000000000000000e+00  5.1739121217267762e-09 -7.4592816344614593e-07 0.0000000000000000e+00  -5.1806854240583041e-09 -7.4914983541528754e-07 0.0000000000000000e+00  -1.0143003923758248e-08 -7.7956272674136137e-07 0.0000000000000000e+00  4.7538427676266895e-08 -7.0781784335679268e-07 0.0000000000000000e+00  -8.6934923624012047e-08 -7.5673100972365289e-07 0.0000000000000000e+00  1.2979645845213716e-08 -8.6780919972610787e-07 0.0000000000000000e+00  5.8280783798039712e-09 -8.3156361404315204e-07 0.0000000000000000e+00  1.5583175430399742e-08 -8.2445978652596863e-07 0.0000000000000000e+00  7.2578083642217429e-08 -6.8369431897261474e-07 0.0000000000000000e+00  -6.8388297780252825e-08 -6.8149286240863718e-07 0.0000000000000000e+00  -1.4711831323548297e-08 -8.0602784288530082e-07 0.0000000000000000e+00  2.7522956495211090e-08 -7.8733616123760805e-07 0.0000000000000000e+00  1.7301395153729393e-09 -7.5350087156382044e-07 0.0000000000000000e+00  1.7119249596046563e-11 -7.4868945443779617e-07 0.0000000000000000e+00  -5.6831272722008100e-09 -7.7230004379755039e-07 0.0000000000000000e+00  5.3516434519052526e-08 -6.8533818631124157e-07 0.0000000000000000e+00  -3.3487926960874134e-08 -6.5757361708528073e-07 0.0000000000000000e+00  -1.6658747795112633e-08 -7.4464460764813432e-07 0.0000000000000000e+00  -4.3772382910630549e-08 -8.0458648688770323e-07 0.0000000000000000e+00  -6.3440733616159880e-09 -8.7651755149546666e-07 0.0000000000000000e+00  8.5737802882041183e-08 -7.4381801242815386e-07 0.0000000000000000e+00  -6.2451791367009283e-08 -7.1517186754519621e-07 0.0000000000000000e+00  -4.8515918818697660e-09 -8.2715778020111267e-07 0.0000000000000000e+00  4.1413062912683759e-08 -7.8493848681414748e-07 0.0000000000000000e+00  -1.9085845634497938e-08 -7.5536457709567633e-07 0.0000000000000000e+00  -2.5406569289322958e-08 -7.9396112664277037e-07 0.0000000000000000e+00  2.9225355176551461e-09 -8.4991816976306991e-07 0.0000000000000000e+00  7.4963944429184703e-08 -7.1434477396784587e-07 0.0000000000000000e+00  -7.3159476214489607e-08 -7.1255101808487349e-07 0.0000000000000000e+00  -8.2138528596614036e-09 -8.4333583298149466e-07 0.0000000000000000e+00  3.3256815382465824e-08 -8.0871894476735254e-07 0.0000000000000000e+00  1.5957889534963203e-08 -7.4454898993061219e-07 0.0000000000000000e+00  -1.2453744387372530e-08 -7.3941905342977101e-07 0.0000000000000000e+00  -6.9758894518323517e-09 -7.7663803793021404e-07 0.0000000000000000e+00  5.2187731706818681e-08 -6.9539651327898353e-07 0.0000000000000000e+00  -6.5853565671859002e-08 -7.0806799480689046e-07 0.0000000000000000e+00  -1.8732332088548558e-08 -8.3968007542897266e-07 0.0000000000000000e+00  2.8368632522106922e-08 -8.1773305123790451e-07 0.0000000000000000e+00  3.2787643215645474e-09 -7.7986711104078078e-07 0.0000000000000000e+00  -6.7762787993912184e-09 -7.9412903234207046e-07 0.0000000000000000e+00  -6.0250287715103922e-08 -9.4798789010398238e-07 0.0000000000000000e+00  8.9095099087554356e-07 8.8254183071121326e-08 0.0000000000000000e+00  8.8506489255915961e-07 -1.2417421906728230e-07 0.0000000000000000e+00  9.1668143589157327e-07 1.1035499377186792e-07 0.0000000000000000e+00  7.5632715026885142e-07 -2.5013840642964489e-08 0.0000000000000000e+00  8.0129068754439978e-07 1.6827585766486838e-08 0.0000000000000000e+00  7.7943317568573126e-07 5.2300412680956598e-10 0.0000000000000000e+00  7.7879290418011526e-07 -2.0999346668317942e-10 0.0000000000000000e+00  7.7849493255915469e-07 7.8319468759109503e-10 0.0000000000000000e+00  7.8252711446418784e-07 -6.4007913927776630e-09 0.0000000000000000e+00  7.9104327540923983e-07 3.8153058150265428e-09 0.0000000000000000e+00  7.9400862861978354e-07 -6.7609645654265656e-09 0.0000000000000000e+00  7.9227004682438085e-07 1.1912878045448257e-08 0.0000000000000000e+00  7.8464797923975146e-07 -1.2830797793530980e-08 0.0000000000000000e+00  7.8480454896167787e-07 9.1340406487544131e-09 0.0000000000000000e+00  7.9901782093551978e-07 -1.4198560511254501e-08 0.0000000000000000e+00  7.8756594183075287e-07 2.2941625239060581e-08 0.0000000000000000e+00  7.7046186680324518e-07 -3.4419900319616786e-09 0.0000000000000000e+00  7.7933705857753614e-07 -1.1180626403333286e-08 0.0000000000000000e+00  7.6873704762192682e-07 1.6312376639876807e-08 0.0000000000000000e+00  7.7388986583696648e-07 -1.8057151465161516e-08 0.0000000000000000e+00  7.9326375175013852e-07 6.1416754958100097e-09 0.0000000000000000e+00  7.6821033329075699e-07 1.3410859964316099e-08 0.0000000000000000e+00  8.0040621602591083e-07 -3.1957203728460876e-08 0.0000000000000000e+00  8.3376345338001599e-07 -8.1807218811978948e-09 0.0000000000000000e+00  8.3147023977341397e-07 9.0094219831617463e-09 0.0000000000000000e+00  7.9208598430578968e-07 2.1536684082247066e-08 0.0000000000000000e+00  7.6000481114448721e-07 1.0865644323080143e-08 0.0000000000000000e+00  7.4650445571507266e-07 5.3831858032240578e-10 0.0000000000000000e+00  7.4528883320269385e-07 5.5726464146575473e-10 0.0000000000000000e+00  7.4406275834625140e-07 5.5928172891889997e-10 0.0000000000000000e+00  7.4287328723755875e-07 5.5687620000115130e-10 0.0000000000000000e+00  7.4165261983404825e-07 5.6977887159076159e-10 0.0000000000000000e+00  7.5127939439443213e-07 -1.1212868819677310e-08 0.0000000000000000e+00  7.6490925173998584e-07 1.6908668435164126e-09 0.0000000000000000e+00  7.5207939187502046e-07 1.1318532152379315e-08 0.0000000000000000e+00  7.8334900611185608e-07 -3.0672849807120392e-08 0.0000000000000000e+00  8.1548440327037274e-07 -9.7660850324607380e-09 0.0000000000000000e+00  8.4314824508647276e-07 -5.9932310518911809e-09 0.0000000000000000e+00  8.4136349482928531e-07 1.8038732363340739e-08 0.0000000000000000e+00  7.2494363209684564e-07 6.1796565075761715e-10 0.0000000000000000e+00  8.1116913984556856e-07 3.4311629240708950e-08 0.0000000000000000e+00  7.3388186792889937e-07 -9.5368507638648201e-10 0.0000000000000000e+00  7.2982324673497793e-07 1.6676465477947607e-09 0.0000000000000000e+00  7.2932329544536660e-07 3.1499410229478392e-10 0.0000000000000000e+00  7.8322545235785720e-07 -3.0156540933656408e-08 0.0000000000000000e+00  7.9285019113319690e-07 -9.1472408783042319e-09 0.0000000000000000e+00  8.1466335840222278e-07 -1.5890475770307003e-09 0.0000000000000000e+00  8.0553212625231917e-07 7.0324165058884226e-09 0.0000000000000000e+00  8.0168857878738441e-07 6.6661788132801654e-09 0.0000000000000000e+00  8.0033268470773241e-07 -1.4668546498589405e-08 0.0000000000000000e+00  8.3051392429279349e-07 -2.0871540728139567e-09 0.0000000000000000e+00  8.3971108905259384e-07 -1.7486750680331407e-09 0.0000000000000000e+00  8.1993059005752834e-07 5.2229255893635253e-10 0.0000000000000000e+00  8.3421257321439332e-07 4.7025153668204822e-10 0.0000000000000000e+00  8.4072465619633411e-07 -1.4551794488186676e-09 0.0000000000000000e+00  8.2115977748560331e-07 3.7644995316870710e-10 0.0000000000000000e+00  8.3275312859194157e-07 1.3644959602507662e-09 0.0000000000000000e+00  8.2775187288935140e-07 2.6305293266183704e-09 0.0000000000000000e+00  7.8578127014390061e-07 2.4615956872829401e-08 0.0000000000000000e+00  7.6427138800108082e-07 -1.1474291346760926e-10 0.0000000000000000e+00  7.6129637873150889e-07 8.7199864143640611e-09 0.0000000000000000e+00  7.5904531484188924e-07 -1.2053079832977710e-08 0.0000000000000000e+00  7.6538134819396621e-07 -3.2484798501096034e-10 0.0000000000000000e+00  7.7847256532854475e-07 -1.3039720959703159e-10 0.0000000000000000e+00  7.9785142141062641e-07 -2.4086628315806702e-08 0.0000000000000000e+00  8.3986216494287744e-07 -3.9635683522399378e-09 0.0000000000000000e+00  8.5422263685631300e-07 -2.9440717964011252e-09 0.0000000000000000e+00  8.3620579261286156e-07 -1.6441722808416616e-10 0.0000000000000000e+00  8.4816873360277857e-07 3.2880070695171007e-09 0.0000000000000000e+00  8.2352607953463182e-07 1.2203470994466183e-08 0.0000000000000000e+00  7.7485794386161906e-07 2.2525061250651086e-08 0.0000000000000000e+00  7.5018604371628189e-07 3.9548868325543167e-09 0.0000000000000000e+00  7.4765260356902336e-07 -5.2618250283146023e-10 0.0000000000000000e+00  7.4877574978097078e-07 -4.9849449463095199e-10 0.0000000000000000e+00  7.5238797776379099e-07 -1.5505384101843902e-09 0.0000000000000000e+00  7.6020201686656410e-07 -4.8798960451090254e-09 0.0000000000000000e+00  7.8134565163951458e-07 -1.0569477778811355e-08 0.0000000000000000e+00  8.1391741364945575e-07 -2.3770364799135356e-08 0.0000000000000000e+00  8.5361989859160343e-07 -1.1064504834831518e-09 0.0000000000000000e+00  8.3385960542329632e-07 1.1352033119076813e-08 0.0000000000000000e+00  8.0630661978459136e-07 1.4834104598013035e-08 0.0000000000000000e+00  8.0021834328751498e-07 -8.1013631353178485e-09 0.0000000000000000e+00  8.1933430828646895e-07 -1.9198483040861415e-08 0.0000000000000000e+00  8.5415634721260840e-07 1.3735336808772930e-10 0.0000000000000000e+00  8.3893690536807125e-07 1.0669026285429288e-08 0.0000000000000000e+00  8.1128848778931466e-07 8.7178444557400974e-09 0.0000000000000000e+00  7.8071376763600640e-07 1.8343852011899001e-08 0.0000000000000000e+00  7.7159418496334426e-07 -8.0880184031613439e-09 0.0000000000000000e+00  7.7088517534457195e-07 7.4302593710315007e-09 0.0000000000000000e+00  7.6336539704785367e-07 -3.0041294081154655e-10 0.0000000000000000e+00  7.6404088883396672e-07 -2.9127730409423613e-10 0.0000000000000000e+00  7.7769373626555470e-07 -1.1438995721337026e-08 0.0000000000000000e+00  7.7820049783641224e-07 1.0880591581025296e-08 0.0000000000000000e+00  7.6871007909400517e-07 -2.5629127483593458e-09 0.0000000000000000e+00  7.9957617498243964e-07 -1.2100196050467367e-08 0.0000000000000000e+00  8.1389158914181008e-07 -7.0345492815486843e-09 0.0000000000000000e+00  8.2277969203810897e-07 -1.7254458473420529e-08 0.0000000000000000e+00  8.4605513365247479e-07 -3.7908016527499035e-09 0.0000000000000000e+00  1.0390337957717787e-06 -6.0227384454378374e-08 0.0000000000000000e+00  -1.0912960390841516e-07 9.7257979537989585e-07 0.0000000000000000e+00  5.6951499747368697e-08 8.2959603372819526e-07 0.0000000000000000e+00  9.9064706360680300e-10 9.4577111889323241e-07 0.0000000000000000e+00  3.4450409249539343e-08 1.0612538019282648e-06 0.0000000000000000e+00  -1.8703661467394125e-08 9.0047227285930751e-07 0.0000000000000000e+00  -8.8580448522136785e-08 8.9392756068623862e-07 0.0000000000000000e+00  1.3327048360025247e-07 9.1864909245801811e-07 0.0000000000000000e+00  -1.4572243314843400e-07 9.2430907441613572e-07 0.0000000000000000e+00  1.1893727077084342e-08 7.0586776339358036e-07 0.0000000000000000e+00  7.6777328866220545e-09 7.6096437622391618e-07 0.0000000000000000e+00  -1.2274294690396758e-08 7.7692876157301182e-07 0.0000000000000000e+00  -1.1685135909849495e-08 7.5090002894843251e-07 0.0000000000000000e+00  -3.3878630573847289e-08 6.6105970138285206e-07 0.0000000000000000e+00  5.6631964287167015e-08 6.9410130250195714e-07 0.0000000000000000e+00  9.8319314963545237e-10 7.8981343837286568e-07 0.0000000000000000e+00  -1.8967913639117610e-09 7.7972647918918655e-07 0.0000000000000000e+00  -1.5405689793265714e-09 7.7346179095443416e-07 0.0000000000000000e+00  2.0701746294766249e-09 7.7633219211404364e-07 0.0000000000000000e+00  -1.3711021881761437e-09 7.8630085460712169e-07 0.0000000000000000e+00  -5.6560532673658375e-08 6.9349406238023856e-07 0.0000000000000000e+00  4.2250270998783583e-08 6.7439241096880532e-07 0.0000000000000000e+00  -3.9009450417437047e-09 7.4468269963521136e-07 0.0000000000000000e+00  9.0810097157140743e-09 7.4983195732341739e-07 0.0000000000000000e+00  -9.1136059302988878e-09 7.4650831730037648e-07 0.0000000000000000e+00  -2.7926666355766056e-08 6.6981258720707769e-07 0.0000000000000000e+00  1.1956844762860251e-07 8.0629103562132916e-07 0.0000000000000000e+00  -1.0525063763158911e-07 8.3011431351163251e-07 0.0000000000000000e+00  7.3682828206760263e-08 7.6223454064783824e-07 0.0000000000000000e+00  4.2197653237158376e-09 9.1683617441631096e-07 0.0000000000000000e+00  3.5108907360083454e-08 1.0330103697922883e-06 0.0000000000000000e+00  -2.3465418061087897e-08 8.7871617639491521e-07 0.0000000000000000e+00  -9.2621043278287715e-08 8.5163162442919707e-07 0.0000000000000000e+00  9.5892560416355567e-08 8.3289774427917017e-07 0.0000000000000000e+00  -1.2893708614093152e-07 7.8894134788557923e-07 0.0000000000000000e+00  4.2022599903199444e-08 6.5456112432789435e-07 0.0000000000000000e+00  -1.0558969743344285e-08 7.2536783383534640e-07 0.0000000000000000e+00  1.3453328110905048e-08 7.3427356116720073e-07 0.0000000000000000e+00  -3.6959073961662452e-09 7.4492932639615194e-07 0.0000000000000000e+00  -2.8709651634626732e-10 7.3864255216069083e-07 0.0000000000000000e+00  -2.7136705956449251e-10 7.3803828588702162e-07 0.0000000000000000e+00  -5.1344464419224110e-08 7.0824440575940028e-07 0.0000000000000000e+00  4.4421999008260922e-08 6.6427644081585474e-07 0.0000000000000000e+00  -1.5488436960588493e-09 7.4351882773372975e-07 0.0000000000000000e+00  2.8280226585959352e-08 7.6424357512690451e-07 0.0000000000000000e+00  -9.9379931983169031e-09 8.0609439897823507e-07 0.0000000000000000e+00  -7.1029862099339121e-08 6.7396087698021732e-07 0.0000000000000000e+00  6.8362865330266591e-08 6.7056734708031621e-07 0.0000000000000000e+00  2.5222049569321633e-08 8.0975395972361953e-07 0.0000000000000000e+00  8.6300823310926571e-10 8.3279478704366903e-07 0.0000000000000000e+00  5.5232287234678032e-09 8.5083860544069508e-07 0.0000000000000000e+00  -8.5805671498902689e-08 7.2265443009735622e-07 0.0000000000000000e+00  6.3534209903009234e-08 6.9467614060896137e-07 0.0000000000000000e+00  2.2510769534981819e-08 8.2860822774278954e-07 0.0000000000000000e+00  6.8298453092586997e-09 8.6121750894644623e-07 0.0000000000000000e+00  -1.1799292336401477e-08 8.5481323557646902e-07 0.0000000000000000e+00  -5.8366421223371058e-08 7.1076440164155776e-07 0.0000000000000000e+00  1.1949066599617898e-07 8.2094446164210124e-07 0.0000000000000000e+00  -1.0426379434884327e-07 8.4419277453734451e-07 0.0000000000000000e+00  8.6699736973611060e-08 8.3225099401595075e-07 0.0000000000000000e+00  -1.2887171914545409e-07 7.7085554311078173e-07 0.0000000000000000e+00  4.4397304633913067e-08 6.3653345651347221e-07 0.0000000000000000e+00  5.4291768864247356e-09 7.4511668547939114e-07 0.0000000000000000e+00  1.1908515431325501e-09 7.5248601294073393e-07 0.0000000000000000e+00  -5.6255171952062288e-09 7.4741006609235382e-07 0.0000000000000000e+00  1.2222250104643293e-09 7.4208991741468934e-07 0.0000000000000000e+00  -5.1141716689365544e-10 7.4376789482158700e-07 0.0000000000000000e+00  5.9428029839367240e-09 7.4943090395724872e-07 0.0000000000000000e+00  2.5797326797857941e-08 7.8620884538915964e-07 0.0000000000000000e+00  -8.8323418554720180e-09 8.1621960009609744e-07 0.0000000000000000e+00  -7.0099319712401339e-08 6.9333768921220549e-07 0.0000000000000000e+00  5.3986249248141235e-08 6.9837764203942193e-07 0.0000000000000000e+00  4.1018217737993572e-10 7.4759665432784101e-07 0.0000000000000000e+00  3.1034047435268047e-08 7.7635250340825004e-07 0.0000000000000000e+00  -1.2104792628920138e-09 8.2935905275866026e-07 0.0000000000000000e+00  -1.9102818142666935e-08 7.9627492562149994e-07 0.0000000000000000e+00  -9.7577575165559679e-09 7.6263710477686011e-07 0.0000000000000000e+00  -4.0082597678442761e-08 6.9285305844898701e-07 0.0000000000000000e+00  1.0995408124022811e-07 7.9435945732290925e-07 