<?xml version="1.0"?>
<VTKFile type="UnstructuredGrid"  version="0.1"  >
<UnstructuredGrid>
<Piece  NumberOfPoints="11902" NumberOfCells="23402">
<Points>
<DataArray  type="Float64"  NumberOfComponents="3"  format="ascii">-5 -5 0  5 -5 0  5 5 0  -5 5 0  1.191812140680499 0.001251415498194197 0  -4.9 -5 0  -4.8 -5 0  -4.7 -5 0  -4.6 -5 0  -4.5 -5 0  -4.4 -5 0  -4.3 -5 0  -4.2 -5 0  -4.1 -5 0  -4 -5 0  -3.9 -5 0  -3.8 -5 0  -3.7 -5 0  -3.6 -5 0  -3.5 -5 0  -3.4 -5 0  -3.3 -5 0  -3.2 -5 0  -3.1 -5 0  -3 -5 0  -2.9 -5 0  -2.8 -5 0  -2.7 -5 0  -2.6 -5 0  -2.5 -5 0  -2.4 -5 0  -2.3 -5 0  -2.2 -5 0  -2.1 -5 0  -2 -5 0  -1.9 -5 0  -1.8 -5 0  -1.7 -5 0  -1.6 -5 0  -1.5 -5 0  -1.4 -5 0  -1.3 -5 0  -1.2 -5 0  -1.1 -5 0  -1 -5 0  -0.9000000000000004 -5 0  -0.7999999999999998 -5 0  -0.7000000000000002 -5 0  -0.5999999999999996 -5 0  -0.5 -5 0  -0.4000000000000004 -5 0  -0.2999999999999998 -5 0  -0.2000000000000002 -5 0  -0.09999999999999964 -5 0  0 -5 0  0.09999999999999964 -5 0  0.2000000000000002 -5 0  0.2999999999999998 -5 0  0.4000000000000004 -5 0  0.5 -5 0  0.5999999999999996 -5 0  0.7000000000000002 -5 0  0.7999999999999998 -5 0  0.9000000000000004 -5 0  1 -5 0  1.1 -5 0  1.2 -5 0  1.3 -5 0  1.4 -5 0  1.5 -5 0  1.6 -5 0  1.7 -5 0  1.8 -5 0  1.9 -5 0  2 -5 0  2.1 -5 0  2.2 -5 0  2.3 -5 0  2.4 -5 0  2.5 -5 0  2.6 -5 0  2.7 -5 0  2.8 -5 0  2.9 -5 0  3 -5 0  3.1 -5 0  3.199999999999999 -5 0  3.300000000000001 -5 0  3.4 -5 0  3.5 -5 0  3.6 -5 0  3.699999999999999 -5 0  3.800000000000001 -5 0  3.9 -5 0  4 -5 0  4.1 -5 0  4.199999999999999 -5 0  4.300000000000001 -5 0  4.4 -5 0  4.5 -5 0  4.6 -5 0  4.699999999999999 -5 0  4.800000000000001 -5 0  4.9 -5 0  5 -4.9 0  5 -4.8 0  5 -4.7 0  5 -4.6 0  5 -4.5 0  5 -4.4 0  5 -4.3 0  5 -4.2 0  5 -4.1 0  5 -4 0  5 -3.9 0  5 -3.8 0  5 -3.7 0  5 -3.6 0  5 -3.5 0  5 -3.4 0  5 -3.3 0  5 -3.2 0  5 -3.1 0  5 -3 0  5 -2.9 0  5 -2.8 0  5 -2.7 0  5 -2.6 0  5 -2.5 0  5 -2.4 0  5 -2.3 0  5 -2.2 0  5 -2.1 0  5 -2 0  5 -1.9 0  5 -1.8 0  5 -1.7 0  5 -1.6 0  5 -1.5 0  5 -1.4 0  5 -1.3 0  5 -1.2 0  5 -1.1 0  5 -1 0  5 -0.9000000000000004 0  5 -0.7999999999999998 0  5 -0.7000000000000002 0  5 -0.5999999999999996 0  5 -0.5 0  5 -0.4000000000000004 0  5 -0.2999999999999998 0  5 -0.2000000000000002 0  5 -0.09999999999999964 0  5 0 0  5 0.09999999999999964 0  5 0.2000000000000002 0  5 0.2999999999999998 0  5 0.4000000000000004 0  5 0.5 0  5 0.5999999999999996 0  5 0.7000000000000002 0  5 0.7999999999999998 0  5 0.9000000000000004 0  5 1 0  5 1.1 0  5 1.2 0  5 1.3 0  5 1.4 0  5 1.5 0  5 1.6 0  5 1.7 0  5 1.8 0  5 1.9 0  5 2 0  5 2.1 0  5 2.2 0  5 2.3 0  5 2.4 0  5 2.5 0  5 2.6 0  5 2.7 0  5 2.8 0  5 2.9 0  5 3 0  5 3.1 0  5 3.199999999999999 0  5 3.300000000000001 0  5 3.4 0  5 3.5 0  5 3.6 0  5 3.699999999999999 0  5 3.800000000000001 0  5 3.9 0  5 4 0  5 4.1 0  5 4.199999999999999 0  5 4.300000000000001 0  5 4.4 0  5 4.5 0  5 4.6 0  5 4.699999999999999 0  5 4.800000000000001 0  5 4.9 0  4.9 5 0  4.8 5 0  4.7 5 0  4.6 5 0  4.5 5 0  4.4 5 0  4.3 5 0  4.2 5 0  4.1 5 0  4 5 0  3.9 5 0  3.8 5 0  3.7 5 0  3.6 5 0  3.5 5 0  3.4 5 0  3.3 5 0  3.2 5 0  3.1 5 0  3 5 0  2.9 5 0  2.8 5 0  2.7 5 0  2.6 5 0  2.5 5 0  2.4 5 0  2.3 5 0  2.2 5 0  2.1 5 0  2 5 0  1.9 5 0  1.8 5 0  1.7 5 0  1.6 5 0  1.5 5 0  1.4 5 0  1.3 5 0  1.2 5 0  1.1 5 0  1 5 0  0.9000000000000004 5 0  0.7999999999999998 5 0  0.7000000000000002 5 0  0.5999999999999996 5 0  0.5 5 0  0.4000000000000004 5 0  0.2999999999999998 5 0  0.2000000000000002 5 0  0.09999999999999964 5 0  0 5 0  -0.09999999999999964 5 0  -0.2000000000000002 5 0  -0.2999999999999998 5 0  -0.4000000000000004 5 0  -0.5 5 0  -0.5999999999999996 5 0  -0.7000000000000002 5 0  -0.7999999999999998 5 0  -0.9000000000000004 5 0  -1 5 0  -1.1 5 0  -1.2 5 0  -1.3 5 0  -1.4 5 0  -1.5 5 0  -1.6 5 0  -1.7 5 0  -1.8 5 0  -1.9 5 0  -2 5 0  -2.1 5 0  -2.2 5 0  -2.3 5 0  -2.4 5 0  -2.5 5 0  -2.6 5 0  -2.7 5 0  -2.8 5 0  -2.9 5 0  -3 5 0  -3.1 5 0  -3.199999999999999 5 0  -3.300000000000001 5 0  -3.4 5 0  -3.5 5 0  -3.6 5 0  -3.699999999999999 5 0  -3.800000000000001 5 0  -3.9 5 0  -4 5 0  -4.1 5 0  -4.199999999999999 5 0  -4.300000000000001 5 0  -4.4 5 0  -4.5 5 0  -4.6 5 0  -4.699999999999999 5 0  -4.800000000000001 5 0  -4.9 5 0  -5 4.9 0  -5 4.8 0  -5 4.7 0  -5 4.6 0  -5 4.5 0  -5 4.4 0  -5 4.3 0  -5 4.2 0  -5 4.1 0  -5 4 0  -5 3.9 0  -5 3.8 0  -5 3.7 0  -5 3.6 0  -5 3.5 0  -5 3.4 0  -5 3.3 0  -5 3.2 0  -5 3.1 0  -5 3 0  -5 2.9 0  -5 2.8 0  -5 2.7 0  -5 2.6 0  -5 2.5 0  -5 2.4 0  -5 2.3 0  -5 2.2 0  -5 2.1 0  -5 2 0  -5 1.9 0  -5 1.8 0  -5 1.7 0  -5 1.6 0  -5 1.5 0  -5 1.4 0  -5 1.3 0  -5 1.2 0  -5 1.1 0  -5 1 0  -5 0.9000000000000004 0  -5 0.7999999999999998 0  -5 0.7000000000000002 0  -5 0.5999999999999996 0  -5 0.5 0  -5 0.4000000000000004 0  -5 0.2999999999999998 0  -5 0.2000000000000002 0  -5 0.09999999999999964 0  -5 0 0  -5 -0.09999999999999964 0  -5 -0.2000000000000002 0  -5 -0.2999999999999998 0  -5 -0.4000000000000004 0  -5 -0.5 0  -5 -0.5999999999999996 0  -5 -0.7000000000000002 0  -5 -0.7999999999999998 0  -5 -0.9000000000000004 0  -5 -1 0  -5 -1.1 0  -5 -1.2 0  -5 -1.3 0  -5 -1.4 0  -5 -1.5 0  -5 -1.6 0  -5 -1.7 0  -5 -1.8 0  -5 -1.9 0  -5 -2 0  -5 -2.1 0  -5 -2.2 0  -5 -2.3 0  -5 -2.4 0  -5 -2.5 0  -5 -2.6 0  -5 -2.7 0  -5 -2.8 0  -5 -2.9 0  -5 -3 0  -5 -3.1 0  -5 -3.199999999999999 0  -5 -3.300000000000001 0  -5 -3.4 0  -5 -3.5 0  -5 -3.6 0  -5 -3.699999999999999 0  -5 -3.800000000000001 0  -5 -3.9 0  -5 -4 0  -5 -4.1 0  -5 -4.199999999999999 0  -5 -4.300000000000001 0  -5 -4.4 0  -5 -4.5 0  -5 -4.6 0  -5 -4.699999999999999 0  -5 -4.800000000000001 0  -5 -4.9 0  1.185915796627009 0.09930072300667063 0  1.16737473163726 0.1976219338944521 0  1.136295224305565 0.2949573394063197 0  1.096025420029617 0.3866733110185089 0  1.04372440149222 0.4773934508624083 0  0.9820458854666468 0.5625632708317233 0  0.9095489156390086 0.6423303625068906 0  0.8277507935737867 0.7151346526322363 0  0.7389018856049246 0.7808822298032733 0  0.6420563241139713 0.8394585972001605 0  0.5381355735946483 0.8901695514400103 0  0.4298974178234522 0.9319947333309354 0  0.3192555958278842 0.9647851605895365 0  0.2033094723727868 0.9871932377842029 0  0.08821583858294726 1.001537547498011 0  -0.02767872357172414 1.004286420615344 0  -0.1436971128134264 0.9947893425110241 0  -0.260662590958908 0.9771882758574088 0  -0.3745146068377913 0.9509080012574085 0  -0.4834231776230579 0.9143618626575009 0  -0.5875125402813759 0.868840825105202 0  -0.6865317843224021 0.814113614769516 0  -0.7785023757422688 0.7512901489763415 0  -0.8638262327041121 0.6808937004272592 0  -0.9417346895326342 0.6028646827502646 0  -1.009391276264039 0.5203449669924045 0  -1.067643171073368 0.4333144545798349 0  -1.114628739131463 0.3411067039093012 0  -1.149879199935022 0.246836868763156 0  -1.173620113550264 0.1500741298055165 0  -1.185667181426641 0.05080607056660247 0  -1.185667807684713 -0.04911308396916349 0  -1.173573960365928 -0.1480691032779264 0  -1.150794321772912 -0.2448377229559756 0  -1.114180505157848 -0.3407134899593875 0  -1.068012632807886 -0.4320751102680994 0  -1.010345125313788 -0.5194053361291613 0  -0.9431743303486931 -0.601494177274127 0  -0.865538609834262 -0.6783874774573704 0  -0.7797743697026872 -0.7478625319609892 0  -0.6865804457680874 -0.8091961422669315 0  -0.5877575256130215 -0.8635879915548443 0  -0.4808248739577273 -0.9102236513369782 0  -0.3714476538447541 -0.9481805035145227 0  -0.2579180384209817 -0.9757891797080481 0  -0.1423020788971696 -0.9938416427680633 0  -0.0272042124741801 -1.003439392499202 0  0.08883009171040301 -0.999210273072123 0  0.2060215840054608 -0.9849933174721129 0  0.3207753294810855 -0.9631268974848542 0  0.4331673682405074 -0.9305767507637865 0  0.5397254088612925 -0.8892008400207326 0  0.6427589355559502 -0.8390063744004971 0  0.7390850091895871 -0.7818152550652848 0  0.8278263898967642 -0.7158149778810911 0  0.9090634728975694 -0.6417604850948992 0  0.9806889941022507 -0.5618909267653259 0  1.043606072529728 -0.4768497821494175 0  1.097071751340768 -0.3867510964667505 0  1.137680107849686 -0.2935844503620107 0  1.167609615547725 -0.1968109603838069 0  1.185932104917475 -0.09884363803568467 0  -2.448813242002488 4.918577414665793 0  -2.448710182679888 -4.910997794781015 0  4.910933622770001 2.448254205588303 0  4.919012862372948 -2.449683168749379 0  2.446484586513702 -4.896316969428613 0  2.440907795388423 4.900060659985376 0  -4.910956609058798 -2.44827676206835 0  -4.910955037344269 2.448280626261617 0  -1.748776927643227 4.911671215682614 0  -1.744552448766494 -4.915086352345462 0  4.921246210892611 1.744395201002939 0  4.909866408384564 -1.748203902690902 0  -4.910152711095956 -1.747932713732643 0  -4.910969920970881 1.747673745972499 0  1.74606608841045 4.90557712845466 0  1.747512407063438 -4.893807486341577 0  -1.149034978130125 4.909594951565356 0  -1.129871444363353 -4.917444228054005 0  -4.910047985693675 -1.14819648768525 0  -4.909869070109431 1.147996572695696 0  1.144016963910576 -4.913661036691524 0  1.149042347941141 4.909583787882518 0  4.910195101652355 1.146474019864624 0  4.920921985302656 -1.15222472926196 0  -0.546770151367394 -4.91085352619865 0  -0.5465419515747846 4.919460468536954 0  -4.908923596571888 -0.5488579527033256 0  -4.908948089320146 0.5474140009375712 0  4.908259564732394 -0.5491790843935932 0  4.919791055008625 0.545916113627026 0  0.5425618147769732 -4.897853866841607 0  0.5512725847233485 4.916312752759562 0  -4.91221977104312 -3.048573128454012 0  4.918769121464728 3.046571158294445 0  4.911731196279328 -3.048553279333323 0  -4.913065994271267 3.045662388309688 0  3.055512524507844 -4.917707822916328 0  -3.048858889766586 -4.911665997567887 0  3.052421394632943 4.913737598057766 0  -3.048303418897557 4.912552778328472 0  -4.908085231833238 -0.04992260720400891 0  0.04512631319798576 -4.912810608165334 0  0.04957432336509893 4.919773505064018 0  4.915070743320017 -0.05130377487171433 0  3.545786101282707 -4.919253934617721 0  -3.54908160473035
[...]
<PointData  Vectors="f_2180"> 
<DataArray  type="Float64"  Name="f_2180"  NumberOfComponents="3" format="ascii">-4.5505231951440727e-07 -4.5507011707869287e-07 0.0000000000000000e+00  4.5505000301760553e-07 -4.5506838372569979e-07 0.0000000000000000e+00  5.0300559049058702e-07 5.0301858696919306e-07 0.0000000000000000e+00  -4.5505177405430219e-07 4.5506934309886146e-07 0.0000000000000000e+00  -4.2273465369982760e-01 -8.1782070777029897e-03 0.0000000000000000e+00  9.1228508330861119e-08 -9.0585273797454301e-07 0.0000000000000000e+00  -1.0652035560147936e-07 -8.5974810358320146e-07 0.0000000000000000e+00  1.0481854139361193e-07 -8.7275075359929848e-07 0.0000000000000000e+00  -9.1321398331489350e-08 -8.8014938600956528e-07 0.0000000000000000e+00  -2.1155886242763578e-08 -9.0407934282635918e-07 0.0000000000000000e+00  3.5942724101702317e-08 -1.0609022824582265e-06 0.0000000000000000e+00  6.1126343067794705e-09 -9.3590881733029363e-07 0.0000000000000000e+00  7.3518531084596202e-08 -7.7854785585094158e-07 0.0000000000000000e+00  -1.0497692692531933e-07 -8.4408348354065606e-07 0.0000000000000000e+00  1.2032309842812674e-07 -8.2464046307474308e-07 0.0000000000000000e+00  -2.6543415559285980e-08 -6.7944824844818219e-07 0.0000000000000000e+00  -5.3074095828253290e-09 -7.5126460378901176e-07 0.0000000000000000e+00  -1.2932317585771761e-08 -7.6550430663895694e-07 0.0000000000000000e+00  1.0435676428764231e-08 -7.7426199241662419e-07 0.0000000000000000e+00  3.6823840148563320e-10 -7.5846900721025627e-07 0.0000000000000000e+00  3.7888420744650397e-10 -7.5763072809195340e-07 0.0000000000000000e+00  5.0590849612988044e-08 -7.2359387991610560e-07 0.0000000000000000e+00  -4.4476953793283092e-08 -6.8495350482777937e-07 0.0000000000000000e+00  3.9899779118657430e-10 -7.5502356446177325e-07 0.0000000000000000e+00  3.9991133624496438e-08 -6.5823134229300382e-07 0.0000000000000000e+00  -1.2840544890612194e-07 -8.0274445671249793e-07 0.0000000000000000e+00  9.7416868737967717e-08 -8.4518579529181291e-07 0.0000000000000000e+00  -9.4188087976160017e-08 -8.4416411798952969e-07 0.0000000000000000e+00  1.2512645861900440e-07 -7.9494356110647908e-07 0.0000000000000000e+00  -3.7808731301568129e-08 -6.4283786294108847e-07 0.0000000000000000e+00  4.2492374747202373e-10 -7.4853842571803180e-07 0.0000000000000000e+00  3.5682069154728144e-08 -6.8056118290004863e-07 0.0000000000000000e+00  -1.2111611500618499e-07 -8.0484689247885045e-07 0.0000000000000000e+00  1.0035851814166981e-07 -8.3951866445017346e-07 0.0000000000000000e+00  -9.4867563171230466e-08 -8.5953100517971828e-07 0.0000000000000000e+00  1.1418369817901306e-09 -8.6097908921826626e-07 0.0000000000000000e+00  6.7923106876127450e-08 -9.6649687667741913e-07 0.0000000000000000e+00  1.1551086984964523e-08 -7.8432249181054955e-07 0.0000000000000000e+00  8.0160396234644437e-09 -7.5562171646364595e-07 0.0000000000000000e+00  7.0167567301096881e-10 -7.4082994342713834e-07 0.0000000000000000e+00  1.0015584226027250e-08 -7.1853991248418830e-07 0.0000000000000000e+00  4.0673370384176877e-08 -6.3026489370977575e-07 0.0000000000000000e+00  -7.9920945574138285e-08 -6.7084214543029781e-07 0.0000000000000000e+00  -8.9119847620059531e-08 -9.5384008687004346e-07 0.0000000000000000e+00  9.8025913517066428e-08 -9.5073684083429566e-07 0.0000000000000000e+00  5.2327062923860135e-08 -6.9305319727745912e-07 0.0000000000000000e+00  -9.5534141895614994e-08 -8.1640768484612605e-07 0.0000000000000000e+00  -1.0653194921656125e-08 -7.4355997364995435e-07 0.0000000000000000e+00  5.8123901225581189e-08 -9.0399752489721019e-07 0.0000000000000000e+00  1.8875445616519404e-09 -7.4909231651242818e-07 0.0000000000000000e+00  4.6000909186211383e-09 -7.4624472461186291e-07 0.0000000000000000e+00  1.0093598859741600e-10 -7.3386878358334103e-07 0.0000000000000000e+00  -3.5307500196957395e-10 -7.3469152835976380e-07 0.0000000000000000e+00  -1.8537022761501734e-09 -7.3905537535207269e-07 0.0000000000000000e+00  -1.2199936443785915e-08 -7.6759882708231492e-07 0.0000000000000000e+00  -7.2719086850066541e-08 -9.5038003985944828e-07 0.0000000000000000e+00  7.7345888491789024e-09 -8.2386825350208883e-07 0.0000000000000000e+00  9.1607015492360171e-08 -8.1538734566548022e-07 0.0000000000000000e+00  -1.0603229859983017e-07 -8.0806236521435492e-07 0.0000000000000000e+00  1.1977625781170284e-07 -7.9077429261629602e-07 0.0000000000000000e+00  -2.7989663909673651e-08 -6.5547128171218935e-07 0.0000000000000000e+00  -9.4535273595585026e-09 -7.3146856378515920e-07 0.0000000000000000e+00  -6.7236634010896315e-09 -7.4283309686249659e-07 0.0000000000000000e+00  5.1627447232745275e-09 -7.4446638169775562e-07 0.0000000000000000e+00  -5.1932387936565328e-09 -7.4771161131712165e-07 0.0000000000000000e+00  -1.0156636764617759e-08 -7.7809701342025167e-07 0.0000000000000000e+00  4.7525792953588883e-08 -7.0648974926248462e-07 0.0000000000000000e+00  -8.6952046275399506e-08 -7.5541208280058176e-07 0.0000000000000000e+00  1.2964022754190735e-08 -8.6627678202573447e-07 0.0000000000000000e+00  5.8117653089176479e-09 -8.3013817964889638e-07 0.0000000000000000e+00  1.5566627120926043e-08 -8.2308102501137374e-07 0.0000000000000000e+00  7.2562249962908975e-08 -6.8255039948695310e-07 0.0000000000000000e+00  -6.8406859897400176e-08 -6.8047330972056949e-07 0.0000000000000000e+00  -1.4730343978337930e-08 -8.0482389362152309e-07 0.0000000000000000e+00  2.7504482811670229e-08 -7.8617604848155086e-07 0.0000000000000000e+00  1.7114254671141737e-09 -7.5244765437687201e-07 0.0000000000000000e+00  -1.7012828977576348e-12 -7.4768531375402464e-07 0.0000000000000000e+00  -5.7020055420417132e-09 -7.7131069145404635e-07 0.0000000000000000e+00  5.3497766754647003e-08 -6.8446039173985614e-07 0.0000000000000000e+00  -3.3506636104005124e-08 -6.5682198049237973e-07 0.0000000000000000e+00  -1.6677442981635111e-08 -7.4382160420240953e-07 0.0000000000000000e+00  -4.3790353731475108e-08 -8.0375751389117667e-07 0.0000000000000000e+00  -6.3623757426380404e-09 -8.7563712814744359e-07 0.0000000000000000e+00  8.5718885205903050e-08 -7.4305510897738023e-07 0.0000000000000000e+00  -6.2468130792309479e-08 -7.1456111177492881e-07 0.0000000000000000e+00  -4.8690710329365402e-09 -8.2645742467693261e-07 0.0000000000000000e+00  4.1394933494960979e-08 -7.8428871263691899e-07 0.0000000000000000e+00  -1.9102398321299101e-08 -7.5480862689132939e-07 0.0000000000000000e+00  -2.5422431985506426e-08 -7.9341836741202374e-07 0.0000000000000000e+00  2.9062946053382044e-09 -8.4936495408691744e-07 0.0000000000000000e+00  7.4946520225285136e-08 -7.1387910638435377e-07 0.0000000000000000e+00  -7.3172734999857680e-08 -7.1218357925866986e-07 0.0000000000000000e+00  -8.2289225469445484e-09 -8.4290949838083655e-07 0.0000000000000000e+00  3.3240914633999905e-08 -8.0833064823926537e-07 0.0000000000000000e+00  1.5942881318142390e-08 -7.4422899035688868e-07 0.0000000000000000e+00  -1.2467636614173855e-08 -7.3914200447736072e-07 0.0000000000000000e+00  -6.9897398353431957e-09 -7.7637881437559602e-07 0.0000000000000000e+00  5.2172387817806340e-08 -6.9517757284524411e-07 0.0000000000000000e+00  -6.5864957839534870e-08 -7.0789996687451241e-07 0.0000000000000000e+00  -1.8745348484869815e-08 -8.3950575499275129e-07 0.0000000000000000e+00  2.8354309558300988e-08 -8.1758846899807947e-07 0.0000000000000000e+00  3.2654363350043528e-09 -7.7976313882670420e-07 0.0000000000000000e+00  -6.7892334082808327e-09 -7.9405593320294229e-07 0.0000000000000000e+00  -6.0262350347891188e-08 -9.4794295701300242e-07 0.0000000000000000e+00  8.9091187490119742e-07 8.8263500779310401e-08 0.0000000000000000e+00  8.8498261512560496e-07 -1.2415997849258359e-07 0.0000000000000000e+00  9.1658831627439337e-07 1.1036325093470464e-07 0.0000000000000000e+00  7.5620381582148731e-07 -2.5001233563002205e-08 0.0000000000000000e+00  8.0114106204975061e-07 1.6839067934822818e-08 0.0000000000000000e+00  7.7925579263646176e-07 5.3525727777691483e-10 0.0000000000000000e+00  7.7858653426497955e-07 -1.9742830117495473e-10 0.0000000000000000e+00  7.7825932005622737e-07 7.9606634252019594e-10 0.0000000000000000e+00  7.8225717381620463e-07 -6.3873189002555793e-09 0.0000000000000000e+00  7.9074258952758243e-07 3.8288979685424947e-09 0.0000000000000000e+00  7.9366948608588954e-07 -6.7466215949529799e-09 0.0000000000000000e+00  7.9190610061299530e-07 1.1927135625030388e-08 0.0000000000000000e+00  7.8424029139644910e-07 -1.2815188129030481e-08 0.0000000000000000e+00  7.8437175431753432e-07 9.1495601201217570e-09 0.0000000000000000e+00  7.9852637997150374e-07 -1.4181805532222639e-08 0.0000000000000000e+00  7.8706409404264158e-07 2.2957984507243438e-08 0.0000000000000000e+00  7.6991534314138546e-07 -3.4242296751668934e-09 0.0000000000000000e+00  7.7873720924409725e-07 -1.1161972883402539e-08 0.0000000000000000e+00  7.6812133910605902e-07 1.6331007045827276e-08 0.0000000000000000e+00  7.7320108424390417e-07 -1.8037042615926239e-08 0.0000000000000000e+00  7.9252917073396122e-07 6.1619824226077529e-09 0.0000000000000000e+00  7.6745743850126345e-07 1.3431703046396566e-08 0.0000000000000000e+00  7.9953492591791148e-07 -3.1934882887487423e-08 0.0000000000000000e+00  8.3282159185029843e-07 -8.1581590685838677e-09 0.0000000000000000e+00  8.3048954336650078e-07 9.0323995286968850e-09 0.0000000000000000e+00  7.9110815209217017e-07 2.1560177924262655e-08 0.0000000000000000e+00  7.5900461640197290e-07 1.0889823888152380e-08 0.0000000000000000e+00  7.4545954344258974e-07 5.6300272317908540e-10 0.0000000000000000e+00  7.4419138344901787e-07 5.8231832054793279e-10 0.0000000000000000e+00  7.4291230416673808e-07 5.8462266638777268e-10 0.0000000000000000e+00  7.4166950789798553e-07 5.8240001324044181e-10 0.0000000000000000e+00  7.4039557113705974e-07 5.9536045491142753e-10 0.0000000000000000e+00  7.4993985312063279e-07 -1.1187572872592924e-08 0.0000000000000000e+00  7.6350015526246905e-07 1.7161872280200819e-09 0.0000000000000000e+00  7.5064705801107377e-07 1.1343705012729199e-08 0.0000000000000000e+00  7.8176577439954482e-07 -3.0649335408586614e-08 0.0000000000000000e+00  8.1379760036425003e-07 -9.7426995872543778e-09 0.0000000000000000e+00  8.4135009764901489e-07 -5.9705923394311126e-09 0.0000000000000000e+00  8.3953126874287955e-07 1.8061132165446255e-08 0.0000000000000000e+00  7.2331586989098198e-07 6.3848277840441578e-10 0.0000000000000000e+00  8.0931373374558262e-07 3.4332603500704505e-08 0.0000000000000000e+00  7.3214842461774817e-07 -9.3626465297024186e-10 0.0000000000000000e+00  7.2806608465996706e-07 1.6834486656965470e-09 0.0000000000000000e+00  7.2753556472429508e-07 3.2878172297345993e-10 0.0000000000000000e+00  7.8126292749340011e-07 -3.0146686197229224e-08 0.0000000000000000e+00  7.9084961325606398e-07 -9.1382196417352814e-09 0.0000000000000000e+00  8.1258934953380108e-07 -1.5818739264704596e-09 0.0000000000000000e+00  8.0346904354199992e-07 7.0377645282898740e-09 0.0000000000000000e+00  7.9962554981558830e-07 6.6691049107116386e-09 0.0000000000000000e+00  7.9827057279346004e-07 -1.4669493853236112e-08 0.0000000000000000e+00  8.2837569333775884e-07 -2.0897301974628758e-09 0.0000000000000000e+00  8.3755763252984810e-07 -1.7535779901092838e-09 0.0000000000000000e+00  8.1784362203871648e-07 5.1517038746538447e-10 0.0000000000000000e+00  8.3210805078159819e-07 4.6080061050273797e-10 0.0000000000000000e+00  8.3862969081566565e-07 -1.4668876492678101e-09 0.0000000000000000e+00  8.1914474659176689e-07 3.6278283542999017e-10 0.0000000000000000e+00  8.3074355375370777e-07 1.3489216161494467e-09 0.0000000000000000e+00  8.2579337417777569e-07 2.6132804131291844e-09 0.0000000000000000e+00  7.8395118123456785e-07 2.4598203580894654e-08 0.0000000000000000e+00  7.6254968987801428e-07 -1.3519465283257502e-10 0.0000000000000000e+00  7.5962145842380776e-07 8.6986571444252756e-09 0.0000000000000000e+00  7.5743972095896647e-07 -1.2076342527885549e-08 0.0000000000000000e+00  7.6380535064019124e-07 -3.4852833659070385e-10 0.0000000000000000e+00  7.7692327871000025e-07 -1.5478320456787740e-10 0.0000000000000000e+00  7.9634088222259525e-07 -2.4112149292710799e-08 0.0000000000000000e+00  8.3831542713475970e-07 -3.9889651010121488e-09 0.0000000000000000e+00  8.5271181612777395e-07 -2.9696286504487829e-09 0.0000000000000000e+00  8.3478721117523875e-07 -1.8996671238968792e-10 0.0000000000000000e+00  8.4678992410214780e-07 3.2625665063036555e-09 0.0000000000000000e+00  8.2224057977575202e-07 1.2178243093452642e-08 0.0000000000000000e+00  7.7369556225381712e-07 2.2500115555223258e-08 0.0000000000000000e+00  7.4913102663062826e-07 3.9302376775219831e-09 0.0000000000000000e+00  7.4665861653132005e-07 -5.5037536398421750e-10 0.0000000000000000e+00  7.4783286870611088e-07 -5.2218280264030263e-10 0.0000000000000000e+00  7.5149320349250184e-07 -1.5736523576278383e-09 0.0000000000000000e+00  7.5935176377556446e-07 -4.9023349041774894e-09 0.0000000000000000e+00  7.8052746468021730e-07 -1.0591157722464317e-08 0.0000000000000000e+00  8.1312668996527042e-07 -2.3791139361535982e-08 0.0000000000000000e+00  8.5282509456056226e-07 -1.1269021837930165e-09 0.0000000000000000e+00  8.3312336756077273e-07 1.1332058808264868e-08 0.0000000000000000e+00  8.0563840425714304e-07 1.4814731707507583e-08 0.0000000000000000e+00  7.9961526355354252e-07 -8.1195793697272915e-09 0.0000000000000000e+00  8.1876725979593603e-07 -1.9215765828920338e-08 0.0000000000000000e+00  8.5359724924180254e-07 1.2029703429302467e-10 0.0000000000000000e+00  8.3842319361525069e-07 1.0652386334637180e-08 0.0000000000000000e+00  8.1083120379146445e-07 8.7018486600886451e-09 0.0000000000000000e+00  7.8030462125568367e-07 1.8328135208613829e-08 0.0000000000000000e+00  7.7123689599650147e-07 -8.1024489223873401e-09 0.0000000000000000e+00  7.7055442381919408e-07 7.4158590539573319e-09 0.0000000000000000e+00  7.6307279756957931e-07 -3.1411840956445456e-10 0.0000000000000000e+00  7.6377887018392696e-07 -3.0458124300011123e-10 0.0000000000000000e+00  7.7746127001665677e-07 -1.1451573138539281e-08 0.0000000000000000e+00  7.7799102691514473e-07 1.0867645794377592e-08 0.0000000000000000e+00  7.6853513695166228e-07 -2.5751059871579174e-09 0.0000000000000000e+00  7.9942611570965044e-07 -1.2111870512113501e-08 0.0000000000000000e+00  8.1376659790732264e-07 -7.0461943097256023e-09 0.0000000000000000e+00  8.2268270692571175e-07 -1.7265640190055884e-08 0.0000000000000000e+00  8.4598339966720939e-07 -3.8023225539970552e-09 0.0000000000000000e+00  1.0389900712972465e-06 -6.0237364436566534e-08 0.0000000000000000e+00  -1.0914019996470305e-07 9.7253575234174423e-07 0.0000000000000000e+00  5.6936845602667035e-08 8.2951514842591755e-07 0.0000000000000000e+00  9.7742106977223595e-10 9.4564889806009966e-07 0.0000000000000000e+00  3.4436089497461533e-08 1.0610738034266986e-06 0.0000000000000000e+00  -1.8720558303012654e-08 9.0028186340372051e-07 0.0000000000000000e+00  -8.8592274000477056e-08 8.9372183756150336e-07 0.0000000000000000e+00  1.3325422292112548e-07 9.1835004205341560e-07 0.0000000000000000e+00  -1.4573219812583305e-07 9.2404191460498298e-07 0.0000000000000000e+00  1.1879025896689441e-08 7.0559415865102513e-07 0.0000000000000000e+00  7.6628881573271034e-09 7.6064001740005723e-07 0.0000000000000000e+00  -1.2288950317367326e-08 7.7657144952695125e-07 0.0000000000000000e+00  -1.1700073479540377e-08 7.5052072603680142e-07 0.0000000000000000e+00  -3.3893206843919973e-08 6.6070336059133995e-07 0.0000000000000000e+00  5.6614879778452282e-08 6.9365549411491796e-07 0.0000000000000000e+00  9.6699395048974904e-10 7.8929877683126153e-07 0.0000000000000000e+00  -1.9132229352939226e-09 7.7918170099260635e-07 0.0000000000000000e+00  -1.5574745969715803e-09 7.7288273736570997e-07 0.0000000000000000e+00  2.0527494644057331e-09 7.7570993246160783e-07 0.0000000000000000e+00  -1.3887333866495740e-09 7.8563215876383390e-07 0.0000000000000000e+00  -5.6577298131510481e-08 6.9289891699282654e-07 0.0000000000000000e+00  4.2231822022090480e-08 6.7372072229534271e-07 0.0000000000000000e+00  -3.9192774502105805e-09 7.4393204646787218e-07 0.0000000000000000e+00  9.0623770039284294e-09 7.4902748077855700e-07 0.0000000000000000e+00  -9.1323379224065283e-09 7.4567758992278483e-07 0.0000000000000000e+00  -2.7945492889853680e-08 6.6904258869149820e-07 0.0000000000000000e+00  1.1955064991470173e-07 8.0522090909267353e-07 0.0000000000000000e+00  -1.0526907642445528e-07 8.2911474291679134e-07 0.0000000000000000e+00  7.3664175018047615e-08 7.6116343283349739e-07 0.0000000000000000e+00  4.2010096439085754e-09 9.1555198960997085e-07 0.0000000000000000e+00  3.5090073366296889e-08 1.0314880429885120e-06 0.0000000000000000e+00  -2.3487866501420313e-08 8.7740830227818203e-07 0.0000000000000000e+00  -9.2640661974746275e-08 8.5035939378389778e-07 0.0000000000000000e+00  9.5876683456539397e-08 8.3149620248443539e-07 0.0000000000000000e+00  -1.2895516753940467e-07 7.8770425103404856e-07 0.0000000000000000e+00  4.2006826122404696e-08 6.5341797816225568e-07 0.0000000000000000e+00  -1.0575117417329005e-08 7.2409732670702541e-07 0.0000000000000000e+00  1.3438497047484132e-08 7.3294122754941516e-07 0.0000000000000000e+00  -3.7103695457893191e-09 7.4355428105124044e-07 0.0000000000000000e+00  -3.0059871319556892e-10 7.3724756598429492e-07 0.0000000000000000e+00  -2.8393595916346682e-10 7.3661647302367013e-07 0.0000000000000000e+00  -5.1357657415398009e-08 7.0687458462350189e-07 0.0000000000000000e+00  4.4413503277256291e-08 6.6293904176915578e-07 0.0000000000000000e+00  -1.5580033581835294e-09 7.4201602015565717e-07 0.0000000000000000e+00  2.8273173633077980e-08 7.6267178506593776e-07 0.0000000000000000e+00  -9.9451412996364320e-09 8.0442822268037802e-07 0.0000000000000000e+00  -7.1038206602877695e-08 6.7256972542635139e-07 0.0000000000000000e+00  6.8361960849389844e-08 6.6915250791375084e-07 0.0000000000000000e+00  2.5220588342033518e-08 8.0804276927529657e-07 0.0000000000000000e+00  8.6177028927391188e-10 8.3103215601165595e-07 0.0000000000000000e+00  5.5234564405091745e-09 8.4903600076251217e-07 0.0000000000000000e+00  -8.5807918424991122e-08 7.2112319680588349e-07 0.0000000000000000e+00  6.3539837999215058e-08 6.9321942849494798e-07 0.0000000000000000e+00  2.2515958280049971e-08 8.2687170391124474e-07 0.0000000000000000e+00  6.8356566633171576e-09 8.5942233957988576e-07 0.0000000000000000e+00  -1.1792924256960832e-08 8.5304331875689862e-07 0.0000000000000000e+00  -5.8360489678581892e-08 7.0929824294136416e-07 0.0000000000000000e+00  1.1950356480996519e-07 8.1932376439937302e-07 0.0000000000000000e+00  -1.0425692466649901e-07 8.4247462521304757e-07 0.0000000000000000e+00  8.6714054639055974e-08 8.3065479171578229e-07 0.0000000000000000e+00  -1.2886478860301039e-07 7.6931628135399377e-07 0.0000000000000000e+00  4.4412531351500549e-08 6.3535863599521879e-07 0.0000000000000000e+00  5.4438196344111711e-09 7.4374636312359938e-07 0.0000000000000000e+00  1.2060660867840499e-09 7.5113266189438748e-07 0.0000000000000000e+00  -5.6096454450824003e-09 7.4609621304868583e-07 0.0000000000000000e+00  1.2389039811238422e-09 7.4082453574141463e-07 0.0000000000000000e+00  -4.9424416759676064e-10 7.4253537198726600e-07 0.0000000000000000e+00  5.9606123346331027e-09 7.4823112172758035e-07 0.0000000000000000e+00  2.5815682142182906e-08 7.8500328019042141e-07 0.0000000000000000e+00  -8.8141083682591246e-09 8.1498943659808640e-07 0.0000000000000000e+00  -7.0081463847905672e-08 6.9229019921986841e-07 0.0000000000000000e+00  5.4005167016333849e-08 6.9744106843261931e-07 0.0000000000000000e+00  4.2923148478276466e-10 7.4659832696524237e-07 0.0000000000000000e+00  3.1052934197092979e-08 7.7537879704800334e-07 0.0000000000000000e+00  -1.1915309531469228e-09 8.2834319503852493e-07 0.0000000000000000e+00  -1.9083879621347290e-08 7.9533193995392274e-07 0.0000000000000000e+00  -9.7390849816979963e-09 7.6178156948535391e-07 0.0000000000000000e+00  -4.0063592188361926e-08 6.9209379700163833e-07 0.0000000000000000e+00  1.0997073127907907e-07 7.9362958683286788e-07