<?xml version="1.0"?>
<VTKFile type="UnstructuredGrid"  version="0.1"  >
<UnstructuredGrid>
<Piece  NumberOfPoints="11902" NumberOfCells="23402">
<Points>
<DataArray  type="Float64"  NumberOfComponents="3"  format="ascii">-5 -5 0  5 -5 0  5 5 0  -5 5 0  1.219377744119727 0.001359680822794248 0  -4.9 -5 0  -4.8 -5 0  -4.7 -5 0  -4.6 -5 0  -4.5 -5 0  -4.4 -5 0  -4.3 -5 0  -4.2 -5 0  -4.1 -5 0  -4 -5 0  -3.9 -5 0  -3.8 -5 0  -3.7 -5 0  -3.6 -5 0  -3.5 -5 0  -3.4 -5 0  -3.3 -5 0  -3.2 -5 0  -3.1 -5 0  -3 -5 0  -2.9 -5 0  -2.8 -5 0  -2.7 -5 0  -2.6 -5 0  -2.5 -5 0  -2.4 -5 0  -2.3 -5 0  -2.2 -5 0  -2.1 -5 0  -2 -5 0  -1.9 -5 0  -1.8 -5 0  -1.7 -5 0  -1.6 -5 0  -1.5 -5 0  -1.4 -5 0  -1.3 -5 0  -1.2 -5 0  -1.1 -5 0  -1 -5 0  -0.9000000000000004 -5 0  -0.7999999999999998 -5 0  -0.7000000000000002 -5 0  -0.5999999999999996 -5 0  -0.5 -5 0  -0.4000000000000004 -5 0  -0.2999999999999998 -5 0  -0.2000000000000002 -5 0  -0.09999999999999964 -5 0  0 -5 0  0.09999999999999964 -5 0  0.2000000000000002 -5 0  0.2999999999999998 -5 0  0.4000000000000004 -5 0  0.5 -5 0  0.5999999999999996 -5 0  0.7000000000000002 -5 0  0.7999999999999998 -5 0  0.9000000000000004 -5 0  1 -5 0  1.1 -5 0  1.2 -5 0  1.3 -5 0  1.4 -5 0  1.5 -5 0  1.6 -5 0  1.7 -5 0  1.8 -5 0  1.9 -5 0  2 -5 0  2.1 -5 0  2.2 -5 0  2.3 -5 0  2.4 -5 0  2.5 -5 0  2.6 -5 0  2.7 -5 0  2.8 -5 0  2.9 -5 0  3 -5 0  3.1 -5 0  3.199999999999999 -5 0  3.300000000000001 -5 0  3.4 -5 0  3.5 -5 0  3.6 -5 0  3.699999999999999 -5 0  3.800000000000001 -5 0  3.9 -5 0  4 -5 0  4.1 -5 0  4.199999999999999 -5 0  4.300000000000001 -5 0  4.4 -5 0  4.5 -5 0  4.6 -5 0  4.699999999999999 -5 0  4.800000000000001 -5 0  4.9 -5 0  5 -4.9 0  5 -4.8 0  5 -4.7 0  5 -4.6 0  5 -4.5 0  5 -4.4 0  5 -4.3 0  5 -4.2 0  5 -4.1 0  5 -4 0  5 -3.9 0  5 -3.8 0  5 -3.7 0  5 -3.6 0  5 -3.5 0  5 -3.4 0  5 -3.3 0  5 -3.2 0  5 -3.1 0  5 -3 0  5 -2.9 0  5 -2.8 0  5 -2.7 0  5 -2.6 0  5 -2.5 0  5 -2.4 0  5 -2.3 0  5 -2.2 0  5 -2.1 0  5 -2 0  5 -1.9 0  5 -1.8 0  5 -1.7 0  5 -1.6 0  5 -1.5 0  5 -1.4 0  5 -1.3 0  5 -1.2 0  5 -1.1 0  5 -1 0  5 -0.9000000000000004 0  5 -0.7999999999999998 0  5 -0.7000000000000002 0  5 -0.5999999999999996 0  5 -0.5 0  5 -0.4000000000000004 0  5 -0.2999999999999998 0  5 -0.2000000000000002 0  5 -0.09999999999999964 0  5 0 0  5 0.09999999999999964 0  5 0.2000000000000002 0  5 0.2999999999999998 0  5 0.4000000000000004 0  5 0.5 0  5 0.5999999999999996 0  5 0.7000000000000002 0  5 0.7999999999999998 0  5 0.9000000000000004 0  5 1 0  5 1.1 0  5 1.2 0  5 1.3 0  5 1.4 0  5 1.5 0  5 1.6 0  5 1.7 0  5 1.8 0  5 1.9 0  5 2 0  5 2.1 0  5 2.2 0  5 2.3 0  5 2.4 0  5 2.5 0  5 2.6 0  5 2.7 0  5 2.8 0  5 2.9 0  5 3 0  5 3.1 0  5 3.199999999999999 0  5 3.300000000000001 0  5 3.4 0  5 3.5 0  5 3.6 0  5 3.699999999999999 0  5 3.800000000000001 0  5 3.9 0  5 4 0  5 4.1 0  5 4.199999999999999 0  5 4.300000000000001 0  5 4.4 0  5 4.5 0  5 4.6 0  5 4.699999999999999 0  5 4.800000000000001 0  5 4.9 0  4.9 5 0  4.8 5 0  4.7 5 0  4.6 5 0  4.5 5 0  4.4 5 0  4.3 5 0  4.2 5 0  4.1 5 0  4 5 0  3.9 5 0  3.8 5 0  3.7 5 0  3.6 5 0  3.5 5 0  3.4 5 0  3.3 5 0  3.2 5 0  3.1 5 0  3 5 0  2.9 5 0  2.8 5 0  2.7 5 0  2.6 5 0  2.5 5 0  2.4 5 0  2.3 5 0  2.2 5 0  2.1 5 0  2 5 0  1.9 5 0  1.8 5 0  1.7 5 0  1.6 5 0  1.5 5 0  1.4 5 0  1.3 5 0  1.2 5 0  1.1 5 0  1 5 0  0.9000000000000004 5 0  0.7999999999999998 5 0  0.7000000000000002 5 0  0.5999999999999996 5 0  0.5 5 0  0.4000000000000004 5 0  0.2999999999999998 5 0  0.2000000000000002 5 0  0.09999999999999964 5 0  0 5 0  -0.09999999999999964 5 0  -0.2000000000000002 5 0  -0.2999999999999998 5 0  -0.4000000000000004 5 0  -0.5 5 0  -0.5999999999999996 5 0  -0.7000000000000002 5 0  -0.7999999999999998 5 0  -0.9000000000000004 5 0  -1 5 0  -1.1 5 0  -1.2 5 0  -1.3 5 0  -1.4 5 0  -1.5 5 0  -1.6 5 0  -1.7 5 0  -1.8 5 0  -1.9 5 0  -2 5 0  -2.1 5 0  -2.2 5 0  -2.3 5 0  -2.4 5 0  -2.5 5 0  -2.6 5 0  -2.7 5 0  -2.8 5 0  -2.9 5 0  -3 5 0  -3.1 5 0  -3.199999999999999 5 0  -3.300000000000001 5 0  -3.4 5 0  -3.5 5 0  -3.6 5 0  -3.699999999999999 5 0  -3.800000000000001 5 0  -3.9 5 0  -4 5 0  -4.1 5 0  -4.199999999999999 5 0  -4.300000000000001 5 0  -4.4 5 0  -4.5 5 0  -4.6 5 0  -4.699999999999999 5 0  -4.800000000000001 5 0  -4.9 5 0  -5 4.9 0  -5 4.8 0  -5 4.7 0  -5 4.6 0  -5 4.5 0  -5 4.4 0  -5 4.3 0  -5 4.2 0  -5 4.1 0  -5 4 0  -5 3.9 0  -5 3.8 0  -5 3.7 0  -5 3.6 0  -5 3.5 0  -5 3.4 0  -5 3.3 0  -5 3.2 0  -5 3.1 0  -5 3 0  -5 2.9 0  -5 2.8 0  -5 2.7 0  -5 2.6 0  -5 2.5 0  -5 2.4 0  -5 2.3 0  -5 2.2 0  -5 2.1 0  -5 2 0  -5 1.9 0  -5 1.8 0  -5 1.7 0  -5 1.6 0  -5 1.5 0  -5 1.4 0  -5 1.3 0  -5 1.2 0  -5 1.1 0  -5 1 0  -5 0.9000000000000004 0  -5 0.7999999999999998 0  -5 0.7000000000000002 0  -5 0.5999999999999996 0  -5 0.5 0  -5 0.4000000000000004 0  -5 0.2999999999999998 0  -5 0.2000000000000002 0  -5 0.09999999999999964 0  -5 0 0  -5 -0.09999999999999964 0  -5 -0.2000000000000002 0  -5 -0.2999999999999998 0  -5 -0.4000000000000004 0  -5 -0.5 0  -5 -0.5999999999999996 0  -5 -0.7000000000000002 0  -5 -0.7999999999999998 0  -5 -0.9000000000000004 0  -5 -1 0  -5 -1.1 0  -5 -1.2 0  -5 -1.3 0  -5 -1.4 0  -5 -1.5 0  -5 -1.6 0  -5 -1.7 0  -5 -1.8 0  -5 -1.9 0  -5 -2 0  -5 -2.1 0  -5 -2.2 0  -5 -2.3 0  -5 -2.4 0  -5 -2.5 0  -5 -2.6 0  -5 -2.7 0  -5 -2.8 0  -5 -2.9 0  -5 -3 0  -5 -3.1 0  -5 -3.199999999999999 0  -5 -3.300000000000001 0  -5 -3.4 0  -5 -3.5 0  -5 -3.6 0  -5 -3.699999999999999 0  -5 -3.800000000000001 0  -5 -3.9 0  -5 -4 0  -5 -4.1 0  -5 -4.199999999999999 0  -5 -4.300000000000001 0  -5 -4.4 0  -5 -4.5 0  -5 -4.6 0  -5 -4.699999999999999 0  -5 -4.800000000000001 0  -5 -4.9 0  1.213049485652238 0.09824814526079043 0  1.193622390150938 0.1959192107354325 0  1.161469934703601 0.2928746450786939 0  1.120029947587661 0.3836564756723693 0  1.065848137503679 0.4741961622601688 0  1.002469840009638 0.5591344115430754 0  0.927831839865716 0.6389068905186895 0  0.8440987458898023 0.7119513614798078 0  0.7535606056792669 0.7774261425659239 0  0.6541271909378022 0.8356605577246222 0  0.5474235935408569 0.8870686276397387 0  0.4372469240188152 0.9293766110683289 0  0.3250207581904224 0.9622594589607825 0  0.2060179326329342 0.9844793903167767 0  0.08914592134002945 1.000293411502865 0  -0.02771611700876457 1.003164685673685 0  -0.1449577952850426 0.9923231129138521 0  -0.2653963097411879 0.9743591411624313 0  -0.3815701719248064 0.9486471837216264 0  -0.4918659183854556 0.9122247221277585 0  -0.5979947166145348 0.8663570766371461 0  -0.6988288059451871 0.8117167138179331 0  -0.7922338459549377 0.7483102593937462 0  -0.8797996141811075 0.6771261730737225 0  -0.9604848533982911 0.5987356511220608 0  -1.030428589403303 0.5167364387554031 0  -1.090403373488741 0.4301647833808373 0  -1.139175973967927 0.3383913848293111 0  -1.175609866120132 0.2451773140345239 0  -1.199862381938344 0.1493683748514116 0  -1.212061386071782 0.05071454055921057 0  -1.212036170988327 -0.04876453930483869 0  -1.199742972009627 -0.1469935911258183 0  -1.176040719084408 -0.2427121343007244 0  -1.138263526080609 -0.3381753234531046 0  -1.090699855692507 -0.4291752035091282 0  -1.031556892244147 -0.5160041117878509 0  -0.9622855861338664 -0.5974858331416594 0  -0.8820766349678024 -0.6746183405384472 0  -0.7943262198262213 -0.7445533913473895 0  -0.6993884716670703 -0.8056692128970808 0  -0.5979795450365455 -0.8597074287692062 0  -0.4886366753936611 -0.9073347610752905 0  -0.3773993732431555 -0.9457034534475868 0  -0.2622414040066088 -0.9732743117395519 0  -0.1435808376164106 -0.9915787096436689 0  -0.02764211603780128 -1.00223703984886 0  0.08967446105148776 -0.9970244273194776 0  0.2095591376458592 -0.9819177602726957 0  0.3269633231073532 -0.9605983624648555 0  0.4409842750441085 -0.9279676606052415 0  0.5493523106995641 -0.8861390681963363 0  0.6549231124302013 -0.8354369360914738 0  0.7536804919850733 -0.7785283580887998 0  0.8441424291205863 -0.7127791519297073 0  0.9272816584347409 -0.6384563863964405 0  1.000719253289586 -0.5585007094489557 0  1.065673693163349 -0.4735191024415469 0  1.121014891410641 -0.3837018409165297 0  1.163013520593333 -0.2911746032182806 0  1.193985121970817 -0.1950399023269663 0  1.213112132717059 -0.09778790790694518 0  -2.448700641362552 4.918369911254153 0  -2.448587664872335 -4.910771515087029 0  4.910702057545268 2.448091608219353 0  4.918802781506826 -2.449535327258551 0  2.446341949696149 -4.896051024272494 0  2.4407698671427 4.899803512133103 0  -4.910726950728268 -2.448115956989036 0  -4.910724813330757 2.448119856433566 0  -1.748660548839516 4.91137196666749 0  -1.744441157053012 -4.914799170865266 0  4.920953419370213 1.744247872941284 0  4.909531941706827 -1.748035031583012 0  -4.909821996558377 -1.747766355970697 0  -4.91064157909893 1.747509143747115 0  1.745942527829448 4.905255707982595 0  1.747373904499536 -4.893446424485504 0  -1.148942278369456 4.909232194836425 0  -1.129787966689928 -4.917112661799287 0  -4.909633544464717 -1.148059476214114 0  -4.909453258453603 1.147859750584614 0  1.143930236625455 -4.913313823251938 0  1.148950664167893 4.909219895949938 0  4.909777223763372 1.146335924483444 0  4.920554961565895 -1.152102592494624 0  -0.5467219550110862 -4.910459294005941 0  -0.546498106734673 4.919103250009188 0  -4.908441725210766 -0.5487817371919562 0  -4.908465959075381 0.5473385969617163 0  4.907769615219938 -0.5491013790027039 0  4.919362556290835 0.5458488240905572 0  0.5425088540111483 -4.897400961917265 0  0.551228010077058 4.915941150029006 0  -4.912064994272175 -3.048440354915135 0  4.918624725084396 3.046446868851212 0  4.911574642657524 -3.04841832243542 0  -4.912911972291516 3.045530655473317 0  3.055412396264412 -4.917555897019737 0  -3.048751159243529 -4.91150365629329 0  3.052315975579527 4.913577870791446 0  -3.04819644718842 4.912391572318361 0  -4.907578104965256 -0.0499150033807387 0  0.04512338686657623 -4.912413349489212 0  0.04957092049980705 4.919406951860114 0  4.914597840682835 -0.05129665720723712 0  3.545706591737624 -4.919147655124605 0  -3.548995300
[...]
<PointData  Vectors="f_2816"> 
<DataArray  type="Float64"  Name="f_2816"  NumberOfComponents="3" format="ascii">-4.5502568830167920e-07 -4.5504511638648457e-07 0.0000000000000000e+00  4.5502317586919883e-07 -4.5504317178552289e-07 0.0000000000000000e+00  5.0297905833453952e-07 5.0299326468430036e-07 0.0000000000000000e+00  -4.5502510225332827e-07 4.5504429134901212e-07 0.0000000000000000e+00  -3.2809625451324814e-01 -6.1848544718416006e-03 0.0000000000000000e+00  9.1252119533807929e-08 -9.0576308771056250e-07 0.0000000000000000e+00  -1.0648850871532847e-07 -8.5956848819794528e-07 0.0000000000000000e+00  1.0483998627968396e-07 -8.7253545772973211e-07 0.0000000000000000e+00  -9.1287122190390515e-08 -8.7980967202860067e-07 0.0000000000000000e+00  -2.1120960147716837e-08 -9.0366185792353108e-07 0.0000000000000000e+00  3.5971381522073526e-08 -1.0603645638962713e-06 0.0000000000000000e+00  6.1418226898780202e-09 -9.3533851806611953e-07 0.0000000000000000e+00  7.3543760524772370e-08 -7.7803658416136628e-07 0.0000000000000000e+00  -1.0494234988804447e-07 -8.4334716948735496e-07 0.0000000000000000e+00  1.2034644224759091e-07 -8.2399603750086370e-07 0.0000000000000000e+00  -2.6510181431832761e-08 -6.7875578984382830e-07 0.0000000000000000e+00  -5.2750752497826906e-09 -7.5045055218965093e-07 0.0000000000000000e+00  -1.2898608058526743e-08 -7.6459420401915840e-07 0.0000000000000000e+00  1.0468828194355201e-08 -7.7328699278776203e-07 0.0000000000000000e+00  4.0264429901341620e-10 -7.5742736618671825e-07 0.0000000000000000e+00  4.1419442647649171e-10 -7.5651237119365689e-07 0.0000000000000000e+00  5.0623749776539060e-08 -7.2250604156854002e-07 0.0000000000000000e+00  -4.4438907579915547e-08 -6.8374393003477178e-07 0.0000000000000000e+00  4.3606545251145923e-10 -7.5366802769360398e-07 0.0000000000000000e+00  4.0028160105587598e-08 -6.5702320828869491e-07 0.0000000000000000e+00  -1.2836844630198435e-07 -8.0096224729512533e-07 0.0000000000000000e+00  9.7453396133885733e-08 -8.4351341609329000e-07 0.0000000000000000e+00  -9.4147052798985195e-08 -8.4214478633054189e-07 0.0000000000000000e+00  1.2516020897979928e-07 -7.9323702373026917e-07 0.0000000000000000e+00  -3.7767668634348915e-08 -6.4118889192368428e-07 0.0000000000000000e+00  4.6512387962200458e-10 -7.4659411731609673e-07 0.0000000000000000e+00  3.5722586596843464e-08 -6.7876214688064668e-07 0.0000000000000000e+00  -1.2107990711788941e-07 -8.0239838038765012e-07 0.0000000000000000e+00  1.0039848357305911e-07 -8.3718006880903782e-07 0.0000000000000000e+00  -9.4828083355714918e-08 -8.5676531146524539e-07 0.0000000000000000e+00  1.1916401594554804e-09 -8.5824367716831861e-07 0.0000000000000000e+00  6.7965898744911520e-08 -9.6339572237107487e-07 0.0000000000000000e+00  1.1589306705540471e-08 -7.8166496878056071e-07 0.0000000000000000e+00  8.0529453064884545e-09 -7.5297568362112716e-07 0.0000000000000000e+00  7.3712035521276953e-10 -7.3814943364622265e-07 0.0000000000000000e+00  1.0050183630345445e-08 -7.1587928289411444e-07 0.0000000000000000e+00  4.0708959189737002e-08 -6.2790989241369782e-07 0.0000000000000000e+00  -7.9898985663423248e-08 -6.6813772668363908e-07 0.0000000000000000e+00  -8.9098662623489452e-08 -9.4993062849610681e-07 0.0000000000000000e+00  9.8057800023570577e-08 -9.4694264610584259e-07 0.0000000000000000e+00  5.2355444938957850e-08 -6.9022192332004429e-07 0.0000000000000000e+00  -9.5518232536891824e-08 -8.1288426517153145e-07 0.0000000000000000e+00  -1.0630003386311763e-08 -7.4037875845554021e-07 0.0000000000000000e+00  5.8146581152357894e-08 -9.0009935067556917e-07 0.0000000000000000e+00  1.9022909059033576e-09 -7.4581017818974575e-07 0.0000000000000000e+00  4.6123675378864055e-09 -7.4294709074435058e-07 0.0000000000000000e+00  1.1000190371710278e-10 -7.3060285750628274e-07 0.0000000000000000e+00  -3.4692800460950030e-10 -7.3140553920767657e-07 0.0000000000000000e+00  -1.8506810296608327e-09 -7.3573934646166123e-07 0.0000000000000000e+00  -1.2201028053279842e-08 -7.6414883805117756e-07 0.0000000000000000e+00  -7.2728050719748523e-08 -9.4610576817172714e-07 0.0000000000000000e+00  7.7262835635460481e-09 -8.2018878673216086e-07 0.0000000000000000e+00  9.1606076271164010e-08 -8.1172296555939843e-07 0.0000000000000000e+00  -1.0605209133528178e-07 -8.0452147661704578e-07 0.0000000000000000e+00  1.1977332348903029e-07 -7.8724129348661474e-07 0.0000000000000000e+00  -2.8009017419915239e-08 -6.5264513676774065e-07 0.0000000000000000e+00  -9.4738963246547478e-09 -7.2833485577329936e-07 0.0000000000000000e+00  -6.7458924249907394e-09 -7.3969438367999481e-07 0.0000000000000000e+00  5.1388814508802128e-09 -7.4136127656510919e-07 0.0000000000000000e+00  -5.2200550548198441e-09 -7.4465648487843474e-07 0.0000000000000000e+00  -1.0185733738710821e-08 -7.7498356291460095e-07 0.0000000000000000e+00  4.7498729681498427e-08 -7.0366842981773711e-07 0.0000000000000000e+00  -8.6988574229192956e-08 -7.5261043830258999e-07 0.0000000000000000e+00  1.2930573975125675e-08 -8.6302188096310611e-07 0.0000000000000000e+00  5.7769640309393486e-09 -8.2711019146705185e-07 0.0000000000000000e+00  1.5531433106207494e-08 -8.2015232428582244e-07 0.0000000000000000e+00  7.2528408129963306e-08 -6.8011990564145472e-07 0.0000000000000000e+00  -6.8446374760578130e-08 -6.7830731469328724e-07 0.0000000000000000e+00  -1.4769919292613980e-08 -8.0226638300996265e-07 0.0000000000000000e+00  2.7464982329061159e-08 -7.8371132557109006e-07 0.0000000000000000e+00  1.6715491522438443e-09 -7.5021012589600164e-07 0.0000000000000000e+00  -4.1781828329712982e-11 -7.4555195118305768e-07 0.0000000000000000e+00  -5.7421914724817053e-09 -7.6920869376939736e-07 0.0000000000000000e+00  5.3457950008789534e-08 -6.8259510551873014e-07 0.0000000000000000e+00  -3.3546584599579659e-08 -6.5522496941852527e-07 0.0000000000000000e+00  -1.6717391037324314e-08 -7.4207299348785459e-07 0.0000000000000000e+00  -4.3828522648083571e-08 -8.0199628485868111e-07 0.0000000000000000e+00  -6.4013637144683458e-09 -8.7376669573569068e-07 0.0000000000000000e+00  8.5678506712416321e-08 -7.4143369138915778e-07 0.0000000000000000e+00  -6.2502823735564530e-08 -7.1326323223903423e-07 0.0000000000000000e+00  -4.9063282842670924e-09 -8.2496936893748399e-07 0.0000000000000000e+00  4.1356199080329928e-08 -7.8290786747043596e-07 0.0000000000000000e+00  -1.9137663927790806e-08 -7.5362726359987252e-07 0.0000000000000000e+00  -2.5456038440058596e-08 -7.9226497004818601e-07 0.0000000000000000e+00  2.8717723243905315e-09 -8.4818944196498060e-07 0.0000000000000000e+00  7.4909351040011403e-08 -7.1288903028441567e-07 0.0000000000000000e+00  -7.3200859510275133e-08 -7.1140244958335241e-07 0.0000000000000000e+00  -8.2610309179959117e-09 -8.4200350148146024e-07 0.0000000000000000e+00  3.3206933341097901e-08 -8.0750528364881972e-07 0.0000000000000000e+00  1.5910997360693368e-08 -7.4354873128089075e-07 0.0000000000000000e+00  -1.2497080654559674e-08 -7.3855302035538247e-07 0.0000000000000000e+00  -7.0191276920547987e-09 -7.7582762960538166e-07 0.0000000000000000e+00  5.2139693392256392e-08 -6.9471184267574623e-07 0.0000000000000000e+00  -6.5889114625162545e-08 -7.0754236093792459e-07 0.0000000000000000e+00  -1.8773078383838695e-08 -8.3913516974524980e-07 0.0000000000000000e+00  2.8323676972124174e-08 -8.1728097057640740e-07 0.0000000000000000e+00  3.2371093959445614e-09 -7.7954202131232696e-07 0.0000000000000000e+00  -6.8167537187002872e-09 -7.9390051640820837e-07 0.0000000000000000e+00  -6.0288009161078399e-08 -9.4784761303146948e-07 0.0000000000000000e+00  8.9082868659268313e-07 8.8283223097359647e-08 0.0000000000000000e+00  8.8480768151337460e-07 -1.2412962013033755e-07 0.0000000000000000e+00  9.1639016578445143e-07 1.1038109533866729e-07 0.0000000000000000e+00  7.5594106214890492e-07 -2.4974442445552894e-08 0.0000000000000000e+00  8.0082244278691003e-07 1.6863531134113430e-08 0.0000000000000000e+00  7.7887808674290866e-07 5.6135431568879683e-10 0.0000000000000000e+00  7.7814714516183637e-07 -1.7067410217725751e-10 0.0000000000000000e+00  7.7775772505626740e-07 8.2347188386084933e-10 0.0000000000000000e+00  7.8168256885685625e-07 -6.3586424260301060e-09 0.0000000000000000e+00  7.9010260748386164e-07 3.8578422269764971e-09 0.0000000000000000e+00  7.9294776735826234e-07 -6.7161136084509025e-09 0.0000000000000000e+00  7.9113165862802432e-07 1.1957471525557468e-08 0.0000000000000000e+00  7.8337290102703797e-07 -1.2781952064312061e-08 0.0000000000000000e+00  7.8345099812104420e-07 9.1826107043461428e-09 0.0000000000000000e+00  7.9748104313135812e-07 -1.4146166755501157e-08 0.0000000000000000e+00  7.8599664362635606e-07 2.2992811595302275e-08 0.0000000000000000e+00  7.6875304349316415e-07 -3.3864396107368333e-09 0.0000000000000000e+00  7.7746168921760659e-07 -1.1122274109381705e-08 0.0000000000000000e+00  7.6681217819744977e-07 1.6370669404199065e-08 0.0000000000000000e+00  7.7173684138039813e-07 -1.7994289985411937e-08 0.0000000000000000e+00  7.9096777080587583e-07 6.2051743826486336e-09 0.0000000000000000e+00  7.6585730386138292e-07 1.3476021570259960e-08 0.0000000000000000e+00  7.9768365337448576e-07 -3.1887457501750809e-08 0.0000000000000000e+00  8.3082068884757677e-07 -8.1102087823996727e-09 0.0000000000000000e+00  8.2840643925976811e-07 9.0812773411072082e-09 0.0000000000000000e+00  7.8903131702451417e-07 2.1610190696216290e-08 0.0000000000000000e+00  7.5688058005709105e-07 1.0941274728357259e-08 0.0000000000000000e+00  7.4324088735072756e-07 6.1548768335622032e-10 0.0000000000000000e+00  7.4186155668134243e-07 6.3557315537349624e-10 0.0000000000000000e+00  7.4047036951489770e-07 6.3848137498803036e-10 0.0000000000000000e+00  7.3911482856051373e-07 6.3664202079760300e-10 0.0000000000000000e+00  7.3772831259935802e-07 6.4971457621112025e-10 0.0000000000000000e+00  7.4709810364009222e-07 -1.1133853433426834e-08 0.0000000000000000e+00  7.6051136579918024e-07 1.7699748123312849e-09 0.0000000000000000e+00  7.4760945812768286e-07 1.1397161804806801e-08 0.0000000000000000e+00  7.7840890418805713e-07 -3.0599440760169668e-08 0.0000000000000000e+00  8.1022173159069255e-07 -9.6930829938483069e-09 0.0000000000000000e+00  8.3753883705884802e-07 -5.9225266949457403e-09 0.0000000000000000e+00  8.3564829130971637e-07 1.8108764507680431e-08 0.0000000000000000e+00  7.1986643149918762e-07 6.8206061320837557e-10 0.0000000000000000e+00  8.0538255362405414e-07 3.4377254288344056e-08 0.0000000000000000e+00  7.2847591338334770e-07 -8.9927824602102683e-10 0.0000000000000000e+00  7.2434371598856873e-07 1.7170001176328799e-09 0.0000000000000000e+00  7.2374880569838222e-07 3.5804879386802208e-10 0.0000000000000000e+00  7.7710642455551380e-07 -3.0125834493526018e-08 0.0000000000000000e+00  7.8661281336896873e-07 -9.1191163005210306e-09 0.0000000000000000e+00  8.0819735184705166e-07 -1.5666556876431272e-09 0.0000000000000000e+00  7.9910032404702855e-07 7.0491294242702442e-09 0.0000000000000000e+00  7.9525706193113572e-07 6.6753295157864734e-09 0.0000000000000000e+00  7.9390405346087594e-07 -1.4671539855795274e-08 0.0000000000000000e+00  8.2384806088207376e-07 -2.0952346529312397e-09 0.0000000000000000e+00  8.3299771378763706e-07 -1.7639966203626165e-09 0.0000000000000000e+00  8.1342427948054222e-07 5.0005105175457092e-10 0.0000000000000000e+00  8.2765136848049587e-07 4.4072360933104235e-10 0.0000000000000000e+00  8.3419297879384969e-07 -1.4917468001408090e-09 0.0000000000000000e+00  8.1487692252177648e-07 3.3377211373278307e-10 0.0000000000000000e+00  8.2648693646873711e-07 1.3158531225709675e-09 0.0000000000000000e+00  8.2164448676164717e-07 2.5766809473433942e-09 0.0000000000000000e+00  7.8007379214111586e-07 2.4560564762591052e-08 0.0000000000000000e+00  7.5890140834980849e-07 -1.7860812345523595e-10 0.0000000000000000e+00  7.5607182773616505e-07 8.6533574471653319e-09 0.0000000000000000e+00  7.5403650336314342e-07 -1.2125771806014055e-08 0.0000000000000000e+00  7.6046440255309663e-07 -3.9883611274912782e-10 0.0000000000000000e+00  7.7363850607050291e-07 -2.0659553211844205e-10 0.0000000000000000e+00  7.9313772973534259e-07 -2.4166415977403020e-08 0.0000000000000000e+00  8.3503515192836926e-07 -4.0429606856206736e-09 0.0000000000000000e+00  8.4950724325678904e-07 -3.0239420434520383e-09 0.0000000000000000e+00  8.3177773753299776e-07 -2.4424065548431683e-10 0.0000000000000000e+00  8.4386435561356521e-07 3.2085369329155998e-09 0.0000000000000000e+00  8.1951251584856558e-07 1.2124647704119220e-08 0.0000000000000000e+00  7.7122827853284376e-07 2.2447134424068288e-08 0.0000000000000000e+00  7.4689116478970038e-07 3.8778739260596051e-09 0.0000000000000000e+00  7.4454793787103168e-07 -6.0179038661820992e-10 0.0000000000000000e+00  7.4583038156675166e-07 -5.7254865923233863e-10 0.0000000000000000e+00  7.4959257882611723e-07 -1.6228187777658641e-09 0.0000000000000000e+00  7.5754544169318173e-07 -4.9500697826065494e-09 0.0000000000000000e+00  7.7878904147972983e-07 -1.0637275322478317e-08 0.0000000000000000e+00  8.1144637847352050e-07 -2.3835361241371661e-08 0.0000000000000000e+00  8.5113602212874563e-07 -1.1704111779723278e-09 0.0000000000000000e+00  8.3155856293723374e-07 1.1289570706236026e-08 0.0000000000000000e+00  8.0421796346840817e-07 1.4773517324714599e-08 0.0000000000000000e+00  7.9833309447233482e-07 -8.1583388936938164e-09 0.0000000000000000e+00  8.1756155281785445e-07 -1.9252560990842822e-08 0.0000000000000000e+00  8.5240843211516850e-07 8.3993439509584319e-11 0.0000000000000000e+00  8.3733073954279092e-07 1.0617008017264038e-08 0.0000000000000000e+00  8.0985855850329055e-07 8.6678454108380337e-09 0.0000000000000000e+00  7.7943420964329485e-07 1.8294728941158516e-08 0.0000000000000000e+00  7.7047664208310139e-07 -8.1331644438161444e-09 0.0000000000000000e+00  7.6985056316317979e-07 7.3852236843136279e-09 0.0000000000000000e+00  7.6245003429873689e-07 -3.4328836992097110e-10 0.0000000000000000e+00  7.6322114030248498e-07 -3.3291626478291630e-10 0.0000000000000000e+00  7.7696643198374705e-07 -1.1478383873929372e-08 0.0000000000000000e+00  7.7754512744174153e-07 1.0840074528348567e-08 0.0000000000000000e+00  7.6816268275140002e-07 -2.6010622875959796e-09 0.0000000000000000e+00  7.9910666486637424e-07 -1.2136748851246047e-08 0.0000000000000000e+00  8.1350051994525616e-07 -7.0710026126277542e-09 0.0000000000000000e+00  8.2247623871632004e-07 -1.7289466340573300e-08 0.0000000000000000e+00  8.4583076367407349e-07 -3.8269281430305413e-09 0.0000000000000000e+00  1.0388973745517805e-06 -6.0258608973633103e-08 0.0000000000000000e+00  -1.0916263314535988e-07 9.7244226159078736e-07 0.0000000000000000e+00  5.6905607208200060e-08 8.2934306698455128e-07 0.0000000000000000e+00  9.4934327379944718e-10 9.4538946708553539e-07 0.0000000000000000e+00  3.4405827040062281e-08 1.0606918775368263e-06 0.0000000000000000e+00  -1.8756468084686291e-08 8.9987748906991858e-07 0.0000000000000000e+00  -8.8617375268286267e-08 8.9328495877345686e-07 0.0000000000000000e+00  1.3321960091712074e-07 9.1771471022745875e-07 0.0000000000000000e+00  -1.4575323754660564e-07 9.2347444550145121e-07 0.0000000000000000e+00  1.1847803451893521e-08 7.0501249746372210e-07 0.0000000000000000e+00  7.6313155508658409e-09 7.5995053044362815e-07 0.0000000000000000e+00  -1.2320177093229264e-08 7.7581214733418400e-07 0.0000000000000000e+00  -1.1731906907793630e-08 7.4971445672066582e-07 0.0000000000000000e+00  -3.3924282081947153e-08 6.5994585804618017e-07 0.0000000000000000e+00  5.6578507734423336e-08 6.9270771034111834e-07 0.0000000000000000e+00  9.3258594611012892e-10 7.8820493478284228e-07 0.0000000000000000e+00  -1.9480886265180179e-09 7.7802401143215120e-07 0.0000000000000000e+00  -1.5934654826473928e-09 7.7165221383429266e-07 0.0000000000000000e+00  2.0155370871380621e-09 7.7438767300524209e-07 0.0000000000000000e+00  -1.4263503137682954e-09 7.8421116242820214e-07 0.0000000000000000e+00  -5.6612985638003113e-08 6.9163421295586364e-07 0.0000000000000000e+00  4.2192583139733102e-08 6.7229328350878441e-07 0.0000000000000000e+00  -3.9582932094479996e-09 7.4233703440085268e-07 0.0000000000000000e+00  9.0227069242865141e-09 7.4731833878004138e-07 0.0000000000000000e+00  -9.1722751097834797e-09 7.4391262468586104e-07 0.0000000000000000e+00  -2.7985594415873728e-08 6.6740677260941327e-07 0.0000000000000000e+00  1.1951284680316484e-07 8.0294735271964385e-07 0.0000000000000000e+00  -1.0530841075074164e-07 8.2699183473294810e-07 0.0000000000000000e+00  7.3624331276998866e-08 7.5888784229068614e-07 0.0000000000000000e+00  4.1610588433190042e-09 9.1282447911674034e-07 0.0000000000000000e+00  3.5050072803873478e-08 1.0282548904888930e-06 0.0000000000000000e+00  -2.3535732810833287e-08 8.7463061414558331e-07 0.0000000000000000e+00  -9.2682502211035907e-08 8.4765753719361561e-07 0.0000000000000000e+00  9.5842782006553094e-08 8.2851927177901367e-07 0.0000000000000000e+00  -1.2899391320848964e-07 7.8507700237981806e-07 0.0000000000000000e+00  4.1973150214636974e-08 6.5098973448757844e-07 0.0000000000000000e+00  -1.0609581019439329e-08 7.2139869163859275e-07 0.0000000000000000e+00  1.3406778740530913e-08 7.3011130014145738e-07 0.0000000000000000e+00  -3.7412663185747484e-09 7.4063364153598340e-07 0.0000000000000000e+00  -3.2947767596560315e-10 7.3428451447504027e-07 0.0000000000000000e+00  -3.1085553937719905e-10 7.3359640413427540e-07 0.0000000000000000e+00  -5.1385798209627568e-08 7.0396509959083797e-07 0.0000000000000000e+00  4.4395454009871773e-08 6.6009831798797200e-07 0.0000000000000000e+00  -1.5775089672983425e-09 7.3882417503139829e-07 0.0000000000000000e+00  2.8257953321052488e-08 7.5933337862652807e-07 0.0000000000000000e+00  -9.9604558056509150e-09 8.0088956640864965e-07 0.0000000000000000e+00  -7.1055961602419535e-08 6.6961487981388790e-07 0.0000000000000000e+00  6.8359954670574388e-08 6.6614723066901794e-07 0.0000000000000000e+00  2.5217597650337949e-08 8.0440856069910373e-07 0.0000000000000000e+00  8.5913560374566390e-10 8.2728849873992616e-07 0.0000000000000000e+00  5.5238868587894738e-09 8.4520775552465733e-07 0.0000000000000000e+00  -8.5812663604913262e-08 7.1787087697932018e-07 0.0000000000000000e+00  6.3551809038301990e-08 6.9012539757575284e-07 0.0000000000000000e+00  2.2527104952640228e-08 8.2318373980320153e-07 0.0000000000000000e+00  6.8480762590402452e-09 8.5560959196552520e-07 0.0000000000000000e+00  -1.1779335697574182e-08 8.4928446597339665e-07 0.0000000000000000e+00  -5.8347744424703496e-08 7.0618405658253186e-07 0.0000000000000000e+00  1.1953123345308622e-07 8.1588196435147029e-07 0.0000000000000000e+00  -1.0424228953359606e-07 8.3882554729167500e-07 0.0000000000000000e+00  8.6744621979859441e-08 8.2726494213853244e-07 0.0000000000000000e+00  -1.2885013270091462e-07 7.6604674444036693e-07 0.0000000000000000e+00  4.4445043812964457e-08 6.3286328873743920e-07 0.0000000000000000e+00  5.4751147595576092e-09 7.4083567694257000e-07 0.0000000000000000e+00  1.2384820204084406e-09 7.4825803203417959e-07 0.0000000000000000e+00  -5.5757476369871515e-09 7.4330536129868945e-07 0.0000000000000000e+00  1.2745174626903558e-09 7.3813658344920286e-07 0.0000000000000000e+00  -4.5761123059085794e-10 7.3991716814324822e-07 0.0000000000000000e+00  5.9986402543200715e-09 7.4568246263179354e-07 0.0000000000000000e+00  2.5854811898334839e-08 7.8244224704091016e-07 0.0000000000000000e+00  -8.7752670948063198e-09 8.1237623911933174e-07 0.0000000000000000e+00  -7.0043322374373519e-08 6.9006443125622959e-07 0.0000000000000000e+00  5.4045463098601349e-08 6.9545136764715713e-07 0.0000000000000000e+00  4.6995090389462057e-10 7.4447728991258029e-07 0.0000000000000000e+00  3.1093180196727628e-08 7.7331005475115222e-07 0.0000000000000000e+00  -1.1511348782509996e-09 8.2618507696803488e-07 0.0000000000000000e+00  -1.9043494152884854e-08 7.9332829510769297e-07 0.0000000000000000e+00  -9.6993894312267974e-09 7.5996372663613853e-07 0.0000000000000000e+00  -4.0023021784612770e-08 6.9048033830195945e-07 0.0000000000000000e+00  1.1000627483744168e-07 7.9207900532383560e-07