<?xml version="1.0"?>
<VTKFile type="UnstructuredGrid"  version="0.1"  >
<UnstructuredGrid>
<Piece  NumberOfPoints="11902" NumberOfCells="23402">
<Points>
<DataArray  type="Float64"  NumberOfComponents="3"  format="ascii">-5 -5 0  5 -5 0  5 5 0  -5 5 0  1.151032649185973 0.001012289280346475 0  -4.9 -5 0  -4.8 -5 0  -4.7 -5 0  -4.6 -5 0  -4.5 -5 0  -4.4 -5 0  -4.3 -5 0  -4.2 -5 0  -4.1 -5 0  -4 -5 0  -3.9 -5 0  -3.8 -5 0  -3.7 -5 0  -3.6 -5 0  -3.5 -5 0  -3.4 -5 0  -3.3 -5 0  -3.2 -5 0  -3.1 -5 0  -3 -5 0  -2.9 -5 0  -2.8 -5 0  -2.7 -5 0  -2.6 -5 0  -2.5 -5 0  -2.4 -5 0  -2.3 -5 0  -2.2 -5 0  -2.1 -5 0  -2 -5 0  -1.9 -5 0  -1.8 -5 0  -1.7 -5 0  -1.6 -5 0  -1.5 -5 0  -1.4 -5 0  -1.3 -5 0  -1.2 -5 0  -1.1 -5 0  -1 -5 0  -0.9000000000000004 -5 0  -0.7999999999999998 -5 0  -0.7000000000000002 -5 0  -0.5999999999999996 -5 0  -0.5 -5 0  -0.4000000000000004 -5 0  -0.2999999999999998 -5 0  -0.2000000000000002 -5 0  -0.09999999999999964 -5 0  0 -5 0  0.09999999999999964 -5 0  0.2000000000000002 -5 0  0.2999999999999998 -5 0  0.4000000000000004 -5 0  0.5 -5 0  0.5999999999999996 -5 0  0.7000000000000002 -5 0  0.7999999999999998 -5 0  0.9000000000000004 -5 0  1 -5 0  1.1 -5 0  1.2 -5 0  1.3 -5 0  1.4 -5 0  1.5 -5 0  1.6 -5 0  1.7 -5 0  1.8 -5 0  1.9 -5 0  2 -5 0  2.1 -5 0  2.2 -5 0  2.3 -5 0  2.4 -5 0  2.5 -5 0  2.6 -5 0  2.7 -5 0  2.8 -5 0  2.9 -5 0  3 -5 0  3.1 -5 0  3.199999999999999 -5 0  3.300000000000001 -5 0  3.4 -5 0  3.5 -5 0  3.6 -5 0  3.699999999999999 -5 0  3.800000000000001 -5 0  3.9 -5 0  4 -5 0  4.1 -5 0  4.199999999999999 -5 0  4.300000000000001 -5 0  4.4 -5 0  4.5 -5 0  4.6 -5 0  4.699999999999999 -5 0  4.800000000000001 -5 0  4.9 -5 0  5 -4.9 0  5 -4.8 0  5 -4.7 0  5 -4.6 0  5 -4.5 0  5 -4.4 0  5 -4.3 0  5 -4.2 0  5 -4.1 0  5 -4 0  5 -3.9 0  5 -3.8 0  5 -3.7 0  5 -3.6 0  5 -3.5 0  5 -3.4 0  5 -3.3 0  5 -3.2 0  5 -3.1 0  5 -3 0  5 -2.9 0  5 -2.8 0  5 -2.7 0  5 -2.6 0  5 -2.5 0  5 -2.4 0  5 -2.3 0  5 -2.2 0  5 -2.1 0  5 -2 0  5 -1.9 0  5 -1.8 0  5 -1.7 0  5 -1.6 0  5 -1.5 0  5 -1.4 0  5 -1.3 0  5 -1.2 0  5 -1.1 0  5 -1 0  5 -0.9000000000000004 0  5 -0.7999999999999998 0  5 -0.7000000000000002 0  5 -0.5999999999999996 0  5 -0.5 0  5 -0.4000000000000004 0  5 -0.2999999999999998 0  5 -0.2000000000000002 0  5 -0.09999999999999964 0  5 0 0  5 0.09999999999999964 0  5 0.2000000000000002 0  5 0.2999999999999998 0  5 0.4000000000000004 0  5 0.5 0  5 0.5999999999999996 0  5 0.7000000000000002 0  5 0.7999999999999998 0  5 0.9000000000000004 0  5 1 0  5 1.1 0  5 1.2 0  5 1.3 0  5 1.4 0  5 1.5 0  5 1.6 0  5 1.7 0  5 1.8 0  5 1.9 0  5 2 0  5 2.1 0  5 2.2 0  5 2.3 0  5 2.4 0  5 2.5 0  5 2.6 0  5 2.7 0  5 2.8 0  5 2.9 0  5 3 0  5 3.1 0  5 3.199999999999999 0  5 3.300000000000001 0  5 3.4 0  5 3.5 0  5 3.6 0  5 3.699999999999999 0  5 3.800000000000001 0  5 3.9 0  5 4 0  5 4.1 0  5 4.199999999999999 0  5 4.300000000000001 0  5 4.4 0  5 4.5 0  5 4.6 0  5 4.699999999999999 0  5 4.800000000000001 0  5 4.9 0  4.9 5 0  4.8 5 0  4.7 5 0  4.6 5 0  4.5 5 0  4.4 5 0  4.3 5 0  4.2 5 0  4.1 5 0  4 5 0  3.9 5 0  3.8 5 0  3.7 5 0  3.6 5 0  3.5 5 0  3.4 5 0  3.3 5 0  3.2 5 0  3.1 5 0  3 5 0  2.9 5 0  2.8 5 0  2.7 5 0  2.6 5 0  2.5 5 0  2.4 5 0  2.3 5 0  2.2 5 0  2.1 5 0  2 5 0  1.9 5 0  1.8 5 0  1.7 5 0  1.6 5 0  1.5 5 0  1.4 5 0  1.3 5 0  1.2 5 0  1.1 5 0  1 5 0  0.9000000000000004 5 0  0.7999999999999998 5 0  0.7000000000000002 5 0  0.5999999999999996 5 0  0.5 5 0  0.4000000000000004 5 0  0.2999999999999998 5 0  0.2000000000000002 5 0  0.09999999999999964 5 0  0 5 0  -0.09999999999999964 5 0  -0.2000000000000002 5 0  -0.2999999999999998 5 0  -0.4000000000000004 5 0  -0.5 5 0  -0.5999999999999996 5 0  -0.7000000000000002 5 0  -0.7999999999999998 5 0  -0.9000000000000004 5 0  -1 5 0  -1.1 5 0  -1.2 5 0  -1.3 5 0  -1.4 5 0  -1.5 5 0  -1.6 5 0  -1.7 5 0  -1.8 5 0  -1.9 5 0  -2 5 0  -2.1 5 0  -2.2 5 0  -2.3 5 0  -2.4 5 0  -2.5 5 0  -2.6 5 0  -2.7 5 0  -2.8 5 0  -2.9 5 0  -3 5 0  -3.1 5 0  -3.199999999999999 5 0  -3.300000000000001 5 0  -3.4 5 0  -3.5 5 0  -3.6 5 0  -3.699999999999999 5 0  -3.800000000000001 5 0  -3.9 5 0  -4 5 0  -4.1 5 0  -4.199999999999999 5 0  -4.300000000000001 5 0  -4.4 5 0  -4.5 5 0  -4.6 5 0  -4.699999999999999 5 0  -4.800000000000001 5 0  -4.9 5 0  -5 4.9 0  -5 4.8 0  -5 4.7 0  -5 4.6 0  -5 4.5 0  -5 4.4 0  -5 4.3 0  -5 4.2 0  -5 4.1 0  -5 4 0  -5 3.9 0  -5 3.8 0  -5 3.7 0  -5 3.6 0  -5 3.5 0  -5 3.4 0  -5 3.3 0  -5 3.2 0  -5 3.1 0  -5 3 0  -5 2.9 0  -5 2.8 0  -5 2.7 0  -5 2.6 0  -5 2.5 0  -5 2.4 0  -5 2.3 0  -5 2.2 0  -5 2.1 0  -5 2 0  -5 1.9 0  -5 1.8 0  -5 1.7 0  -5 1.6 0  -5 1.5 0  -5 1.4 0  -5 1.3 0  -5 1.2 0  -5 1.1 0  -5 1 0  -5 0.9000000000000004 0  -5 0.7999999999999998 0  -5 0.7000000000000002 0  -5 0.5999999999999996 0  -5 0.5 0  -5 0.4000000000000004 0  -5 0.2999999999999998 0  -5 0.2000000000000002 0  -5 0.09999999999999964 0  -5 0 0  -5 -0.09999999999999964 0  -5 -0.2000000000000002 0  -5 -0.2999999999999998 0  -5 -0.4000000000000004 0  -5 -0.5 0  -5 -0.5999999999999996 0  -5 -0.7000000000000002 0  -5 -0.7999999999999998 0  -5 -0.9000000000000004 0  -5 -1 0  -5 -1.1 0  -5 -1.2 0  -5 -1.3 0  -5 -1.4 0  -5 -1.5 0  -5 -1.6 0  -5 -1.7 0  -5 -1.8 0  -5 -1.9 0  -5 -2 0  -5 -2.1 0  -5 -2.2 0  -5 -2.3 0  -5 -2.4 0  -5 -2.5 0  -5 -2.6 0  -5 -2.7 0  -5 -2.8 0  -5 -2.9 0  -5 -3 0  -5 -3.1 0  -5 -3.199999999999999 0  -5 -3.300000000000001 0  -5 -3.4 0  -5 -3.5 0  -5 -3.6 0  -5 -3.699999999999999 0  -5 -3.800000000000001 0  -5 -3.9 0  -5 -4 0  -5 -4.1 0  -5 -4.199999999999999 0  -5 -4.300000000000001 0  -5 -4.4 0  -5 -4.5 0  -5 -4.6 0  -5 -4.699999999999999 0  -5 -4.800000000000001 0  -5 -4.9 0  1.145452713110257 0.1001125918181465 0  1.127891209983885 0.1991095471224111 0  1.098280713657744 0.2967867471306823 0  1.059511144214672 0.3895545414808677 0  1.009515786358302 0.4804865837180718 0  0.9501937982645486 0.566007061630571 0  0.8805748872457094 0.6457961542238951 0  0.8016581737522596 0.7187138586580131 0  0.715759777763367 0.7848290893041328 0  0.6225609084118521 0.8436222435694242 0  0.5225415885101575 0.8938229058605259 0  0.4176548770709048 0.9352812248477945 0  0.310115775326851 0.9678984374973338 0  0.198246912630481 0.9901562969758664 0  0.08607882380509023 1.003428275445873 0  -0.02733789375785303 1.006062806204328 0  -0.14060097072711 0.9976113252311932 0  -0.253291496362004 0.9803968772422368 0  -0.3634493898626276 0.9536786896336099 0  -0.4694497796816204 0.9169874016728697 0  -0.5705252118424092 0.8716282331297998 0  -0.6664710669416238 0.8169778438948523 0  -0.7557445862400025 0.7544750770515629 0  -0.8379325736819774 0.6845528821685303 0  -0.912380788834676 0.6068095830848385 0  -0.9771514552821974 0.5238390202338755 0  -1.032940687951899 0.4362663346230857 0  -1.077798029651136 0.3436180075328943 0  -1.111548073835757 0.2484007342419552 0  -1.1344410168988 0.1507298669617139 0  -1.146091388016079 0.05087534812180271 0  -1.146115185871771 -0.0495758152804717 0  -1.134472219138322 -0.149209516694769 0  -1.112766893587015 -0.2468815489158347 0  -1.077627443252752 -0.3431077366082704 0  -1.033282314863609 -0.435025051390752 0  -0.9778700241397806 -0.5228504172935263 0  -0.9133637054390381 -0.6054691846424416 0  -0.8389750779267922 -0.6823269811060901 0  -0.7562759230931985 -0.7517428723156984 0  -0.6661906546931429 -0.8133536356501078 0  -0.5708903791415583 -0.8680391902828672 0  -0.4676705857295186 -0.9138962286554894 0  -0.3614848036895652 -0.9514405369265202 0  -0.251240562638992 -0.9788919985836848 0  -0.13931062809491 -0.9965737900402181 0  -0.02660619038000478 -1.005437963253872 0  0.08659635919861228 -1.001997428633867 0  0.2000401923703796 -0.9885019344836909 0  0.3110735345948203 -0.9664040488317304 0  0.4201515761695644 -0.9339741578245611 0  0.5236375339271915 -0.8928304547374377 0  0.6231174422171385 -0.8429266058672078 0  0.715998566629298 -0.7854674206944509 0  0.8018113278665243 -0.7191975208917799 0  0.880177476016985 -0.6452495129757583 0  0.9492198973581121 -0.565279908347987 0  1.009578254795762 -0.4800091347813673 0  1.060597945986013 -0.3896615855181099 0  1.0994351929966 -0.2958752243660047 0  1.128021126261729 -0.198458150712617 0  1.145468902082644 -0.09974805443500483 0  -2.449004012244032 4.918929969720951 0  -2.448917759895533 -4.911382190797317 0  4.911327143600383 2.448531157067276 0  4.919369888122506 -2.449935001531959 0  2.446726193605065 -4.896768742651203 0  2.441141505443867 4.900497597645231 0  -4.911346803649581 -2.448550624251226 0  -4.911346256690575 2.448554432115952 0  -1.748973815064119 4.912178728745523 0  -1.744740701378311 -4.915573358847291 0  4.921743425673831 1.74464589925999 0  4.910434233599271 -1.748491295310032 0  -4.910714125888964 -1.748215777633426 0  -4.911527376998513 1.747953801372077 0  1.746275103708718 4.906122385761432 0  1.747746601541418 -4.8944197682811 0  -1.149191583167619 4.910209325210812 0  -1.130012326733408 -4.918005694582153 0  -4.910751001622102 -1.148429445282789 0  -4.910574463412496 1.148229164386115 0  1.144163340827273 -4.914248982378553 0  1.14919713597347 4.910200070754103 0  4.91090408198678 1.146708812619451 0  4.921544715378438 -1.152432435708656 0  -0.5468515691312102 -4.911520467362249 0  -0.5466158054892252 4.920064915494522 0  -4.909740527112052 -0.5489874841418132 0  -4.909765493947895 0.5475420786305677 0  4.909090292410491 -0.5493111391099437 0  4.920517688270408 0.5460304316323139 0  0.5426510715449295 -4.898620097789561 0  0.5513476698050296 4.916941488490431 0  -4.912482904857722 -3.048799401847092 0  4.919014715376616 3.046782987101646 0  4.911997372807072 -3.048783301342994 0  -4.913327904589168 3.045886881799758 0  3.055682548889918 -4.917966311610187 0  -3.049041736541557 -4.911942191604676 0  3.052600382909282 4.914009330638589 0  -3.048485099444888 4.912827001041741 0  -4.908944820509845 -0.0499355604519621 0  0.04513124059582383 -4.91348253845972 0  0.04958000129115112 4.920393573787025 0  4.915872467962264 -0.05131589701095648 0  3.545921109966516 -4.919434941467471 0  -3.549228281968844 4.912366
[...]
<PointData  Vectors="f_1544"> 
<DataArray  type="Float64"  Name="f_1544"  NumberOfComponents="3" format="ascii">-4.5509782442788932e-07 -4.5511285448215490e-07 0.0000000000000000e+00  4.5509586612128821e-07 -4.5511143449818965e-07 0.0000000000000000e+00  5.0305099640925891e-07 5.0306195596698716e-07 0.0000000000000000e+00  -4.5509736043162427e-07 4.5511218990788957e-07 0.0000000000000000e+00  -5.6206059015048160e-01 -1.1306736567369396e-02 0.0000000000000000e+00  9.1187838953891663e-08 -9.0600617508001671e-07 0.0000000000000000e+00  -1.0657486162929729e-07 -8.6005556063813670e-07 0.0000000000000000e+00  1.0478193969993917e-07 -8.7311960717407271e-07 0.0000000000000000e+00  -9.1379802187351179e-08 -8.8073041570455459e-07 0.0000000000000000e+00  -2.1215481003367531e-08 -9.0479354350698774e-07 0.0000000000000000e+00  3.5894237086813575e-08 -1.0618229042704460e-06 0.0000000000000000e+00  6.0629537064409440e-09 -9.3688436270699215e-07 0.0000000000000000e+00  7.3475251805362286e-08 -7.7942148572105206e-07 0.0000000000000000e+00  -1.0503595561960776e-07 -8.4534214189317121e-07 0.0000000000000000e+00  1.2028356933123191e-07 -8.2574242528820554e-07 0.0000000000000000e+00  -2.6600030918040185e-08 -6.8063142752160709e-07 0.0000000000000000e+00  -5.3626445322762969e-09 -7.5265567954974986e-07 0.0000000000000000e+00  -1.2989649162274952e-08 -7.6705976852164428e-07 0.0000000000000000e+00  1.0379192052893129e-08 -7.7592843754617752e-07 0.0000000000000000e+00  3.0966331458192464e-10 -7.6024916172472178e-07 0.0000000000000000e+00  3.1890111640093781e-10 -7.5954204845377816e-07 0.0000000000000000e+00  5.0534675148383742e-08 -7.2545338899481816e-07 0.0000000000000000e+00  -4.4541975919647141e-08 -6.8702098388504645e-07 0.0000000000000000e+00  3.3580367503759738e-10 -7.5734116724323925e-07 0.0000000000000000e+00  3.9928044337164389e-08 -6.6029727636423573e-07 0.0000000000000000e+00  -1.2846877624854280e-07 -8.0579184453684041e-07 0.0000000000000000e+00  9.7354709520221792e-08 -8.4804717034535395e-07 0.0000000000000000e+00  -9.4257948060996344e-08 -8.4761801263129837e-07 0.0000000000000000e+00  1.2506931714661744e-07 -7.9786350200714385e-07 0.0000000000000000e+00  -3.7878578789264131e-08 -6.4565814517901165e-07 0.0000000000000000e+00  3.5653887491623901e-10 -7.5186445573930483e-07 0.0000000000000000e+00  3.5613142475116452e-08 -6.8363920107314777e-07 0.0000000000000000e+00  -1.2117804314590537e-07 -8.0903560368046824e-07 0.0000000000000000e+00  1.0029060492816269e-07 -8.4352148752947444e-07 0.0000000000000000e+00  -9.4934588608164505e-08 -8.6426346200606639e-07 0.0000000000000000e+00  1.0573162383003209e-09 -8.6566070649103506e-07 0.0000000000000000e+00  6.7850789929743827e-08 -9.7180551839432715e-07 0.0000000000000000e+00  1.1486346606208602e-08 -7.8887072917041720e-07 0.0000000000000000e+00  7.9534115394557499e-09 -7.6015029939150113e-07 0.0000000000000000e+00  6.4155212675954218e-10 -7.4541767659846991e-07 0.0000000000000000e+00  9.9569291461033316e-09 -7.2309383619187519e-07 0.0000000000000000e+00  4.0613040271805416e-08 -6.3429561678514871e-07 0.0000000000000000e+00  -7.9958491613813981e-08 -6.7547074707688604e-07 0.0000000000000000e+00  -8.9156305972581099e-08 -9.6053293185653716e-07 0.0000000000000000e+00  9.7972165890269415e-08 -9.5723374483518182e-07 0.0000000000000000e+00  5.2279215849027975e-08 -6.9790004079356660e-07 0.0000000000000000e+00  -9.5561208958745824e-08 -8.2243958813979388e-07 0.0000000000000000e+00  -1.0692501941148120e-08 -7.4900603109439728e-07 0.0000000000000000e+00  5.8085707376678679e-08 -9.1067232993337262e-07 0.0000000000000000e+00  1.8625507589512918e-09 -7.5471153234295852e-07 0.0000000000000000e+00  4.5792896824411779e-09 -7.5189069740931436e-07 0.0000000000000000e+00  8.5573763435220229e-11 -7.3946052831276272e-07 0.0000000000000000e+00  -3.6348512375577565e-10 -7.4031769680881075e-07 0.0000000000000000e+00  -1.8588659142557619e-09 -7.4473306140297064e-07 0.0000000000000000e+00  -1.2198330683415292e-08 -7.7350614231460744e-07 0.0000000000000000e+00  -7.2704209964670555e-08 -9.5769979846707161e-07 0.0000000000000000e+00  7.7485782051043463e-09 -8.3016896229749446e-07 0.0000000000000000e+00  9.1608537904098402e-08 -8.2166184036605817e-07 0.0000000000000000e+00  -1.0599884377706539e-07 -8.1412608668211493e-07 0.0000000000000000e+00  1.1978157310083299e-07 -7.9682345148584961e-07 0.0000000000000000e+00  -2.7956853426928018e-08 -6.6031021962864685e-07 0.0000000000000000e+00  -9.4191230130618661e-09 -7.3683392056320416e-07 0.0000000000000000e+00  -6.6858604547793806e-09 -7.4820706950193035e-07 0.0000000000000000e+00  5.2031904910559672e-09 -7.4978252889359598e-07 0.0000000000000000e+00  -5.1477687655463855e-09 -7.5294195619675556e-07 0.0000000000000000e+00  -1.0107238781587227e-08 -7.8342728158427206e-07 0.0000000000000000e+00  4.7571516869218158e-08 -7.1131928365633940e-07 0.0000000000000000e+00  -8.6890002929854148e-08 -7.6020839170469339e-07 0.0000000000000000e+00  1.3020564611253096e-08 -8.7184944488215830e-07 0.0000000000000000e+00  5.8708939992114647e-09 -8.3532144728478968e-07 0.0000000000000000e+00  1.5626689742250202e-08 -8.2809455250476419e-07 0.0000000000000000e+00  7.2619609853900990e-08 -6.8670939112823920e-07 0.0000000000000000e+00  -6.8339528225468706e-08 -6.8418030169900659e-07 0.0000000000000000e+00  -1.4663299554126098e-08 -8.0920134023411272e-07 0.0000000000000000e+00  2.7571387630798330e-08 -7.9039373445112638e-07 0.0000000000000000e+00  1.7792977307930254e-09 -7.5627668683607477e-07 0.0000000000000000e+00  6.6574585652912850e-11 -7.5133575779703928e-07 0.0000000000000000e+00  -5.6335070975831663e-09 -7.7490723607404569e-07 0.0000000000000000e+00  5.3565453958529104e-08 -6.8765105894769934e-07 0.0000000000000000e+00  -3.3438840495956943e-08 -6.5955418871045232e-07 0.0000000000000000e+00  -1.6609715173034444e-08 -7.4681315633590708e-07 0.0000000000000000e+00  -4.3725084320781055e-08 -8.0677074081305623e-07 0.0000000000000000e+00  -6.2959800969015477e-09 -8.7883734055505972e-07 0.0000000000000000e+00  8.5787464983967140e-08 -7.4582756811164039e-07 0.0000000000000000e+00  -6.2408775916677152e-08 -7.1678077620192567e-07 0.0000000000000000e+00  -4.8056742512081929e-09 -8.2900278532333097e-07 0.0000000000000000e+00  4.1460627068676796e-08 -7.8664997319459960e-07 0.0000000000000000e+00  -1.9042348438080343e-08 -7.5682897092135390e-07 0.0000000000000000e+00  -2.5364747776902826e-08 -7.9539067980692912e-07 0.0000000000000000e+00  2.9652736444578030e-09 -8.5137527694129046e-07 0.0000000000000000e+00  7.5009705351328114e-08 -7.1557079803580803e-07 0.0000000000000000e+00  -7.3124543179771227e-08 -7.1351849773322867e-07 0.0000000000000000e+00  -8.1742489604980966e-09 -8.4445857081269929e-07 0.0000000000000000e+00  3.3298531029312030e-08 -8.0974132020381542e-07 0.0000000000000000e+00  1.5997401256845039e-08 -7.4539146757236754e-07 0.0000000000000000e+00  -1.2417120397597990e-08 -7.4014841184350196e-07 0.0000000000000000e+00  -6.9393986474569712e-09 -7.7732037531825046e-07 0.0000000000000000e+00  5.2228058631373735e-08 -6.9597264343389301e-07 0.0000000000000000e+00  -6.5823538820740845e-08 -7.0851002186561792e-07 0.0000000000000000e+00  -1.8698117498724291e-08 -8.4013893233297796e-07 0.0000000000000000e+00  2.8406195214641844e-08 -8.1811351487193820e-07 0.0000000000000000e+00  3.3138466709924186e-09 -7.8014070884682661e-07 0.0000000000000000e+00  -6.7421694405886338e-09 -7.9432141162202226e-07 0.0000000000000000e+00  -6.0218550099192667e-08 -9.4810627465256495e-07 0.0000000000000000e+00  8.9105389346414321e-07 8.8229607481885984e-08 0.0000000000000000e+00  8.8528138577731509e-07 -1.2421163006564252e-07 0.0000000000000000e+00  9.1692632417978322e-07 1.1033348094631392e-07 0.0000000000000000e+00  7.5665130638668617e-07 -2.5047019927509457e-08 0.0000000000000000e+00  8.0168405065768703e-07 1.6797413716782286e-08 0.0000000000000000e+00  7.7989954666873737e-07 4.9079898330176421e-10 0.0000000000000000e+00  7.7933553326609618e-07 -2.4302421370590169e-10 0.0000000000000000e+00  7.7911451373989059e-07 7.4935719453371622e-10 0.0000000000000000e+00  7.8323704707893818e-07 -6.4362150628282764e-09 0.0000000000000000e+00  7.9183414282422315e-07 3.7795772796815960e-09 0.0000000000000000e+00  7.9490076834397218e-07 -6.7986931403073598e-09 0.0000000000000000e+00  7.9322751144597951e-07 1.1875381917854693e-08 0.0000000000000000e+00  7.8572067267482106e-07 -1.2871835412379864e-08 0.0000000000000000e+00  7.8594338328368584e-07 9.0932463236754360e-09 0.0000000000000000e+00  8.0031118283734850e-07 -1.4242636294083361e-08 0.0000000000000000e+00  7.8888675780344877e-07 2.2898615319188198e-08 0.0000000000000000e+00  7.7190048538695730e-07 -3.4887015297834666e-09 0.0000000000000000e+00  7.8091627579059098e-07 -1.1229682772968002e-08 0.0000000000000000e+00  7.7035815542883012e-07 1.6263393384112383e-08 0.0000000000000000e+00  7.7570370847382393e-07 -1.8110069244875405e-08 0.0000000000000000e+00  7.9519845445697176e-07 6.0882526599690914e-09 0.0000000000000000e+00  7.7019353415942822e-07 1.3356017180162226e-08 0.0000000000000000e+00  8.0270181397992656e-07 -3.2015970361347469e-08 0.0000000000000000e+00  8.3624537054381673e-07 -8.2401141288432566e-09 0.0000000000000000e+00  8.3405487988529618e-07 8.9489739034577469e-09 0.0000000000000000e+00  7.9466339127628771e-07 2.1474906413735151e-08 0.0000000000000000e+00  7.6264157925320829e-07 1.0802044430443212e-08 0.0000000000000000e+00  7.4925957571202391e-07 4.7335887170067283e-10 0.0000000000000000e+00  7.4818297733876275e-07 4.9131973226871132e-10 0.0000000000000000e+00  7.4709722149599813e-07 4.9257455787574449e-10 0.0000000000000000e+00  7.4604897107585181e-07 4.8968242433342132e-10 0.0000000000000000e+00  7.4496943426630752e-07 5.0242397639328734e-10 0.0000000000000000e+00  7.5481455067711815e-07 -1.1279497401489548e-08 0.0000000000000000e+00  7.6862862453416778e-07 1.6241891023678352e-09 0.0000000000000000e+00  7.5586073313010480e-07 1.1252232860512942e-08 0.0000000000000000e+00  7.8752958930603560e-07 -3.0734827994997425e-08 0.0000000000000000e+00  8.1993922333625901e-07 -9.8277194990888195e-09 0.0000000000000000e+00  8.4789792743036004e-07 -6.0528730559574025e-09 0.0000000000000000e+00  8.4620388264650790e-07 1.7979781504762186e-08 0.0000000000000000e+00  7.2924432842000924e-07 5.6392583071554263e-10 0.0000000000000000e+00  8.1607204293752129e-07 3.4256473771952960e-08 0.0000000000000000e+00  7.3846294157289988e-07 -9.9958082340478532e-10 0.0000000000000000e+00  7.3446752250373732e-07 1.6260156862173818e-09 0.0000000000000000e+00  7.3404884333430116e-07 2.7866426812210949e-10 0.0000000000000000e+00  7.8841361199921033e-07 -3.0182570524497070e-08 0.0000000000000000e+00  7.9813933052374533e-07 -9.1710494602843365e-09 0.0000000000000000e+00  8.2014700186253272e-07 -1.6079578535756677e-09 0.0000000000000000e+00  8.1098708226039528e-07 7.0183363802649778e-09 0.0000000000000000e+00  8.0714354000621070e-07 6.6584809969974041e-09 0.0000000000000000e+00  8.0578526049142753e-07 -1.4666081902679660e-08 0.0000000000000000e+00  8.3616780327490192e-07 -2.0803928734860198e-09 0.0000000000000000e+00  8.4540513107913645e-07 -1.7357644330938758e-09 0.0000000000000000e+00  8.2544856998464760e-07 5.4105918596995507e-10 0.0000000000000000e+00  8.3977670642998588e-07 4.9514388396241385e-10 0.0000000000000000e+00  8.4626314812700443e-07 -1.4243334596995145e-09 0.0000000000000000e+00  8.2648645097521246e-07 4.1246283292976830e-10 0.0000000000000000e+00  8.3806488860426714e-07 1.4055275140669270e-09 0.0000000000000000e+00  8.3292803426913302e-07 2.6759902759083106e-09 0.0000000000000000e+00  7.9061741301478502e-07 2.4662778059052572e-08 0.0000000000000000e+00  7.6882042794360025e-07 -6.0856794802351424e-11 0.0000000000000000e+00  7.6572119953691869e-07 8.7761704487830230e-09 0.0000000000000000e+00  7.6328632419875258e-07 -1.1991830252743684e-08 0.0000000000000000e+00  7.6954355799521705e-07 -2.6248822556614706e-10 0.0000000000000000e+00  7.8256360295611865e-07 -6.6184268508068995e-11 0.0000000000000000e+00  8.0183944559422404e-07 -2.4019467963653712e-08 0.0000000000000000e+00  8.4394518875625928e-07 -3.8967235648291502e-09 0.0000000000000000e+00  8.5821019550759818e-07 -2.8767902768659396e-09 0.0000000000000000e+00  8.3994921860863766e-07 -9.7138274393466306e-11 0.0000000000000000e+00  8.5180657892331205e-07 3.3550084093135792e-09 0.0000000000000000e+00  8.2691713197190653e-07 1.2269900886575567e-08 0.0000000000000000e+00  7.7792363336992382e-07 2.2590760530961964e-08 0.0000000000000000e+00  7.5296800378339463e-07 4.0197895926184302e-09 0.0000000000000000e+00  7.5027315366543920e-07 -4.6249851025481897e-10 0.0000000000000000e+00  7.5126114184946190e-07 -4.3615647877388704e-10 0.0000000000000000e+00  7.5474616880425643e-07 -1.4897289260689709e-09 0.0000000000000000e+00  7.6244251798329690e-07 -4.8208675829846481e-09 0.0000000000000000e+00  7.8350133959697250e-07 -1.0512445756699565e-08 0.0000000000000000e+00  8.1600042317172561e-07 -2.3715739272024318e-08 0.0000000000000000e+00  8.5571346716179627e-07 -1.0526524049001299e-09 0.0000000000000000e+00  8.3579865530315828e-07 1.1404580222580089e-08 0.0000000000000000e+00  8.0806626184614414e-07 1.4885065182033033e-08 0.0000000000000000e+00  8.0180622039521181e-07 -8.0534530537188310e-09 0.0000000000000000e+00  8.2082712735132839e-07 -1.9153045442325201e-08 0.0000000000000000e+00  8.5562815294603729e-07 1.8220396775842549e-10 0.0000000000000000e+00  8.4028906708830834e-07 1.0712810595472682e-08 0.0000000000000000e+00  8.1249192822780231e-07 8.7599371383927595e-09 0.0000000000000000e+00  7.8179036584108081e-07 1.8385213719115243e-08 0.0000000000000000e+00  7.7253415944877303e-07 -8.0500754503584481e-09 0.0000000000000000e+00  7.7175524859846228e-07 7.4681351295149486e-09 0.0000000000000000e+00  7.6413500691406920e-07 -2.6437485952251591e-10 0.0000000000000000e+00  7.6472999732446416e-07 -2.5630950791884171e-10 0.0000000000000000e+00  7.7830508658828858e-07 -1.1405954988413342e-08 0.0000000000000000e+00  7.7875135231544798e-07 1.0914618780273522e-08 0.0000000000000000e+00  7.6917007358720310e-07 -2.5308555146797062e-09 0.0000000000000000e+00  7.9997074707690831e-07 -1.2069522327922759e-08 0.0000000000000000e+00  8.1422024309679408e-07 -7.0039475437945903e-09 0.0000000000000000e+00  8.2303469318616509e-07 -1.7225078132438249e-08 0.0000000000000000e+00  8.4624379475841899e-07 -3.7605705500969498e-09 0.0000000000000000e+00  1.0391490328583450e-06 -6.0201147637138925e-08 0.0000000000000000e+00  -1.0910164709082341e-07 9.7269581046092639e-07 0.0000000000000000e+00  5.6990005107898711e-08 8.2980882277252042e-07 0.0000000000000000e+00  1.0254843999009631e-09 9.4609309818924991e-07 0.0000000000000000e+00  3.4488226518635319e-08 1.0617281131429344e-06 0.0000000000000000e+00  -1.8659182770814097e-08 9.0097378035138993e-07 0.0000000000000000e+00  -8.8549298343265108e-08 8.9446944481836447e-07 0.0000000000000000e+00  1.3331323893635169e-07 9.1943660445050553e-07 0.0000000000000000e+00  -1.4569693664872918e-07 9.2501275342471114e-07 0.0000000000000000e+00  1.1932438155000125e-08 7.0658805392396716e-07 0.0000000000000000e+00  7.7167882567687346e-09 7.6181836381612214e-07 0.0000000000000000e+00  -1.2235778568250945e-08 7.7786971461420597e-07 0.0000000000000000e+00  -1.1645883779743349e-08 7.5189875655550230e-07 0.0000000000000000e+00  -3.3840337911069851e-08 6.6199797840331436e-07 0.0000000000000000e+00  5.6676884950140072e-08 6.9527509967510297e-07 0.0000000000000000e+00  1.0258400581923288e-09 7.9116882197849767e-07 0.0000000000000000e+00  -1.8535078588071780e-09 7.8116134546734439e-07 0.0000000000000000e+00  -1.4961239958630667e-09 7.7498699099972198e-07 0.0000000000000000e+00  2.1159012574121236e-09 7.7797131032714648e-07 0.0000000000000000e+00  -1.3248105939735354e-09 7.8806231140227087e-07 0.0000000000000000e+00  -5.6516460269024972e-08 6.9506185634012485e-07 0.0000000000000000e+00  4.2298799789956095e-08 6.7616180828794063e-07 0.0000000000000000e+00  -3.8527466246494033e-09 7.4666037563651903e-07 0.0000000000000000e+00  9.1299868425218932e-09 7.5195168141477500e-07 0.0000000000000000e+00  -9.0644112845704227e-09 7.4869726539592803e-07 0.0000000000000000e+00  -2.7877200747381443e-08 6.7184170089874234e-07 0.0000000000000000e+00  1.1961530387932853e-07 8.0911096164748306e-07 0.0000000000000000e+00  -1.0520224487403784e-07 8.3274907203485573e-07 0.0000000000000000e+00  7.3731767989498876e-08 7.6505733856538997e-07 0.0000000000000000e+00  4.2690437170212188e-09 9.2022123437621375e-07 0.0000000000000000e+00  3.5158479414309484e-08 1.0370233977850757e-06 0.0000000000000000e+00  -2.3406475109116472e-08 8.8216405754564037e-07 0.0000000000000000e+00  -9.2569554972526501e-08 8.5498579152393296e-07 0.0000000000000000e+00  9.5934226082443586e-08 8.3659252720685917e-07 0.0000000000000000e+00  -1.2888977499814793e-07 7.9220312300701334e-07 0.0000000000000000e+00  4.2063990008788247e-08 6.5757484242946420e-07 0.0000000000000000e+00  -1.0516603061259782e-08 7.2871755330512673e-07 0.0000000000000000e+00  1.3492197446746643e-08 7.3778640377086400e-07 0.0000000000000000e+00  -3.6579856022183668e-09 7.4855490338446488e-07 0.0000000000000000e+00  -2.5171573820143564e-10 7.4232076451927441e-07 0.0000000000000000e+00  -2.3845901828895271e-10 7.4178730242307711e-07 0.0000000000000000e+00  -5.1309851450561802e-08 7.1185654054292484e-07 0.0000000000000000e+00  4.4444357717156719e-08 6.6780305024822749e-07 0.0000000000000000e+00  -1.5247822527577139e-09 7.4748185338873854e-07 0.0000000000000000e+00  2.8298614975875086e-08 7.6838853991079924e-07 0.0000000000000000e+00  -9.9192848060162988e-09 8.1048850203037695e-07 0.0000000000000000e+00  -7.1007948200315265e-08 6.7762951913570973e-07 0.0000000000000000e+00  6.8365199373114437e-08 6.7429838136761325e-07 0.0000000000000000e+00  2.5225980212133681e-08 8.1426693180474936e-07 0.0000000000000000e+00  8.6626142379829383e-10 8.3744330104040619e-07 0.0000000000000000e+00  5.5225923250052629e-09 8.5559277185666005e-07 0.0000000000000000e+00  -8.5799759024025415e-08 7.2669258951042213e-07 0.0000000000000000e+00  6.3519430170245443e-08 6.9851777341295551e-07 0.0000000000000000e+00  2.2497214136103373e-08 8.3318801801083257e-07 0.0000000000000000e+00  6.8146129907335100e-09 8.6595175036261686e-07 0.0000000000000000e+00  -1.1816002667044546e-08 8.5948100942476206e-07 0.0000000000000000e+00  -5.8381932802643542e-08 7.1463069424630338e-07 0.0000000000000000e+00  1.1945694880114132e-07 8.2521871053728142e-07 0.0000000000000000e+00  -1.0428185527306572e-07 8.4872363613540108e-07 0.0000000000000000e+00  8.6662197352636848e-08 8.3646041885571244e-07 0.0000000000000000e+00  -1.2889002368476930e-07 7.7491417844437472e-07 0.0000000000000000e+00  4.4357375577374888e-08 6.3963120753847928e-07 0.0000000000000000e+00  5.3907906795294069e-09 7.4872974072712603e-07 0.0000000000000000e+00  1.1508916234006153e-09 7.5605421999817497e-07 0.0000000000000000e+00  -5.6671466803057288e-09 7.5087393762991203e-07 0.0000000000000000e+00  1.1784726184683895e-09 7.4542584904638549e-07 0.0000000000000000e+00  -5.5649245040456159e-10 7.4701705364060523e-07 0.0000000000000000e+00  5.8960844687546527e-09 7.5259364292140437e-07 0.0000000000000000e+00  2.5749131721859106e-08 7.8938666076900492e-07 0.0000000000000000e+00  -8.8802444143498260e-09 8.1946218200881950e-07 0.0000000000000000e+00  -7.0146166393842360e-08 6.9609818373352065e-07 0.0000000000000000e+00  5.3936554446383146e-08 7.0084608156722758e-07 0.0000000000000000e+00  3.6023488506439544e-10 7.5022761839326221e-07 0.0000000000000000e+00  3.0984437985420322e-08 7.7891848953328359e-07 0.0000000000000000e+00  -1.2602422467385043e-09 8.3203612576664624e-07 0.0000000000000000e+00  -1.9152551342583321e-08 7.9875961240889204e-07 0.0000000000000000e+00  -9.8068810475690211e-09 7.6489127745532498e-07 0.0000000000000000e+00  -4.0132481506368078e-08 6.9485335080052351e-07 0.0000000000000000e+00  1.0991039284117492e-07 7.9628261083873597e-07 