<?xml version="1.0"?>
<VTKFile type="UnstructuredGrid"  version="0.1"  >
<UnstructuredGrid>
<Piece  NumberOfPoints="11902" NumberOfCells="23402">
<Points>
<DataArray  type="Float64"  NumberOfComponents="3"  format="ascii">-5 -5 0  5 -5 0  5 5 0  -5 5 0  1.124450224929148 0.0008352503063303816 0  -4.9 -5 0  -4.8 -5 0  -4.7 -5 0  -4.6 -5 0  -4.5 -5 0  -4.4 -5 0  -4.3 -5 0  -4.2 -5 0  -4.1 -5 0  -4 -5 0  -3.9 -5 0  -3.8 -5 0  -3.7 -5 0  -3.6 -5 0  -3.5 -5 0  -3.4 -5 0  -3.3 -5 0  -3.2 -5 0  -3.1 -5 0  -3 -5 0  -2.9 -5 0  -2.8 -5 0  -2.7 -5 0  -2.6 -5 0  -2.5 -5 0  -2.4 -5 0  -2.3 -5 0  -2.2 -5 0  -2.1 -5 0  -2 -5 0  -1.9 -5 0  -1.8 -5 0  -1.7 -5 0  -1.6 -5 0  -1.5 -5 0  -1.4 -5 0  -1.3 -5 0  -1.2 -5 0  -1.1 -5 0  -1 -5 0  -0.9000000000000004 -5 0  -0.7999999999999998 -5 0  -0.7000000000000002 -5 0  -0.5999999999999996 -5 0  -0.5 -5 0  -0.4000000000000004 -5 0  -0.2999999999999998 -5 0  -0.2000000000000002 -5 0  -0.09999999999999964 -5 0  0 -5 0  0.09999999999999964 -5 0  0.2000000000000002 -5 0  0.2999999999999998 -5 0  0.4000000000000004 -5 0  0.5 -5 0  0.5999999999999996 -5 0  0.7000000000000002 -5 0  0.7999999999999998 -5 0  0.9000000000000004 -5 0  1 -5 0  1.1 -5 0  1.2 -5 0  1.3 -5 0  1.4 -5 0  1.5 -5 0  1.6 -5 0  1.7 -5 0  1.8 -5 0  1.9 -5 0  2 -5 0  2.1 -5 0  2.2 -5 0  2.3 -5 0  2.4 -5 0  2.5 -5 0  2.6 -5 0  2.7 -5 0  2.8 -5 0  2.9 -5 0  3 -5 0  3.1 -5 0  3.199999999999999 -5 0  3.300000000000001 -5 0  3.4 -5 0  3.5 -5 0  3.6 -5 0  3.699999999999999 -5 0  3.800000000000001 -5 0  3.9 -5 0  4 -5 0  4.1 -5 0  4.199999999999999 -5 0  4.300000000000001 -5 0  4.4 -5 0  4.5 -5 0  4.6 -5 0  4.699999999999999 -5 0  4.800000000000001 -5 0  4.9 -5 0  5 -4.9 0  5 -4.8 0  5 -4.7 0  5 -4.6 0  5 -4.5 0  5 -4.4 0  5 -4.3 0  5 -4.2 0  5 -4.1 0  5 -4 0  5 -3.9 0  5 -3.8 0  5 -3.7 0  5 -3.6 0  5 -3.5 0  5 -3.4 0  5 -3.3 0  5 -3.2 0  5 -3.1 0  5 -3 0  5 -2.9 0  5 -2.8 0  5 -2.7 0  5 -2.6 0  5 -2.5 0  5 -2.4 0  5 -2.3 0  5 -2.2 0  5 -2.1 0  5 -2 0  5 -1.9 0  5 -1.8 0  5 -1.7 0  5 -1.6 0  5 -1.5 0  5 -1.4 0  5 -1.3 0  5 -1.2 0  5 -1.1 0  5 -1 0  5 -0.9000000000000004 0  5 -0.7999999999999998 0  5 -0.7000000000000002 0  5 -0.5999999999999996 0  5 -0.5 0  5 -0.4000000000000004 0  5 -0.2999999999999998 0  5 -0.2000000000000002 0  5 -0.09999999999999964 0  5 0 0  5 0.09999999999999964 0  5 0.2000000000000002 0  5 0.2999999999999998 0  5 0.4000000000000004 0  5 0.5 0  5 0.5999999999999996 0  5 0.7000000000000002 0  5 0.7999999999999998 0  5 0.9000000000000004 0  5 1 0  5 1.1 0  5 1.2 0  5 1.3 0  5 1.4 0  5 1.5 0  5 1.6 0  5 1.7 0  5 1.8 0  5 1.9 0  5 2 0  5 2.1 0  5 2.2 0  5 2.3 0  5 2.4 0  5 2.5 0  5 2.6 0  5 2.7 0  5 2.8 0  5 2.9 0  5 3 0  5 3.1 0  5 3.199999999999999 0  5 3.300000000000001 0  5 3.4 0  5 3.5 0  5 3.6 0  5 3.699999999999999 0  5 3.800000000000001 0  5 3.9 0  5 4 0  5 4.1 0  5 4.199999999999999 0  5 4.300000000000001 0  5 4.4 0  5 4.5 0  5 4.6 0  5 4.699999999999999 0  5 4.800000000000001 0  5 4.9 0  4.9 5 0  4.8 5 0  4.7 5 0  4.6 5 0  4.5 5 0  4.4 5 0  4.3 5 0  4.2 5 0  4.1 5 0  4 5 0  3.9 5 0  3.8 5 0  3.7 5 0  3.6 5 0  3.5 5 0  3.4 5 0  3.3 5 0  3.2 5 0  3.1 5 0  3 5 0  2.9 5 0  2.8 5 0  2.7 5 0  2.6 5 0  2.5 5 0  2.4 5 0  2.3 5 0  2.2 5 0  2.1 5 0  2 5 0  1.9 5 0  1.8 5 0  1.7 5 0  1.6 5 0  1.5 5 0  1.4 5 0  1.3 5 0  1.2 5 0  1.1 5 0  1 5 0  0.9000000000000004 5 0  0.7999999999999998 5 0  0.7000000000000002 5 0  0.5999999999999996 5 0  0.5 5 0  0.4000000000000004 5 0  0.2999999999999998 5 0  0.2000000000000002 5 0  0.09999999999999964 5 0  0 5 0  -0.09999999999999964 5 0  -0.2000000000000002 5 0  -0.2999999999999998 5 0  -0.4000000000000004 5 0  -0.5 5 0  -0.5999999999999996 5 0  -0.7000000000000002 5 0  -0.7999999999999998 5 0  -0.9000000000000004 5 0  -1 5 0  -1.1 5 0  -1.2 5 0  -1.3 5 0  -1.4 5 0  -1.5 5 0  -1.6 5 0  -1.7 5 0  -1.8 5 0  -1.9 5 0  -2 5 0  -2.1 5 0  -2.2 5 0  -2.3 5 0  -2.4 5 0  -2.5 5 0  -2.6 5 0  -2.7 5 0  -2.8 5 0  -2.9 5 0  -3 5 0  -3.1 5 0  -3.199999999999999 5 0  -3.300000000000001 5 0  -3.4 5 0  -3.5 5 0  -3.6 5 0  -3.699999999999999 5 0  -3.800000000000001 5 0  -3.9 5 0  -4 5 0  -4.1 5 0  -4.199999999999999 5 0  -4.300000000000001 5 0  -4.4 5 0  -4.5 5 0  -4.6 5 0  -4.699999999999999 5 0  -4.800000000000001 5 0  -4.9 5 0  -5 4.9 0  -5 4.8 0  -5 4.7 0  -5 4.6 0  -5 4.5 0  -5 4.4 0  -5 4.3 0  -5 4.2 0  -5 4.1 0  -5 4 0  -5 3.9 0  -5 3.8 0  -5 3.7 0  -5 3.6 0  -5 3.5 0  -5 3.4 0  -5 3.3 0  -5 3.2 0  -5 3.1 0  -5 3 0  -5 2.9 0  -5 2.8 0  -5 2.7 0  -5 2.6 0  -5 2.5 0  -5 2.4 0  -5 2.3 0  -5 2.2 0  -5 2.1 0  -5 2 0  -5 1.9 0  -5 1.8 0  -5 1.7 0  -5 1.6 0  -5 1.5 0  -5 1.4 0  -5 1.3 0  -5 1.2 0  -5 1.1 0  -5 1 0  -5 0.9000000000000004 0  -5 0.7999999999999998 0  -5 0.7000000000000002 0  -5 0.5999999999999996 0  -5 0.5 0  -5 0.4000000000000004 0  -5 0.2999999999999998 0  -5 0.2000000000000002 0  -5 0.09999999999999964 0  -5 0 0  -5 -0.09999999999999964 0  -5 -0.2000000000000002 0  -5 -0.2999999999999998 0  -5 -0.4000000000000004 0  -5 -0.5 0  -5 -0.5999999999999996 0  -5 -0.7000000000000002 0  -5 -0.7999999999999998 0  -5 -0.9000000000000004 0  -5 -1 0  -5 -1.1 0  -5 -1.2 0  -5 -1.3 0  -5 -1.4 0  -5 -1.5 0  -5 -1.6 0  -5 -1.7 0  -5 -1.8 0  -5 -1.9 0  -5 -2 0  -5 -2.1 0  -5 -2.2 0  -5 -2.3 0  -5 -2.4 0  -5 -2.5 0  -5 -2.6 0  -5 -2.7 0  -5 -2.8 0  -5 -2.9 0  -5 -3 0  -5 -3.1 0  -5 -3.199999999999999 0  -5 -3.300000000000001 0  -5 -3.4 0  -5 -3.5 0  -5 -3.6 0  -5 -3.699999999999999 0  -5 -3.800000000000001 0  -5 -3.9 0  -5 -4 0  -5 -4.1 0  -5 -4.199999999999999 0  -5 -4.300000000000001 0  -5 -4.4 0  -5 -4.5 0  -5 -4.6 0  -5 -4.699999999999999 0  -5 -4.800000000000001 0  -5 -4.9 0  1.119005027818115 0.1003461292165403 0  1.10198659299712 0.1995742637475328 0  1.073278713668658 0.2973109590058012 0  1.035384471986182 0.3905732337313186 0  0.9867211492484737 0.4815395681958771 0  0.9288080676303963 0.5672083995894405 0  0.8609586950545807 0.6470250008268545 0  0.7839592179306963 0.7200855732877139 0  0.7000444703480166 0.7863602978554127 0  0.6091052142860428 0.8452004115077123 0  0.5115721352718184 0.8952716490318017 0  0.4090424563663988 0.9366085692452651 0  0.3037342053244965 0.969097442106133 0  0.1944301378885929 0.9912361038811042 0  0.08435792739925621 1.004174934097837 0  -0.02698307666156108 1.00676881630111 0  -0.1380912531043566 0.9986629809955235 0  -0.2482184317621777 0.981565889953763 0  -0.3558964973353981 0.9547114017529575 0  -0.4597225427419311 0.9179686372263852 0  -0.5587457279475848 0.8725885580613736 0  -0.6525905447238924 0.8180094796500451 0  -0.7399416525418486 0.755559936977214 0  -0.8201642202637863 0.6857281376611954 0  -0.8926084581158361 0.6081381171378401 0  -0.9556990928171448 0.5250261256306222 0  -1.009975494907539 0.4372242722180106 0  -1.053614741951777 0.3444584459269499 0  -1.086494283810432 0.2488855082573287 0  -1.108833044887313 0.150870468489843 0  -1.12019576681214 0.05083414524265741 0  -1.120222886638369 -0.04978228276126051 0  -1.108881612178328 -0.1496445113348055 0  -1.087701969521995 -0.2476442566843238 0  -1.053529076623817 -0.3439433949186897 0  -1.010256024667504 -0.436101525422911 0  -0.9562672928703929 -0.5241181444375221 0  -0.8933428331710352 -0.6069301945195776 0  -0.8208920149940673 -0.68380576087884 0  -0.7402060126622703 -0.7533140853955907 0  -0.6522408291498694 -0.8150904698145738 0  -0.5590948827461384 -0.8698764235288837 0  -0.4583855430149592 -0.9155044419653797 0  -0.3544427054232467 -0.9528421876271252 0  -0.2465940548079301 -0.9801730923842801 0  -0.1369539995526303 -0.9976917761393046 0  -0.02625895350752365 -1.006280636479893 0  0.08476435050321504 -1.003127612153641 0  0.1957623889993081 -0.9899149644035898 0  0.3043958285536821 -0.9677932323742532 0  0.4110343467249067 -0.9354423230790355 0  0.5123799669833367 -0.8943221060291952 0  0.6095670837056237 -0.8444423849192259 0  0.7002891739707705 -0.7868172926573174 0  0.7841398764560936 -0.7204576750588969 0  0.86061739641295 -0.6465468005816232 0  0.9280397110085239 -0.5664975550679018 0  0.9868643091721276 -0.4810915884374607 0  1.036419154912257 -0.3906665727024405 0  1.074271005661662 -0.2966532979761083 0  1.102078773629874 -0.1990408498622524 0  1.119032117186724 -0.1000609613210335 0  -2.4491450536202 4.919191122376701 0  -2.449071227800974 -4.911666913900108 0  4.911618658417162 2.448736678166833 0  4.919634375727052 -2.450121889147008 0  2.44690479854771 -4.897103350317214 0  2.441314298388914 4.90082125307045 0  -4.91163584193344 -2.448753851695322 0  -4.911636066902056 2.448757615207606 0  -1.749119154421323 4.912554016501994 0  -1.744879653768264 -4.915933474191127 0  4.922111345343478 1.744831713971586 0  4.910854345350852 -1.74870432196731 0  -4.911129509199592 -1.748425586792087 0  -4.911939842831126 1.748161372894651 0  1.746429385884906 4.906525621223701 0  1.747919437221896 -4.894872493803474 0  -1.149307035153262 4.910663046734873 0  -1.13011613384761 -4.918420314652778 0  -4.911270633315456 -1.14860194566754 0  -4.911095858339528 1.14840138351821 0  1.144271204760996 -4.914683143983826 0  1.149311214036517 4.910655188903718 0  4.911428129873592 1.146882664632941 0  4.922005027871525 -1.152586248350977 0  -0.5469115614005565 -4.912012545860762 0  -0.5466701524320129 4.920510923313835 0  -4.910343908693647 -0.5490833329443424 0  -4.910369230150534 0.5476368355568224 0  4.909703859929134 -0.5494088540921302 0  4.921054405893126 0.5461150093164955 0  0.5427167733695075 -4.899185434376369 0  0.5514029261035504 4.917405396853067 0  -4.912677992909447 -3.048967461900202 0  4.919196828878562 3.046940315300911 0  4.912194714896797 -3.048954145961615 0  -4.91352210036509 3.046053613142875 0  3.05580847679337 -4.918158049424616 0  -3.049177132602674 -4.912147065599616 0  3.052732942253188 4.914210881081249 0  -3.048619673358819 4.913030393685104 0  -4.909579552523901 -0.04994514916882529 0  0.04513486784102392 -4.913978183083879 0  0.04958416212609493 4.92085098484718 0  4.916464488372056 -0.05132487399333238 0  3.546021157037502 -4.919569343428398 0  -3.549337023078452 4
[...]
<PointData  Vectors="f_1226"> 
<DataArray  type="Float64"  Name="f_1226"  NumberOfComponents="3" format="ascii">-4.5513170597115754e-07 -4.5514467280321592e-07 0.0000000000000000e+00  4.5513002108806834e-07 -4.5514346875344758e-07 0.0000000000000000e+00  5.0308482590298859e-07 5.0309427335036573e-07 0.0000000000000000e+00  -4.5513130605615304e-07 4.5514409674978056e-07 0.0000000000000000e+00  -6.5177091702412560e-01 -1.3388458848178127e-02 0.0000000000000000e+00  9.1157435782803911e-08 -9.0612052174619262e-07 0.0000000000000000e+00  -1.0661547943393910e-07 -8.6028471378626000e-07 0.0000000000000000e+00  1.0475469302393261e-07 -8.7339468229362541e-07 0.0000000000000000e+00  -9.1423236479393166e-08 -8.8116337998030073e-07 0.0000000000000000e+00  -2.1259833659938188e-08 -9.0532584667935747e-07 0.0000000000000000e+00  3.5858297693836260e-08 -1.0625093858251795e-06 0.0000000000000000e+00  6.0260273109814191e-09 -9.3761154110652495e-07 0.0000000000000000e+00  7.3442967155813157e-08 -7.8007244053466057e-07 0.0000000000000000e+00  -1.0507989036449396e-07 -8.4628012949384930e-07 0.0000000000000000e+00  1.2025426250658207e-07 -8.2656392217263722e-07 0.0000000000000000e+00  -2.6642124069880332e-08 -6.8151314290435821e-07 0.0000000000000000e+00  -5.4037611933824591e-09 -7.5369244825878731e-07 0.0000000000000000e+00  -1.3032237931558861e-08 -7.6821921596482467e-07 0.0000000000000000e+00  1.0337200869114282e-08 -7.7717073620908753e-07 0.0000000000000000e+00  2.6613522457707186e-10 -7.6157624696251558e-07 0.0000000000000000e+00  2.7437452123752633e-10 -7.6096703661845355e-07 0.0000000000000000e+00  5.0492884210780235e-08 -7.2684000307500194e-07 0.0000000000000000e+00  -4.4590380358753982e-08 -6.8856267369756432e-07 0.0000000000000000e+00  2.8882284329829923e-10 -7.5906975274384827e-07 0.0000000000000000e+00  3.9881163436574963e-08 -6.6183844083403444e-07 0.0000000000000000e+00  -1.2851595657756597e-07 -8.0806502327245186e-07 0.0000000000000000e+00  9.7308561615176191e-08 -8.5018260198989312e-07 0.0000000000000000e+00  -9.4309858471175699e-08 -8.5019523033340920e-07 0.0000000000000000e+00  1.2502700825567330e-07 -8.0004302352624978e-07 0.0000000000000000e+00  -3.7930444947102524e-08 -6.4776291984171816e-07 0.0000000000000000e+00  3.0577128370229642e-10 -7.5434709255210969e-07 0.0000000000000000e+00  3.5561985972617529e-08 -6.8593711518412900e-07 0.0000000000000000e+00  -1.2122416009116025e-07 -8.1216253280627040e-07 0.0000000000000000e+00  1.0024024893908696e-07 -8.4651087697579035e-07 0.0000000000000000e+00  -9.4984319255249744e-08 -8.6779727977208933e-07 0.0000000000000000e+00  9.9466167546105483e-10 -8.6915729319935085e-07 0.0000000000000000e+00  6.7797310196589989e-08 -9.7577111749455118e-07 0.0000000000000000e+00  1.1438403236914777e-08 -7.9226815542267539e-07 0.0000000000000000e+00  7.9069942782039190e-09 -7.6353327785332649e-07 0.0000000000000000e+00  5.9699945940209481e-10 -7.4884511213907560e-07 0.0000000000000000e+00  9.9134827615527568e-09 -7.2649631874635603e-07 0.0000000000000000e+00  4.0568371541625708e-08 -6.3730738834485277e-07 0.0000000000000000e+00  -7.9986444116047784e-08 -6.7892923862362011e-07 0.0000000000000000e+00  -8.9183526355256988e-08 -9.6553475407464645e-07 0.0000000000000000e+00  9.7932497757714470e-08 -9.6209002873590318e-07 0.0000000000000000e+00  5.2243894090376815e-08 -7.0152269058931980e-07 0.0000000000000000e+00  -9.5581328960225784e-08 -8.2694808873261090e-07 0.0000000000000000e+00  -1.0721593899121861e-08 -7.5307687588164558e-07 0.0000000000000000e+00  5.8057534898937836e-08 -9.1566230845690952e-07 0.0000000000000000e+00  1.8440444112518342e-09 -7.5891220717857357e-07 0.0000000000000000e+00  4.5638915568448746e-09 -7.5611155570274421e-07 0.0000000000000000e+00  7.4200279765468673e-11 -7.4364094523960015e-07 0.0000000000000000e+00  -3.7119021194032060e-10 -7.4452393184558507e-07 0.0000000000000000e+00  -1.8627046397339748e-09 -7.4897787659298061e-07 0.0000000000000000e+00  -1.2197231254330355e-08 -7.7792273862610293e-07 0.0000000000000000e+00  -7.2693332256276450e-08 -9.6317275449562100e-07 0.0000000000000000e+00  7.7588984922198296e-09 -8.3487979778901175e-07 0.0000000000000000e+00  9.1609680762559637e-08 -8.2635285102695471e-07 0.0000000000000000e+00  -1.0597414580772500e-07 -8.1865972797338900e-07 0.0000000000000000e+00  1.1978567565019353e-07 -8.0134564244929045e-07 0.0000000000000000e+00  -2.7932567355453201e-08 -6.6392766083251350e-07 0.0000000000000000e+00  -9.3936905196613819e-09 -7.4084467776987347e-07 0.0000000000000000e+00  -6.6578239758005625e-09 -7.5222412835471753e-07 0.0000000000000000e+00  5.2331462628042322e-09 -7.5375608569928301e-07 0.0000000000000000e+00  -5.1140887355343776e-09 -7.5685112152164465e-07 0.0000000000000000e+00  -1.0070628857321577e-08 -7.8741095169034529e-07 0.0000000000000000e+00  4.7605352590192773e-08 -7.1492826449722863e-07 0.0000000000000000e+00  -8.6844037115042620e-08 -7.6379262330641822e-07 0.0000000000000000e+00  1.3062399106970421e-08 -8.7601359436019518e-07 0.0000000000000000e+00  5.9147463250695288e-09 -8.3919407016777852e-07 0.0000000000000000e+00  1.5671332234326048e-08 -8.3184016328919370e-07 0.0000000000000000e+00  7.2662132251964477e-08 -6.8981572385448241e-07 0.0000000000000000e+00  -6.8289545885872348e-08 -6.8694920290368220e-07 0.0000000000000000e+00  -1.4613640853099469e-08 -8.1247083928088613e-07 0.0000000000000000e+00  2.7620954333729974e-08 -7.9354330223893768e-07 0.0000000000000000e+00  1.8296903010421245e-09 -7.5913588181733353e-07 0.0000000000000000e+00  1.1728827494905145e-10 -7.5406127779990228e-07 0.0000000000000000e+00  -5.5826123688682635e-09 -7.7759222743257522e-07 0.0000000000000000e+00  5.3615702907707981e-08 -6.9003250624258550e-07 0.0000000000000000e+00  -3.3388572478492053e-08 -6.6159353894551578e-07 0.0000000000000000e+00  -1.6559512439316193e-08 -7.4904586901152865e-07 0.0000000000000000e+00  -4.3676512599193785e-08 -8.0901951303324282e-07 0.0000000000000000e+00  -6.2466544824813804e-09 -8.8122548634401115e-07 0.0000000000000000e+00  8.5838369729507277e-08 -7.4789568087671888e-07 0.0000000000000000e+00  -6.2364589832336245e-08 -7.1843667461567820e-07 0.0000000000000000e+00  -4.7585856566471515e-09 -8.3090160599569025e-07 0.0000000000000000e+00  4.1509355105211917e-08 -7.8841104406102129e-07 0.0000000000000000e+00  -1.8997728629967958e-08 -7.5833578444777667e-07 0.0000000000000000e+00  -2.5321724908770450e-08 -7.9686149886450198e-07 0.0000000000000000e+00  3.0091716950297968e-09 -8.5287437676272662e-07 0.0000000000000000e+00  7.5056633461643756e-08 -7.1683164304209243e-07 0.0000000000000000e+00  -7.3088624816962814e-08 -7.1451352966751443e-07 0.0000000000000000e+00  -8.1336126071741614e-09 -8.4561336561323967e-07 0.0000000000000000e+00  3.3341272550522514e-08 -8.1079266312877950e-07 0.0000000000000000e+00  1.6038006453864972e-08 -7.4625771935999302e-07 0.0000000000000000e+00  -1.2379438123922332e-08 -7.4089829203874458e-07 0.0000000000000000e+00  -6.9018726502434271e-09 -7.7802179805752866e-07 0.0000000000000000e+00  5.2269443857558995e-08 -6.9656469970713782e-07 0.0000000000000000e+00  -6.5792646983133750e-08 -7.0896415313287352e-07 0.0000000000000000e+00  -1.8662999293125502e-08 -8.4061056876784506e-07 0.0000000000000000e+00  2.8444673813784488e-08 -8.1850445052044142e-07 0.0000000000000000e+00  3.3498990047551283e-09 -7.8042182305007430e-07 0.0000000000000000e+00  -6.7071078545724664e-09 -7.9451908472499748e-07 0.0000000000000000e+00  -6.0185945528928843e-08 -9.4822802614969433e-07 0.0000000000000000e+00  8.9115955945669092e-07 8.8204321864750031e-08 0.0000000000000000e+00  8.8550374816267794e-07 -1.2425000137021896e-07 0.0000000000000000e+00  9.1717771456002995e-07 1.1031157995766879e-07 0.0000000000000000e+00  7.5698394116234042e-07 -2.5081100958794686e-08 0.0000000000000000e+00  8.0208779873925670e-07 1.6766464563431806e-08 0.0000000000000000e+00  7.8037828275308679e-07 4.5775699350215400e-10 0.0000000000000000e+00  7.7989261334832190e-07 -2.7691839270855202e-10 0.0000000000000000e+00  7.7975067671186072e-07 7.1463403409480915e-10 0.0000000000000000e+00  7.8396608631510816e-07 -6.4725726406770770e-09 0.0000000000000000e+00  7.9264639577402971e-07 3.7429157743108726e-09 0.0000000000000000e+00  7.9581719178309982e-07 -6.8374315343929528e-09 0.0000000000000000e+00  7.9421114724074079e-07 1.1836890268124812e-08 0.0000000000000000e+00  7.8682289976628231e-07 -1.2913953209309591e-08 0.0000000000000000e+00  7.8711369864805006e-07 9.0513854856157807e-09 0.0000000000000000e+00  8.0164057470152527e-07 -1.4287897735012839e-08 0.0000000000000000e+00  7.9024448801026984e-07 2.2854474404157906e-08 0.0000000000000000e+00  7.7337962137174503e-07 -3.5366620226320903e-09 0.0000000000000000e+00  7.8254029092880293e-07 -1.1280049422352437e-08 0.0000000000000000e+00  7.7202547103709480e-07 1.6213116539005113e-08 0.0000000000000000e+00  7.7756971843649178e-07 -1.8164434087909251e-08 0.0000000000000000e+00  7.9718915252888282e-07 6.0333869769814159e-09 0.0000000000000000e+00  7.7223452669059388e-07 1.3299685452958190e-08 0.0000000000000000e+00  8.0506500602036271e-07 -3.2076376734577243e-08 0.0000000000000000e+00  8.3880090374220183e-07 -8.3011489795169704e-09 0.0000000000000000e+00  8.3671674383680612e-07 8.8868885680602203e-09 0.0000000000000000e+00  7.9731831658746566e-07 2.1411483175929336e-08 0.0000000000000000e+00  7.6535828133195865e-07 1.0736729002001746e-08 0.0000000000000000e+00  7.5209890674358303e-07 4.0661287062443644e-10 0.0000000000000000e+00  7.5116630729145553e-07 4.2354839839835268e-10 0.0000000000000000e+00  7.5022597270396264e-07 4.2401251060024349e-10 0.0000000000000000e+00  7.4932415341968674e-07 4.2061369275849551e-10 0.0000000000000000e+00  7.4839103524567851e-07 4.3317969050189598e-10 0.0000000000000000e+00  7.5846235808529617e-07 -1.1348025157886506e-08 0.0000000000000000e+00  7.7246745730779782e-07 1.5556282413501184e-09 0.0000000000000000e+00  7.5976445187394892e-07 1.1184055271036743e-08 0.0000000000000000e+00  7.9184667703868209e-07 -3.0798626196164125e-08 0.0000000000000000e+00  8.2454057725250521e-07 -9.8911518164650477e-09 0.0000000000000000e+00  8.5280498197248793e-07 -6.1142333619262158e-09 0.0000000000000000e+00  8.5120566417449419e-07 1.7919196714337017e-08 0.0000000000000000e+00  7.3368922089664730e-07 5.0834093093517000e-10 0.0000000000000000e+00  8.2114034230799174e-07 3.4199837291877303e-08 0.0000000000000000e+00  7.4319931011155241e-07 -1.0468025853461606e-09 0.0000000000000000e+00  7.3926999679152938e-07 1.5831838320504668e-09 0.0000000000000000e+00  7.3893605453870158e-07 2.4127956943625715e-10 0.0000000000000000e+00  7.9378004011071678e-07 -3.0209429141837305e-08 0.0000000000000000e+00  8.0361076086073962e-07 -9.1955885860609707e-09 0.0000000000000000e+00  8.2582014387373143e-07 -1.6274257832754258e-09 0.0000000000000000e+00  8.1663085130374246e-07 7.0038610667044531e-09 0.0000000000000000e+00  8.1278752428993623e-07 6.6505740813669256e-09 0.0000000000000000e+00  8.1142683660473443e-07 -1.4663581179534318e-08 0.0000000000000000e+00  8.4201766305177675e-07 -2.0734593071703760e-09 0.0000000000000000e+00  8.5129637908702628e-07 -1.7224861440397095e-09 0.0000000000000000e+00  8.3115729648069445e-07 5.6037222286117035e-10 0.0000000000000000e+00  8.4553276838676462e-07 5.2075130532163368e-10 0.0000000000000000e+00  8.5199212128245474e-07 -1.3925956822767585e-09 0.0000000000000000e+00  8.3199561548700309e-07 4.4952257226889974e-10 0.0000000000000000e+00  8.4355788652668686e-07 1.4477454710731142e-09 0.0000000000000000e+00  8.3827994437249795e-07 2.7227807899077615e-09 0.0000000000000000e+00  7.9561685700230034e-07 2.4711006447304875e-08 0.0000000000000000e+00  7.7352211342654721e-07 -5.4132906569156777e-12 0.0000000000000000e+00  7.7029358192388908e-07 8.8339690827122957e-09 0.0000000000000000e+00  7.6766779450859663e-07 -1.1928858207426419e-08 0.0000000000000000e+00  7.7384269512445009e-07 -1.9836073006208639e-10 0.0000000000000000e+00  7.8678827867443619e-07 -1.5727473104727724e-13 0.0000000000000000e+00  8.0595672155093184e-07 -2.3950459881592021e-08 0.0000000000000000e+00  8.4815964466112375e-07 -3.8280220203987504e-09 0.0000000000000000e+00  8.6232513357322266e-07 -2.8076280252868798e-09 0.0000000000000000e+00  8.4381125467747879e-07 -2.7964679139906840e-11 0.0000000000000000e+00  8.5555876281557523e-07 3.4239040804557824e-09 0.0000000000000000e+00  8.3041390250561679e-07 1.2338200264677254e-08 0.0000000000000000e+00  7.8108409140153408e-07 2.2658321769612299e-08 0.0000000000000000e+00  7.5583517620417035e-07 4.0865094411962957e-09 0.0000000000000000e+00  7.5297329013592838e-07 -3.9705012604302515e-10 0.0000000000000000e+00  7.5382140708452577e-07 -3.7210867356178382e-10 0.0000000000000000e+00  7.5717483326978572e-07 -1.4272684634991514e-09 0.0000000000000000e+00  7.6474945703650120e-07 -4.7602432889849097e-09 0.0000000000000000e+00  7.8572047479542238e-07 -1.0453874696446439e-08 0.0000000000000000e+00  8.1814426942179977e-07 -2.3659665352907268e-08 0.0000000000000000e+00  8.5786785488548892e-07 -9.9740527425320678e-10 0.0000000000000000e+00  8.3779367234308854e-07 1.1458548028765767e-08 0.0000000000000000e+00  8.0987633663018446e-07 1.4937399260807574e-08 0.0000000000000000e+00  8.0343926302411707e-07 -8.0042634959451736e-09 0.0000000000000000e+00  8.2236212918509227e-07 -1.9106412027843586e-08 0.0000000000000000e+00  8.5714138396578157e-07 2.2824421582778558e-10 0.0000000000000000e+00  8.4167905956590216e-07 1.0757781901273307e-08 0.0000000000000000e+00  8.1372879241468677e-07 8.8031729621577923e-09 0.0000000000000000e+00  7.8289666845573447e-07 1.8427701951738672e-08 0.0000000000000000e+00  7.7349985238741908e-07 -8.0111317836861624e-09 0.0000000000000000e+00  7.7264901319087511e-07 7.5070215295355501e-09 0.0000000000000000e+00  7.6492544076310134e-07 -2.2738512450313584e-10 0.0000000000000000e+00  7.6543765926935302e-07 -2.2043141386163448e-10 0.0000000000000000e+00  7.7893283249320691e-07 -1.1372070579436783e-08 0.0000000000000000e+00  7.7931694325007202e-07 1.0949532544851586e-08 0.0000000000000000e+00  7.6964230002518497e-07 -2.4979569786798927e-09 0.0000000000000000e+00  8.0037579668260773e-07 -1.2038061539297779e-08 0.0000000000000000e+00  8.1455761082584926e-07 -6.9725557942600081e-09 0.0000000000000000e+00  8.2329643558312247e-07 -1.7194943177738159e-08 0.0000000000000000e+00  8.4643748624179952e-07 -3.7295979004816939e-09 0.0000000000000000e+00  1.0392675485981607e-06 -6.0174225980513814e-08 0.0000000000000000e+00  -1.0907285662665233e-07 9.7281510471490594e-07 0.0000000000000000e+00  5.7029514632047104e-08 8.3002739247522936e-07 0.0000000000000000e+00  1.0613055076625332e-09 9.4642424280197504e-07 0.0000000000000000e+00  3.4527198150428584e-08 1.0622160537416179e-06 0.0000000000000000e+00  -1.8613471649964456e-08 9.0148951762670353e-07 0.0000000000000000e+00  -8.8517267645220982e-08 8.9502678167250770e-07 0.0000000000000000e+00  1.3335713290777622e-07 9.2024637947678658e-07 0.0000000000000000e+00  -1.4567091849807745e-07 9.2573654221337531e-07 0.0000000000000000e+00  1.1972228471290723e-08 7.0732860596526624e-07 0.0000000000000000e+00  7.7569016117938912e-09 7.6269648277009638e-07 0.0000000000000000e+00  -1.2196257032483652e-08 7.7883748182892844e-07 0.0000000000000000e+00  -1.1605612301353041e-08 7.5292586711629714e-07 0.0000000000000000e+00  -3.3801061669813997e-08 6.6296298130649741e-07 0.0000000000000000e+00  5.6722996156477118e-08 6.9648229369666962e-07 0.0000000000000000e+00  1.0696605634421672e-09 7.9256311451050026e-07 0.0000000000000000e+00  -1.8090128623929405e-09 7.8263761682315531e-07 0.0000000000000000e+00  -1.4505128770104036e-09 7.7655632197804719e-07 0.0000000000000000e+00  2.1627524547055416e-09 7.7965802948879331e-07 0.0000000000000000e+00  -1.2773608395722556e-09 7.8987502030830185e-07 0.0000000000000000e+00  -5.6471244968118995e-08 6.9667544645107947e-07 0.0000000000000000e+00  4.2348623660380595e-08 6.7798288438354930e-07 0.0000000000000000e+00  -3.8032902045550066e-09 7.4869616679777628e-07 0.0000000000000000e+00  9.1802329743568501e-09 7.5413400269804261e-07 0.0000000000000000e+00  -9.0139842065882641e-09 7.5095102138258422e-07 0.0000000000000000e+00  -2.7826481297008872e-08 6.7393117245524285e-07 0.0000000000000000e+00  1.1966345137416227e-07 8.1201469806573185e-07 0.0000000000000000e+00  -1.0515268777331066e-07 8.3546307719413093e-07 0.0000000000000000e+00  7.3781899447365768e-08 7.6796460009334431e-07 0.0000000000000000e+00  4.3195693769879479e-09 9.2370842146999497e-07 0.0000000000000000e+00  3.5209387825334619e-08 1.0411578629526892e-06 0.0000000000000000e+00  -2.3346075464239234e-08 8.8571664639496985e-07 0.0000000000000000e+00  -9.2516839873709461e-08 8.5844223835746180e-07 0.0000000000000000e+00  9.5976916714381737e-08 8.4039973955748483e-07 0.0000000000000000e+00  -1.2884147426633207e-07 7.9556487504947108e-07 0.0000000000000000e+00  4.2106383479288464e-08 6.6068067934024581e-07 0.0000000000000000e+00  -1.0473228559048969e-08 7.3217003321075936e-07 0.0000000000000000e+00  1.3531958562867103e-08 7.4140723465307711e-07 0.0000000000000000e+00  -3.6191819290823511e-09 7.5229218583320514e-07 0.0000000000000000e+00  -2.1553308876336859e-10 7.4611248231264781e-07 0.0000000000000000e+00  -2.0482967000370575e-10 7.4565219324306947e-07 0.0000000000000000e+00  -5.1274432912130915e-08 7.1558063315887927e-07 0.0000000000000000e+00  4.4467320147238883e-08 6.7143900124609204e-07 0.0000000000000000e+00  -1.5001247401525631e-09 7.5156808513907126e-07 0.0000000000000000e+00  2.8317344663889103e-08 7.7266247208022128e-07 0.0000000000000000e+00  -9.9001759434605566e-09 8.1501962118327448e-07 0.0000000000000000e+00  -7.0985517953197747e-08 6.8141249180906665e-07 0.0000000000000000e+00  6.8367575004465307e-08 6.7814564371201906e-07 0.0000000000000000e+00  2.5230095877752498e-08 8.1892092413376873e-07 0.0000000000000000e+00  8.6959704418150431e-10 8.4223698965704789e-07 0.0000000000000000e+00  5.5219086059459285e-09 8.6049562453781210e-07 0.0000000000000000e+00  -8.5793714227891728e-08 7.3085676893663182e-07 0.0000000000000000e+00  6.3504307817137303e-08 7.0247929058388320e-07 0.0000000000000000e+00  2.2483395427985162e-08 8.3791089118784498e-07 0.0000000000000000e+00  6.7990354240442560e-09 8.7083365028944458e-07 0.0000000000000000e+00  -1.1833113030588355e-08 8.6429440480737005e-07 0.0000000000000000e+00  -5.8397781964795611e-08 7.1861718039122604e-07 0.0000000000000000e+00  1.1942257143454532e-07 8.2962618856016395e-07 0.0000000000000000e+00  -1.0430040052658230e-07 8.5339516784503839e-07 0.0000000000000000e+00  8.6623810950520489e-08 8.4080063248884498e-07 0.0000000000000000e+00  -1.2890889876976335e-07 7.7909812693649483e-07 0.0000000000000000e+00  4.4316529176788294e-08 6.4282464263691365e-07 0.0000000000000000e+00  5.3515203867362249e-09 7.5245406362611883e-07 0.0000000000000000e+00  1.1099435274361332e-09 7.5973208909346262e-07 0.0000000000000000e+00  -5.7097588684493665e-09 7.5444395188393331e-07 0.0000000000000000e+00  1.1336829198500139e-09 7.4886373985873143e-07 0.0000000000000000e+00  -6.0266180390203948e-10 7.5036525057724278e-07 0.0000000000000000e+00  5.8482558091497021e-09 7.5585255498522847e-07 0.0000000000000000e+00  2.5699754944845062e-08 7.9266082933889814e-07 0.0000000000000000e+00  -8.9293540316836384e-09 8.2280283918766122e-07 0.0000000000000000e+00  -7.0194152230905200e-08 6.9894149551559113e-07 0.0000000000000000e+00  5.3885621872992984e-08 7.0338875671328876e-07 0.0000000000000000e+00  3.0911238084738970e-10 7.5293733462421609e-07 0.0000000000000000e+00  3.0933586762380592e-08 7.8156109943332118e-07 0.0000000000000000e+00  -1.3112506517419156e-09 8.3479298892493193e-07 0.0000000000000000e+00  -1.9203529838839918e-08 8.0131791990846152e-07 0.0000000000000000e+00  -9.8573129852617366e-09 7.6721205972078253e-07 0.0000000000000000e+00  -4.0183598780499206e-08 6.9691244874574559e-07 0.0000000000000000e+00  1.0986565095567791e-07 7.9826254935348446e-07 