<?xml version="1.0"?>
<VTKFile type="UnstructuredGrid"  version="0.1"  >
<UnstructuredGrid>
<Piece  NumberOfPoints="11902" NumberOfCells="23402">
<Points>
<DataArray  type="Float64"  NumberOfComponents="3"  format="ascii">-5 -5 0  5 -5 0  5 5 0  -5 5 0  1.043457053570584 0.0002828768954929816 0  -4.9 -5 0  -4.8 -5 0  -4.7 -5 0  -4.6 -5 0  -4.5 -5 0  -4.4 -5 0  -4.3 -5 0  -4.2 -5 0  -4.1 -5 0  -4 -5 0  -3.9 -5 0  -3.8 -5 0  -3.7 -5 0  -3.6 -5 0  -3.5 -5 0  -3.4 -5 0  -3.3 -5 0  -3.2 -5 0  -3.1 -5 0  -3 -5 0  -2.9 -5 0  -2.8 -5 0  -2.7 -5 0  -2.6 -5 0  -2.5 -5 0  -2.4 -5 0  -2.3 -5 0  -2.2 -5 0  -2.1 -5 0  -2 -5 0  -1.9 -5 0  -1.8 -5 0  -1.7 -5 0  -1.6 -5 0  -1.5 -5 0  -1.4 -5 0  -1.3 -5 0  -1.2 -5 0  -1.1 -5 0  -1 -5 0  -0.9000000000000004 -5 0  -0.7999999999999998 -5 0  -0.7000000000000002 -5 0  -0.5999999999999996 -5 0  -0.5 -5 0  -0.4000000000000004 -5 0  -0.2999999999999998 -5 0  -0.2000000000000002 -5 0  -0.09999999999999964 -5 0  0 -5 0  0.09999999999999964 -5 0  0.2000000000000002 -5 0  0.2999999999999998 -5 0  0.4000000000000004 -5 0  0.5 -5 0  0.5999999999999996 -5 0  0.7000000000000002 -5 0  0.7999999999999998 -5 0  0.9000000000000004 -5 0  1 -5 0  1.1 -5 0  1.2 -5 0  1.3 -5 0  1.4 -5 0  1.5 -5 0  1.6 -5 0  1.7 -5 0  1.8 -5 0  1.9 -5 0  2 -5 0  2.1 -5 0  2.2 -5 0  2.3 -5 0  2.4 -5 0  2.5 -5 0  2.6 -5 0  2.7 -5 0  2.8 -5 0  2.9 -5 0  3 -5 0  3.1 -5 0  3.199999999999999 -5 0  3.300000000000001 -5 0  3.4 -5 0  3.5 -5 0  3.6 -5 0  3.699999999999999 -5 0  3.800000000000001 -5 0  3.9 -5 0  4 -5 0  4.1 -5 0  4.199999999999999 -5 0  4.300000000000001 -5 0  4.4 -5 0  4.5 -5 0  4.6 -5 0  4.699999999999999 -5 0  4.800000000000001 -5 0  4.9 -5 0  5 -4.9 0  5 -4.8 0  5 -4.7 0  5 -4.6 0  5 -4.5 0  5 -4.4 0  5 -4.3 0  5 -4.2 0  5 -4.1 0  5 -4 0  5 -3.9 0  5 -3.8 0  5 -3.7 0  5 -3.6 0  5 -3.5 0  5 -3.4 0  5 -3.3 0  5 -3.2 0  5 -3.1 0  5 -3 0  5 -2.9 0  5 -2.8 0  5 -2.7 0  5 -2.6 0  5 -2.5 0  5 -2.4 0  5 -2.3 0  5 -2.2 0  5 -2.1 0  5 -2 0  5 -1.9 0  5 -1.8 0  5 -1.7 0  5 -1.6 0  5 -1.5 0  5 -1.4 0  5 -1.3 0  5 -1.2 0  5 -1.1 0  5 -1 0  5 -0.9000000000000004 0  5 -0.7999999999999998 0  5 -0.7000000000000002 0  5 -0.5999999999999996 0  5 -0.5 0  5 -0.4000000000000004 0  5 -0.2999999999999998 0  5 -0.2000000000000002 0  5 -0.09999999999999964 0  5 0 0  5 0.09999999999999964 0  5 0.2000000000000002 0  5 0.2999999999999998 0  5 0.4000000000000004 0  5 0.5 0  5 0.5999999999999996 0  5 0.7000000000000002 0  5 0.7999999999999998 0  5 0.9000000000000004 0  5 1 0  5 1.1 0  5 1.2 0  5 1.3 0  5 1.4 0  5 1.5 0  5 1.6 0  5 1.7 0  5 1.8 0  5 1.9 0  5 2 0  5 2.1 0  5 2.2 0  5 2.3 0  5 2.4 0  5 2.5 0  5 2.6 0  5 2.7 0  5 2.8 0  5 2.9 0  5 3 0  5 3.1 0  5 3.199999999999999 0  5 3.300000000000001 0  5 3.4 0  5 3.5 0  5 3.6 0  5 3.699999999999999 0  5 3.800000000000001 0  5 3.9 0  5 4 0  5 4.1 0  5 4.199999999999999 0  5 4.300000000000001 0  5 4.4 0  5 4.5 0  5 4.6 0  5 4.699999999999999 0  5 4.800000000000001 0  5 4.9 0  4.9 5 0  4.8 5 0  4.7 5 0  4.6 5 0  4.5 5 0  4.4 5 0  4.3 5 0  4.2 5 0  4.1 5 0  4 5 0  3.9 5 0  3.8 5 0  3.7 5 0  3.6 5 0  3.5 5 0  3.4 5 0  3.3 5 0  3.2 5 0  3.1 5 0  3 5 0  2.9 5 0  2.8 5 0  2.7 5 0  2.6 5 0  2.5 5 0  2.4 5 0  2.3 5 0  2.2 5 0  2.1 5 0  2 5 0  1.9 5 0  1.8 5 0  1.7 5 0  1.6 5 0  1.5 5 0  1.4 5 0  1.3 5 0  1.2 5 0  1.1 5 0  1 5 0  0.9000000000000004 5 0  0.7999999999999998 5 0  0.7000000000000002 5 0  0.5999999999999996 5 0  0.5 5 0  0.4000000000000004 5 0  0.2999999999999998 5 0  0.2000000000000002 5 0  0.09999999999999964 5 0  0 5 0  -0.09999999999999964 5 0  -0.2000000000000002 5 0  -0.2999999999999998 5 0  -0.4000000000000004 5 0  -0.5 5 0  -0.5999999999999996 5 0  -0.7000000000000002 5 0  -0.7999999999999998 5 0  -0.9000000000000004 5 0  -1 5 0  -1.1 5 0  -1.2 5 0  -1.3 5 0  -1.4 5 0  -1.5 5 0  -1.6 5 0  -1.7 5 0  -1.8 5 0  -1.9 5 0  -2 5 0  -2.1 5 0  -2.2 5 0  -2.3 5 0  -2.4 5 0  -2.5 5 0  -2.6 5 0  -2.7 5 0  -2.8 5 0  -2.9 5 0  -3 5 0  -3.1 5 0  -3.199999999999999 5 0  -3.300000000000001 5 0  -3.4 5 0  -3.5 5 0  -3.6 5 0  -3.699999999999999 5 0  -3.800000000000001 5 0  -3.9 5 0  -4 5 0  -4.1 5 0  -4.199999999999999 5 0  -4.300000000000001 5 0  -4.4 5 0  -4.5 5 0  -4.6 5 0  -4.699999999999999 5 0  -4.800000000000001 5 0  -4.9 5 0  -5 4.9 0  -5 4.8 0  -5 4.7 0  -5 4.6 0  -5 4.5 0  -5 4.4 0  -5 4.3 0  -5 4.2 0  -5 4.1 0  -5 4 0  -5 3.9 0  -5 3.8 0  -5 3.7 0  -5 3.6 0  -5 3.5 0  -5 3.4 0  -5 3.3 0  -5 3.2 0  -5 3.1 0  -5 3 0  -5 2.9 0  -5 2.8 0  -5 2.7 0  -5 2.6 0  -5 2.5 0  -5 2.4 0  -5 2.3 0  -5 2.2 0  -5 2.1 0  -5 2 0  -5 1.9 0  -5 1.8 0  -5 1.7 0  -5 1.6 0  -5 1.5 0  -5 1.4 0  -5 1.3 0  -5 1.2 0  -5 1.1 0  -5 1 0  -5 0.9000000000000004 0  -5 0.7999999999999998 0  -5 0.7000000000000002 0  -5 0.5999999999999996 0  -5 0.5 0  -5 0.4000000000000004 0  -5 0.2999999999999998 0  -5 0.2000000000000002 0  -5 0.09999999999999964 0  -5 0 0  -5 -0.09999999999999964 0  -5 -0.2000000000000002 0  -5 -0.2999999999999998 0  -5 -0.4000000000000004 0  -5 -0.5 0  -5 -0.5999999999999996 0  -5 -0.7000000000000002 0  -5 -0.7999999999999998 0  -5 -0.9000000000000004 0  -5 -1 0  -5 -1.1 0  -5 -1.2 0  -5 -1.3 0  -5 -1.4 0  -5 -1.5 0  -5 -1.6 0  -5 -1.7 0  -5 -1.8 0  -5 -1.9 0  -5 -2 0  -5 -2.1 0  -5 -2.2 0  -5 -2.3 0  -5 -2.4 0  -5 -2.5 0  -5 -2.6 0  -5 -2.7 0  -5 -2.8 0  -5 -2.9 0  -5 -3 0  -5 -3.1 0  -5 -3.199999999999999 0  -5 -3.300000000000001 0  -5 -3.4 0  -5 -3.5 0  -5 -3.6 0  -5 -3.699999999999999 0  -5 -3.800000000000001 0  -5 -3.9 0  -5 -4 0  -5 -4.1 0  -5 -4.199999999999999 0  -5 -4.300000000000001 0  -5 -4.4 0  -5 -4.5 0  -5 -4.6 0  -5 -4.699999999999999 0  -5 -4.800000000000001 0  -5 -4.9 0  1.038326740315411 0.1001228681990381 0  1.022761726416639 0.1992107110811581 0  0.9967319067030048 0.2964484928208787 0  0.961320761924095 0.3903215283335054 0  0.9162759449204532 0.4807814005121208 0  0.8622892101500421 0.5663023521066408 0  0.7995133466417419 0.6460193094342083 0  0.7284767340086046 0.7192683509719261 0  0.6505486053550114 0.7855427347450255 0  0.5661752034610621 0.8441292070802001 0  0.4760070413927891 0.8940812230032632 0  0.3810066509843537 0.9352258280966348 0  0.282719052189508 0.9672578967181059 0  0.18126550273348 0.9893604059575292 0  0.07826843329766016 1.001882663672005 0  -0.02565371731688544 1.004407878557956 0  -0.1293373725546248 0.9967841129306599 0  -0.2317451921988878 0.979608546846939 0  -0.3318036524760581 0.9526047981503415 0  -0.4285225793577542 0.9159645189518125 0  -0.5209222342062898 0.8704446952026558 0  -0.6082144625857173 0.8161178173273261 0  -0.68947890045319 0.7537634242603309 0  -0.7638999952227573 0.6840104845059368 0  -0.8307988605152322 0.6070861846246949 0  -0.88927854645141 0.5242076596568228 0  -0.9392052124115481 0.4363299448735329 0  -0.9795525107689106 0.3439141736692732 0  -1.010086582526684 0.2482219343421821 0  -1.030746076342158 0.1500881911346466 0  -1.041184190381595 0.05032124196118071 0  -1.041194252703284 -0.04997450693722908 0  -1.030769500710155 -0.1496906085321317 0  -1.010636200289653 -0.2477914486667379 0  -0.9795560617749604 -0.3436530673131065 0  -0.9392842926796374 -0.435867995392323 0  -0.8894464051312666 -0.5238306344639814 0  -0.830988396828977 -0.6065939426246634 0  -0.7640666449851796 -0.6832874035353531 0  -0.6894646285109278 -0.7529878719687974 0  -0.6080114817110257 -0.8151234076271715 0  -0.5210564467523646 -0.8696855694512408 0  -0.4281554270788757 -0.9151745404501452 0  -0.3313984234706172 -0.9519460055844792 0  -0.2312313235545436 -0.9790357155514582 0  -0.1289042997739613 -0.9963750956626547 0  -0.02535650330058135 -1.004235026324481 0  0.07836044636868474 -1.001576661153776 0  0.1816099768333052 -0.988922803417719 0  0.2828353972024902 -0.9667621328101875 0  0.3816205050723047 -0.934746085129977 0  0.4761880135584793 -0.8936239289806571 0  0.5663440882944424 -0.8436907586322802 0  0.6506703812581596 -0.7856138494453612 0  0.7285840177849567 -0.7193646384436331 0  0.7993804842859706 -0.6458379323912625 0  0.8620587798507321 -0.5659487208982873 0  0.9164104464339278 -0.480550131551518 0  0.9617917151028508 -0.3903273569786905 0  0.9971116644171736 -0.2963047754213452 0  1.022789279711573 -0.1990331803035884 0  1.038356305014091 -0.1000507067271766 0  -2.449662480444185 4.920151964240295 0  -2.44963423225471 -4.912714469986852 0  4.912691139681334 2.449495058001848 0  4.920607475221968 -2.45081154276287 0  2.447559943858574 -4.898334197470688 0  2.441948180521137 4.902011884749587 0  -4.912699344518078 -2.449503886892073 0  -4.912702377540863 2.449507450335014 0  -1.749650713792174 4.913930315922532 0  -1.745387792301796 -4.917254140168334 0  4.923461569597655 1.745515687199254 0  4.912395952887851 -1.749488515874259 0  -4.912654068510993 -1.749198013140508 0  -4.913453635736024 1.748925537377434 0  1.746993618985727 4.908004374241816 0  1.748551442299487 -4.896532543718105 0  -1.149728267987274 4.912323009730999 0  -1.130494698445504 -4.919937125234823 0  -4.913173791090834 -1.149235705344502 0  -4.913005401458173 1.149034117207638 0  1.144664639817322 -4.916271346466807 0  1.149727369877616 4.912320111712914 0  4.91334711343843 1.147521314344857 0  4.923690732033845 -1.153151326918569 0  -0.547130134273924 -4.91380987251127 0  -0.546867956612926 4.9221400567837 0  -4.912550351356665 -0.5494349326281626 0  -4.912576926228352 0.5479844543906722 0  4.911947162785942 -0.5497672947983532 0  4.923016816100566 0.5464252296232541 0  0.5429560293814627 -4.901250253956368 0  0.551604114879176 4.919099798976041 0  -4.913397160527357 -3.049588848346175 0  4.91986817232095 3.047521921826573 0  4.912922100249478 -3.049585732079002 0  -4.914237977464271 3.046670032907157 0  3.056271818452567 -4.91886534580074 0  -3.049675239392744 -4.9129029126169 0  3.053220652013484 4.914954327567644 0  -3.049114870948303 4.913780683056034 0  -4.91189942426203 -0.04998028475789181 0  0.04514810080491664 -4.915787661527171 0  0.0495992936673391 4.922520910828786 0  4.918627964081163 -0.05135780291568615 0  3.546389861205015 -4.920066127461864 0  -3.54973791610465
[...]
<PointData  Vectors="f_484"> 
<DataArray  type="Float64"  Name="f_484"  NumberOfComponents="3" format="ascii">-4.5525753932909674e-07 -4.5526275401700609e-07 0.0000000000000000e+00  4.5525687483050898e-07 -4.5526229333483045e-07 0.0000000000000000e+00  5.0321050071139415e-07 5.0321429133255982e-07 0.0000000000000000e+00  -4.5525738141962117e-07 4.5526252244669352e-07 0.0000000000000000e+00  -9.1219371770094060e-01 -1.9391620852840841e-02 0.0000000000000000e+00  9.1044087079447828e-08 -9.0654561611226575e-07 0.0000000000000000e+00  -1.0676645755740084e-07 -8.6113675774582980e-07 0.0000000000000000e+00  1.0465344080742395e-07 -8.7441838456927976e-07 0.0000000000000000e+00  -9.1584445800812749e-08 -8.8277362801515817e-07 0.0000000000000000e+00  -2.1424578594237684e-08 -9.0730626223729949e-07 0.0000000000000000e+00  3.5725250447293738e-08 -1.0650649998874878e-06 0.0000000000000000e+00  5.8890429825398231e-09 -9.4031821542560529e-07 0.0000000000000000e+00  7.3322875787680949e-08 -7.8249526836170997e-07 0.0000000000000000e+00  -1.0524302851306245e-07 -8.4977136667856042e-07 0.0000000000000000e+00  1.2014578060367802e-07 -8.2962371208227719e-07 0.0000000000000000e+00  -2.6798267303499967e-08 -6.8479611694644442e-07 0.0000000000000000e+00  -5.5563991735429872e-09 -7.5755375983774251e-07 0.0000000000000000e+00  -1.3190077254927366e-08 -7.7253846994022374e-07 0.0000000000000000e+00  1.0181514220585103e-08 -7.8179979449965179e-07 0.0000000000000000e+00  1.0481270450821189e-10 -7.6652194895357464e-07 0.0000000000000000e+00  1.0950620863715898e-10 -7.6627871971880906e-07 0.0000000000000000e+00  5.0337945287530915e-08 -7.3201046523261282e-07 0.0000000000000000e+00  -4.4770001798720359e-08 -6.9431155991706030e-07 0.0000000000000000e+00  1.1473392631076662e-10 -7.6551796494833413e-07 0.0000000000000000e+00  3.9707587139237246e-08 -6.6758965272174441e-07 0.0000000000000000e+00  -1.2869118777691862e-07 -8.1654683201794321e-07 0.0000000000000000e+00  9.7137933271021533e-08 -8.5815660140548463e-07 0.0000000000000000e+00  -9.4502190519467846e-08 -8.5981730076421280e-07 0.0000000000000000e+00  1.2487099856878707e-07 -8.0818543207784078e-07 0.0000000000000000e+00  -3.8122398927713620e-08 -6.5562521703231559e-07 0.0000000000000000e+00  1.1803037914161306e-10 -7.6362374952721655e-07 0.0000000000000000e+00  3.5372955899292078e-08 -6.9452649286718920e-07 0.0000000000000000e+00  -1.2139531300553881e-07 -8.2384996010784976e-07 0.0000000000000000e+00  1.0005449309089033e-07 -8.5769176035831816e-07 0.0000000000000000e+00  -9.5168287817929270e-08 -8.8101290652229039e-07 0.0000000000000000e+00  7.6340788599454276e-10 -8.8223896447365224e-07 0.0000000000000000e+00  6.7600461239203191e-08 -9.9061218643227018e-07 0.0000000000000000e+00  1.1261631836483466e-08 -8.0498395472863928e-07 0.0000000000000000e+00  7.7357526176440217e-09 -7.7619747682655892e-07 0.0000000000000000e+00  4.3265733105363033e-10 -7.6167823683360375e-07 0.0000000000000000e+00  9.7533207034224989e-09 -7.3923871578488677e-07 0.0000000000000000e+00  4.0403893103379794e-08 -6.4858898657263471e-07 0.0000000000000000e+00  -8.0090135048408553e-08 -6.9188436414095065e-07 0.0000000000000000e+00  -8.9284687888732192e-08 -9.8427602781750984e-07 0.0000000000000000e+00  9.7786953025583719e-08 -9.8029194831018894e-07 0.0000000000000000e+00  5.2114223584728788e-08 -7.1510144246608293e-07 0.0000000000000000e+00  -9.5655995511084779e-08 -8.4384785600841827e-07 0.0000000000000000e+00  -1.0828618622136609e-08 -7.6833868325285241e-07 0.0000000000000000e+00  5.7954246144843438e-08 -9.3437344442916176e-07 0.0000000000000000e+00  1.7758816954196553e-09 -7.7466398078230286e-07 0.0000000000000000e+00  4.5072010549085301e-09 -7.7194034220957722e-07 0.0000000000000000e+00  3.2314000994321449e-11 -7.5931897144899287e-07 0.0000000000000000e+00  -3.9955958986910430e-10 -7.6029947499848672e-07 0.0000000000000000e+00  -1.8768884131598033e-09 -7.6489857478832064e-07 0.0000000000000000e+00  -1.2193468688868377e-08 -7.9448810274220077e-07 0.0000000000000000e+00  -7.2653871433382520e-08 -9.8370106850594640e-07 0.0000000000000000e+00  7.7967490459213251e-09 -8.5254875950910592e-07 0.0000000000000000e+00  9.1614249366343992e-08 -8.4394604816210267e-07 0.0000000000000000e+00  -1.0588370211415794e-07 -8.3566312568718911e-07 0.0000000000000000e+00  1.1980164061465964e-07 -8.1830289327426617e-07 0.0000000000000000e+00  -2.7843218059950070e-08 -6.7749194933846313e-07 0.0000000000000000e+00  -9.3001325429387088e-09 -7.5588193015913719e-07 0.0000000000000000e+00  -6.5544105048617843e-09 -7.6728336708103391e-07 0.0000000000000000e+00  5.3435740396239511e-09 -7.6865001357752050e-07 0.0000000000000000e+00  -4.9899522512492206e-09 -7.7150154334993317e-07 0.0000000000000000e+00  -9.9356414825812574e-09 -8.0233846489862436e-07 0.0000000000000000e+00  4.7730166130811730e-08 -7.2844844557400613e-07 0.0000000000000000e+00  -8.6674804431219104e-08 -7.7721974684765912e-07 0.0000000000000000e+00  1.3216567237397020e-08 -8.9160941017208121e-07 0.0000000000000000e+00  6.0766384095332757e-09 -8.5369456328673892e-07 0.0000000000000000e+00  1.5836457276363955e-08 -8.4586239297406626e-07 0.0000000000000000e+00  7.2819299067342916e-08 -7.0144008993730571e-07 0.0000000000000000e+00  -6.8105056670031759e-08 -6.9731106279963455e-07 0.0000000000000000e+00  -1.4430466390294148e-08 -8.2470285739825891e-07 0.0000000000000000e+00  2.7803947237375949e-08 -8.0532266162332909e-07 0.0000000000000000e+00  2.0159955089015684e-09 -7.6982736819377709e-07 0.0000000000000000e+00  3.0485870810770147e-10 -7.6425037867798807e-07 0.0000000000000000e+00  -5.3943203196089547e-09 -7.8762738385942059e-07 0.0000000000000000e+00  5.3801641453307035e-08 -6.9892970451586272e-07 0.0000000000000000e+00  -3.3202902739164200e-08 -6.6921245564525981e-07 0.0000000000000000e+00  -1.6374059924756413e-08 -7.5738490767888350e-07 0.0000000000000000e+00  -4.3496562451601077e-08 -8.1741706919489675e-07 0.0000000000000000e+00  -6.0640667537015318e-09 -8.9014119242735500e-07 0.0000000000000000e+00  8.6026839628635830e-08 -7.5561233268832128e-07 0.0000000000000000e+00  -6.2200793062316776e-08 -7.2461574310704490e-07 0.0000000000000000e+00  -4.5842308744285310e-09 -8.3798531534185959e-07 0.0000000000000000e+00  4.1689660532696726e-08 -7.9497835503110724e-07 0.0000000000000000e+00  -1.8832442273048093e-08 -7.6395448055314148e-07 0.0000000000000000e+00  -2.5161883339346330e-08 -8.0234470553165271e-07 0.0000000000000000e+00  3.1720471403627382e-09 -8.5846177055692727e-07 0.0000000000000000e+00  7.5230534528184332e-08 -7.2152808916605809e-07 0.0000000000000000e+00  -7.2955212831623494e-08 -7.1822032031702694e-07 0.0000000000000000e+00  -7.9829523049732174e-09 -8.4991464495187602e-07 0.0000000000000000e+00  3.3499531320912535e-08 -8.1470706993602194e-07 0.0000000000000000e+00  1.6188819043774178e-08 -7.4948224848664008e-07 0.0000000000000000e+00  -1.2239306026952833e-08 -7.4368913314980523e-07 0.0000000000000000e+00  -6.7623829421632711e-09 -7.8063149280646365e-07 0.0000000000000000e+00  5.2422968745204084e-08 -6.9876631273493964e-07 0.0000000000000000e+00  -6.5677738623124172e-08 -7.1065246593099135e-07 0.0000000000000000e+00  -1.8532679692281641e-08 -8.4236440166346927e-07 0.0000000000000000e+00  2.8587174840896815e-08 -8.1995742536377314e-07 0.0000000000000000e+00  3.4838547994927265e-09 -7.8146642072809767e-07 0.0000000000000000e+00  -6.5767922308039908e-09 -7.9525351611883054e-07 0.0000000000000000e+00  -6.0064815381583280e-08 -9.4868071048585622e-07 0.0000000000000000e+00  8.9155146865750614e-07 8.8110427868850054e-08 0.0000000000000000e+00  8.8632887768491764e-07 -1.2439216756725753e-07 0.0000000000000000e+00  9.1810977527591244e-07 1.1023113372408372e-07 0.0000000000000000e+00  7.5821727158591553e-07 -2.5207527295219385e-08 0.0000000000000000e+00  8.0358516926841776e-07 1.6651841133786195e-08 0.0000000000000000e+00  7.8215424349299915e-07 3.3534046670038235e-10 0.0000000000000000e+00  7.8195972878088234e-07 -4.0251523169061078e-10 0.0000000000000000e+00  7.8211187935502147e-07 5.8595786016596044e-10 0.0000000000000000e+00  7.8667286375180881e-07 -6.6073422800296456e-09 0.0000000000000000e+00  7.9566291932114208e-07 3.6070575508873942e-09 0.0000000000000000e+00  7.9922182194818442e-07 -6.9810965663708886e-09 0.0000000000000000e+00  7.9786639761402773e-07 1.1694184963161486e-08 0.0000000000000000e+00  7.9092061882091189e-07 -1.3070109402873085e-08 0.0000000000000000e+00  7.9146569857734532e-07 8.8962312876071983e-09 0.0000000000000000e+00  8.0658635072464788e-07 -1.4455827587235702e-08 0.0000000000000000e+00  7.9529688773950028e-07 2.2690849550558137e-08 0.0000000000000000e+00  7.7888645067773324e-07 -3.7145850685507277e-09 0.0000000000000000e+00  7.8858920799046303e-07 -1.1466923955008358e-08 0.0000000000000000e+00  7.7823773190630745e-07 1.6026677382031799e-08 0.0000000000000000e+00  7.8452616892297868e-07 -1.8366318569986902e-08 0.0000000000000000e+00  8.0461338177254671e-07 5.8297552893601177e-09 0.0000000000000000e+00  7.7984980986840166e-07 1.3090588340593095e-08 0.0000000000000000e+00  8.1388804480454111e-07 -3.2300928437094381e-08 0.0000000000000000e+00  8.4834653847643394e-07 -8.5279285435233461e-09 0.0000000000000000e+00  8.4666441074825858e-07 8.6563698231232553e-09 0.0000000000000000e+00  8.0724490285529535e-07 2.1176128497374694e-08 0.0000000000000000e+00  7.7552155429014655e-07 1.0494211939551615e-08 0.0000000000000000e+00  7.6272708355649832e-07 1.5858656717953682e-10 0.0000000000000000e+00  7.6233986101496957e-07 1.7163680547537964e-10 0.0000000000000000e+00  7.6195096625512683e-07 1.6910702415719181e-10 0.0000000000000000e+00  7.6160507347691419e-07 1.6377200120066337e-10 0.0000000000000000e+00  7.6122852571233379e-07 1.7561975350461017e-10 0.0000000000000000e+00  7.7215689369418565e-07 -1.1603128973437146e-08 0.0000000000000000e+00  7.8688727043226825e-07 1.3005132952481567e-09 0.0000000000000000e+00  7.7443620163247979e-07 1.0930377269556056e-08 0.0000000000000000e+00  8.0808219679728304e-07 -3.1036534323947928e-08 0.0000000000000000e+00  8.4185444005486661e-07 -1.0127546427704354e-08 0.0000000000000000e+00  8.7127894396623545e-07 -6.3428287875341542e-09 0.0000000000000000e+00  8.7004530153139484e-07 1.7693854102972524e-08 0.0000000000000000e+00  7.5043929480428920e-07 3.0130725842292212e-10 0.0000000000000000e+00  8.4024790267313670e-07 3.3989467447410718e-08 0.0000000000000000e+00  7.6106288462470781e-07 -1.2227784933181551e-09 0.0000000000000000e+00  7.5738966384948863e-07 1.4235805966650811e-09 0.0000000000000000e+00  7.5738160356122668e-07 1.0193076605656511e-10 0.0000000000000000e+00  8.1404073496931318e-07 -3.0310038868708458e-08 0.0000000000000000e+00  8.2427273634400949e-07 -9.2872759363939842e-09 0.0000000000000000e+00  8.4724807689433002e-07 -1.7000430459670677e-09 0.0000000000000000e+00  8.3795064635123997e-07 6.9499970109753054e-09 0.0000000000000000e+00  8.3410995495459056e-07 6.6211994565810375e-09 0.0000000000000000e+00  8.3274071697243002e-07 -1.4654484511089942e-08 0.0000000000000000e+00  8.6411812777003598e-07 -2.0477077380295896e-09 0.0000000000000000e+00  8.7355151511971283e-07 -1.6730151709523379e-09 0.0000000000000000e+00  8.5271981882101665e-07 6.3238711465491203e-10 0.0000000000000000e+00  8.6727016144820792e-07 6.1619350779262122e-10 0.0000000000000000e+00  8.7362207717948334e-07 -1.2743045139107772e-09 0.0000000000000000e+00  8.5278954286958116e-07 5.8767455968285683e-10 0.0000000000000000e+00  8.6428401012818419e-07 1.6050972719760073e-09 0.0000000000000000e+00  8.5846609236441226e-07 2.8972245570861526e-09 0.0000000000000000e+00  8.1446585827769797e-07 2.4891081803092170e-08 0.0000000000000000e+00  7.9124012746939847e-07 2.0116208953921259e-10 0.0000000000000000e+00  7.8751618466261749e-07 9.0493224591023069e-09 0.0000000000000000e+00  7.8416267877519013e-07 -1.1694541149124097e-08 0.0000000000000000e+00  7.9001936108396880e-07 4.0364092439924183e-11 0.0000000000000000e+00  8.0267615481557812e-07 2.4559025514655591e-10 0.0000000000000000e+00  8.2143162390337697e-07 -2.3693970547797301e-08 0.0000000000000000e+00  8.6399137399073278e-07 -3.5725144245298283e-09 0.0000000000000000e+00  8.7777417229132650e-07 -2.5503864868925941e-09 0.0000000000000000e+00  8.5830244368245717e-07 2.2935763219531513e-10 0.0000000000000000e+00  8.6962953981943747e-07 3.6802097874194113e-09 0.0000000000000000e+00  8.4351942561593515e-07 1.2592267750395223e-08 0.0000000000000000e+00  7.9292245067611936e-07 2.2909714267380620e-08 0.0000000000000000e+00  7.6656832177053895e-07 4.3345775623839978e-09 0.0000000000000000e+00  7.6307529749158278e-07 -1.5382356787408438e-10 0.0000000000000000e+00  7.6339483123955782e-07 -1.3417535711331839e-10 0.0000000000000000e+00  7.6625124050049750e-07 -1.1953216253571241e-09 0.0000000000000000e+00  7.7336638676079135e-07 -4.5351733057112102e-09 0.0000000000000000e+00  7.9400515028317326e-07 -1.0236475414543049e-08 0.0000000000000000e+00  8.2614370272978405e-07 -2.3451682216966247e-08 0.0000000000000000e+00  8.6590341769404424e-07 -7.9236044381554577e-10 0.0000000000000000e+00  8.4523166686944201e-07 1.1658876885277529e-08 0.0000000000000000e+00  8.1662183055646871e-07 1.5131639612422311e-08 0.0000000000000000e+00  8.0952204309575523e-07 -7.8218005896355078e-09 0.0000000000000000e+00  8.2807726716528384e-07 -1.8933527078222018e-08 0.0000000000000000e+00  8.6277372436927545e-07 3.9898758435416838e-10 0.0000000000000000e+00  8.4685084506947087e-07 1.0924661626691423e-08 0.0000000000000000e+00  8.1832898013520547e-07 8.9636075353400731e-09 0.0000000000000000e+00  7.8700981723048950e-07 1.8585379054330257e-08 0.0000000000000000e+00  7.7708856741143553e-07 -7.8667715905224295e-09 0.0000000000000000e+00  7.7596951252757512e-07 7.6512246238400159e-09 0.0000000000000000e+00  7.6786101476482344e-07 -9.0267241744961954e-11 0.0000000000000000e+00  7.6806505961861854e-07 -8.7488544894960993e-11 0.0000000000000000e+00  7.8126286620527951e-07 -1.1246591023495020e-08 0.0000000000000000e+00  7.8141592603915061e-07 1.1078905175750299e-08 0.0000000000000000e+00  7.7139423711256866e-07 -2.3760427181069501e-09 0.0000000000000000e+00  8.0187822003985997e-07 -1.1921551703122134e-08 0.0000000000000000e+00  8.1580881043342175e-07 -6.8562827561298570e-09 0.0000000000000000e+00  8.2426699022035466e-07 -1.7083346069017045e-08 0.0000000000000000e+00  8.4715583337254160e-07 -3.6150206732086734e-09 0.0000000000000000e+00  1.0397077856651578e-06 -6.0074506725291094e-08 0.0000000000000000e+00  -1.0896561455005946e-07 9.7325859019568112e-07 0.0000000000000000e+00  5.7176076295758805e-08 8.3083913706707330e-07 0.0000000000000000e+00  1.1944780956342723e-09 9.4765597363436702e-07 0.0000000000000000e+00  3.4672399531736155e-08 1.0640317387817564e-06 0.0000000000000000e+00  -1.8443612140701038e-08 9.0340829810941350e-07 0.0000000000000000e+00  -8.8398190392356695e-08 8.9710113199622333e-07 0.0000000000000000e+00  1.3352002370314944e-07 9.2325925967378203e-07 0.0000000000000000e+00  -1.4557494408492383e-07 9.2843146628731409e-07 0.0000000000000000e+00  1.2120058930680605e-08 7.1008463469079332e-07 0.0000000000000000e+00  7.9058007700021635e-09 7.6596533936072137e-07 0.0000000000000000e+00  -1.2049712613892230e-08 7.8244146713703647e-07 0.0000000000000000e+00  -1.1456319054593774e-08 7.5675107205928264e-07 0.0000000000000000e+00  -3.3655523205605135e-08 6.6655775065468907e-07 0.0000000000000000e+00  5.6894026558776433e-08 7.0097920087169355e-07 0.0000000000000000e+00  1.2323060430644974e-09 7.9775931940188763e-07 0.0000000000000000e+00  -1.6438065744162360e-09 7.8814093510558188e-07 0.0000000000000000e+00  -1.2814705485883603e-09 7.8240782589306413e-07 0.0000000000000000e+00  2.3360943286563791e-09 7.8594875395019203e-07 0.0000000000000000e+00  -1.1017528258321155e-09 7.9663698372505431e-07 0.0000000000000000e+00  -5.6303842590323474e-08 7.0269664122998051e-07 0.0000000000000000e+00  4.2533336708410899e-08 6.8477850783448718e-07 0.0000000000000000e+00  -3.6201351423512871e-09 7.5629583042714461e-07 0.0000000000000000e+00  9.3662783054062344e-09 7.6228292546256786e-07 0.0000000000000000e+00  -8.8274764063525253e-09 7.5936874203312449e-07 0.0000000000000000e+00  -2.7638903090420071e-08 6.8173781024323537e-07 0.0000000000000000e+00  1.1984215575109585e-07 8.2286327473932928e-07 0.0000000000000000e+00  -1.0496982124441713e-07 8.4560980963535466e-07 0.0000000000000000e+00  7.3967272545159058e-08 7.7883232894490307e-07 0.0000000000000000e+00  4.5064071453755979e-09 9.3674970464920730e-07 0.0000000000000000e+00  3.5397997892150421e-08 1.0566230590184205e-06 0.0000000000000000e+00  -2.3122881410987142e-08 8.9900938120376185e-07 0.0000000000000000e+00  -9.2322504496869050e-08 8.7137923579240397e-07 0.0000000000000000e+00  9.6134832298567156e-08 8.5464897147904194e-07 0.0000000000000000e+00  -1.2866407570567315e-07 8.0815310304895435e-07 0.0000000000000000e+00  4.2263016259509181e-08 6.7231014574826167e-07 0.0000000000000000e+00  -1.0313226674726164e-08 7.4510088565070607e-07 0.0000000000000000e+00  1.3678568187342718e-08 7.5497092870546872e-07 0.0000000000000000e+00  -3.4761204630122264e-09 7.6629483694783101e-07 0.0000000000000000e+00  -8.2211184274199547e-11 7.6032131411922356e-07 0.0000000000000000e+00  -8.1014321104747813e-11 7.6013742139630685e-07 0.0000000000000000e+00  -5.1144042313973903e-08 7.2954094634035197e-07 0.0000000000000000e+00  4.4552436449356386e-08 6.8506976845191244e-07 0.0000000000000000e+00  -1.4090993730958561e-09 7.6688957990892121e-07 0.0000000000000000e+00  2.8386156794206980e-08 7.8868915362378640e-07 0.0000000000000000e+00  -9.8298964569225226e-09 8.3201297653046698e-07 0.0000000000000000e+00  -7.0903064989031010e-08 6.9560067751655847e-07 0.0000000000000000e+00  6.8376537726413939e-08 6.9257502756444262e-07 0.0000000000000000e+00  2.5245702336185594e-08 8.3637822144351390e-07 0.0000000000000000e+00  8.8193281832685415e-10 8.6021834329231952e-07 0.0000000000000000e+00  5.5192981194352524e-09 8.7888737407505888e-07 0.0000000000000000e+00  -8.5771721816122759e-08 7.4647639132732305e-07 0.0000000000000000e+00  6.3448811881775993e-08 7.1733874918466711e-07 0.0000000000000000e+00  2.2432742305971028e-08 8.5562618764638961e-07 0.0000000000000000e+00  6.7416903986488656e-09 8.8914380008570073e-07 0.0000000000000000e+00  -1.1896238289822440e-08 8.8234682364975667e-07 0.0000000000000000e+00  -5.8456284909143731e-08 7.3356567254216794e-07 0.0000000000000000e+00  1.1929667154620195e-07 8.4615438349369872e-07 0.0000000000000000e+00  -1.0436927609976793e-07 8.7090882812032277e-07 0.0000000000000000e+00  8.6482669709729871e-08 8.5707230976590185e-07 0.0000000000000000e+00  -1.2897937170455288e-07 7.9477798102920110e-07 0.0000000000000000e+00  4.4166142350751194e-08 6.5479258512836801e-07 0.0000000000000000e+00  5.2067802010701609e-09 7.6640832872612907e-07 0.0000000000000000e+00  9.5874038111343388e-10 7.7350981583419618e-07 0.0000000000000000e+00  -5.8669684524060661e-09 7.6781476908334273e-07 0.0000000000000000e+00  9.6842790239157921e-10 7.6173713600597802e-07 0.0000000000000000e+00  -7.7312337045639673e-10 7.6290008477506926e-07 0.0000000000000000e+00  5.6717558079087443e-09 7.6805064471564946e-07 0.0000000000000000e+00  2.5517434179741492e-08 8.0491342294598323e-07 0.0000000000000000e+00  -9.1109115914159560e-09 8.3530117216530344e-07 0.0000000000000000e+00  -7.0371579420663109e-08 7.0957450565598499e-07 0.0000000000000000e+00  5.3697490572621071e-08 7.1289782353712480e-07 0.0000000000000000e+00  1.2038054237804529e-10 7.6306766182155436e-07 0.0000000000000000e+00  3.0745615489695326e-08 7.9143866149142428e-07 0.0000000000000000e+00  -1.4998870175641486e-09 8.4509512699645789e-07 0.0000000000000000e+00  -1.9392109990344613e-08 8.1087486570150562e-07 0.0000000000000000e+00  -1.0044168989866983e-08 7.7587979578511487e-07 0.0000000000000000e+00  -4.0372716314032319e-08 7.0460033950708650e-07 0.0000000000000000e+00  1.0970040017000921e-07 8.0565583564870649e-07 0.0000