<?xml version="1.0"?>
<VTKFile type="UnstructuredGrid"  version="0.1"  >
<UnstructuredGrid>
<Piece  NumberOfPoints="11902" NumberOfCells="23402">
<Points>
<DataArray  type="Float64"  NumberOfComponents="3"  format="ascii">-5 -5 0  5 -5 0  5 5 0  -5 5 0  1.158916580830249 0.001062626219501671 0  -4.9 -5 0  -4.8 -5 0  -4.7 -5 0  -4.6 -5 0  -4.5 -5 0  -4.4 -5 0  -4.3 -5 0  -4.2 -5 0  -4.1 -5 0  -4 -5 0  -3.9 -5 0  -3.8 -5 0  -3.7 -5 0  -3.6 -5 0  -3.5 -5 0  -3.4 -5 0  -3.3 -5 0  -3.2 -5 0  -3.1 -5 0  -3 -5 0  -2.9 -5 0  -2.8 -5 0  -2.7 -5 0  -2.6 -5 0  -2.5 -5 0  -2.4 -5 0  -2.3 -5 0  -2.2 -5 0  -2.1 -5 0  -2 -5 0  -1.9 -5 0  -1.8 -5 0  -1.7 -5 0  -1.6 -5 0  -1.5 -5 0  -1.4 -5 0  -1.3 -5 0  -1.2 -5 0  -1.1 -5 0  -1 -5 0  -0.9000000000000004 -5 0  -0.7999999999999998 -5 0  -0.7000000000000002 -5 0  -0.5999999999999996 -5 0  -0.5 -5 0  -0.4000000000000004 -5 0  -0.2999999999999998 -5 0  -0.2000000000000002 -5 0  -0.09999999999999964 -5 0  0 -5 0  0.09999999999999964 -5 0  0.2000000000000002 -5 0  0.2999999999999998 -5 0  0.4000000000000004 -5 0  0.5 -5 0  0.5999999999999996 -5 0  0.7000000000000002 -5 0  0.7999999999999998 -5 0  0.9000000000000004 -5 0  1 -5 0  1.1 -5 0  1.2 -5 0  1.3 -5 0  1.4 -5 0  1.5 -5 0  1.6 -5 0  1.7 -5 0  1.8 -5 0  1.9 -5 0  2 -5 0  2.1 -5 0  2.2 -5 0  2.3 -5 0  2.4 -5 0  2.5 -5 0  2.6 -5 0  2.7 -5 0  2.8 -5 0  2.9 -5 0  3 -5 0  3.1 -5 0  3.199999999999999 -5 0  3.300000000000001 -5 0  3.4 -5 0  3.5 -5 0  3.6 -5 0  3.699999999999999 -5 0  3.800000000000001 -5 0  3.9 -5 0  4 -5 0  4.1 -5 0  4.199999999999999 -5 0  4.300000000000001 -5 0  4.4 -5 0  4.5 -5 0  4.6 -5 0  4.699999999999999 -5 0  4.800000000000001 -5 0  4.9 -5 0  5 -4.9 0  5 -4.8 0  5 -4.7 0  5 -4.6 0  5 -4.5 0  5 -4.4 0  5 -4.3 0  5 -4.2 0  5 -4.1 0  5 -4 0  5 -3.9 0  5 -3.8 0  5 -3.7 0  5 -3.6 0  5 -3.5 0  5 -3.4 0  5 -3.3 0  5 -3.2 0  5 -3.1 0  5 -3 0  5 -2.9 0  5 -2.8 0  5 -2.7 0  5 -2.6 0  5 -2.5 0  5 -2.4 0  5 -2.3 0  5 -2.2 0  5 -2.1 0  5 -2 0  5 -1.9 0  5 -1.8 0  5 -1.7 0  5 -1.6 0  5 -1.5 0  5 -1.4 0  5 -1.3 0  5 -1.2 0  5 -1.1 0  5 -1 0  5 -0.9000000000000004 0  5 -0.7999999999999998 0  5 -0.7000000000000002 0  5 -0.5999999999999996 0  5 -0.5 0  5 -0.4000000000000004 0  5 -0.2999999999999998 0  5 -0.2000000000000002 0  5 -0.09999999999999964 0  5 0 0  5 0.09999999999999964 0  5 0.2000000000000002 0  5 0.2999999999999998 0  5 0.4000000000000004 0  5 0.5 0  5 0.5999999999999996 0  5 0.7000000000000002 0  5 0.7999999999999998 0  5 0.9000000000000004 0  5 1 0  5 1.1 0  5 1.2 0  5 1.3 0  5 1.4 0  5 1.5 0  5 1.6 0  5 1.7 0  5 1.8 0  5 1.9 0  5 2 0  5 2.1 0  5 2.2 0  5 2.3 0  5 2.4 0  5 2.5 0  5 2.6 0  5 2.7 0  5 2.8 0  5 2.9 0  5 3 0  5 3.1 0  5 3.199999999999999 0  5 3.300000000000001 0  5 3.4 0  5 3.5 0  5 3.6 0  5 3.699999999999999 0  5 3.800000000000001 0  5 3.9 0  5 4 0  5 4.1 0  5 4.199999999999999 0  5 4.300000000000001 0  5 4.4 0  5 4.5 0  5 4.6 0  5 4.699999999999999 0  5 4.800000000000001 0  5 4.9 0  4.9 5 0  4.8 5 0  4.7 5 0  4.6 5 0  4.5 5 0  4.4 5 0  4.3 5 0  4.2 5 0  4.1 5 0  4 5 0  3.9 5 0  3.8 5 0  3.7 5 0  3.6 5 0  3.5 5 0  3.4 5 0  3.3 5 0  3.2 5 0  3.1 5 0  3 5 0  2.9 5 0  2.8 5 0  2.7 5 0  2.6 5 0  2.5 5 0  2.4 5 0  2.3 5 0  2.2 5 0  2.1 5 0  2 5 0  1.9 5 0  1.8 5 0  1.7 5 0  1.6 5 0  1.5 5 0  1.4 5 0  1.3 5 0  1.2 5 0  1.1 5 0  1 5 0  0.9000000000000004 5 0  0.7999999999999998 5 0  0.7000000000000002 5 0  0.5999999999999996 5 0  0.5 5 0  0.4000000000000004 5 0  0.2999999999999998 5 0  0.2000000000000002 5 0  0.09999999999999964 5 0  0 5 0  -0.09999999999999964 5 0  -0.2000000000000002 5 0  -0.2999999999999998 5 0  -0.4000000000000004 5 0  -0.5 5 0  -0.5999999999999996 5 0  -0.7000000000000002 5 0  -0.7999999999999998 5 0  -0.9000000000000004 5 0  -1 5 0  -1.1 5 0  -1.2 5 0  -1.3 5 0  -1.4 5 0  -1.5 5 0  -1.6 5 0  -1.7 5 0  -1.8 5 0  -1.9 5 0  -2 5 0  -2.1 5 0  -2.2 5 0  -2.3 5 0  -2.4 5 0  -2.5 5 0  -2.6 5 0  -2.7 5 0  -2.8 5 0  -2.9 5 0  -3 5 0  -3.1 5 0  -3.199999999999999 5 0  -3.300000000000001 5 0  -3.4 5 0  -3.5 5 0  -3.6 5 0  -3.699999999999999 5 0  -3.800000000000001 5 0  -3.9 5 0  -4 5 0  -4.1 5 0  -4.199999999999999 5 0  -4.300000000000001 5 0  -4.4 5 0  -4.5 5 0  -4.6 5 0  -4.699999999999999 5 0  -4.800000000000001 5 0  -4.9 5 0  -5 4.9 0  -5 4.8 0  -5 4.7 0  -5 4.6 0  -5 4.5 0  -5 4.4 0  -5 4.3 0  -5 4.2 0  -5 4.1 0  -5 4 0  -5 3.9 0  -5 3.8 0  -5 3.7 0  -5 3.6 0  -5 3.5 0  -5 3.4 0  -5 3.3 0  -5 3.2 0  -5 3.1 0  -5 3 0  -5 2.9 0  -5 2.8 0  -5 2.7 0  -5 2.6 0  -5 2.5 0  -5 2.4 0  -5 2.3 0  -5 2.2 0  -5 2.1 0  -5 2 0  -5 1.9 0  -5 1.8 0  -5 1.7 0  -5 1.6 0  -5 1.5 0  -5 1.4 0  -5 1.3 0  -5 1.2 0  -5 1.1 0  -5 1 0  -5 0.9000000000000004 0  -5 0.7999999999999998 0  -5 0.7000000000000002 0  -5 0.5999999999999996 0  -5 0.5 0  -5 0.4000000000000004 0  -5 0.2999999999999998 0  -5 0.2000000000000002 0  -5 0.09999999999999964 0  -5 0 0  -5 -0.09999999999999964 0  -5 -0.2000000000000002 0  -5 -0.2999999999999998 0  -5 -0.4000000000000004 0  -5 -0.5 0  -5 -0.5999999999999996 0  -5 -0.7000000000000002 0  -5 -0.7999999999999998 0  -5 -0.9000000000000004 0  -5 -1 0  -5 -1.1 0  -5 -1.2 0  -5 -1.3 0  -5 -1.4 0  -5 -1.5 0  -5 -1.6 0  -5 -1.7 0  -5 -1.8 0  -5 -1.9 0  -5 -2 0  -5 -2.1 0  -5 -2.2 0  -5 -2.3 0  -5 -2.4 0  -5 -2.5 0  -5 -2.6 0  -5 -2.7 0  -5 -2.8 0  -5 -2.9 0  -5 -3 0  -5 -3.1 0  -5 -3.199999999999999 0  -5 -3.300000000000001 0  -5 -3.4 0  -5 -3.5 0  -5 -3.6 0  -5 -3.699999999999999 0  -5 -3.800000000000001 0  -5 -3.9 0  -5 -4 0  -5 -4.1 0  -5 -4.199999999999999 0  -5 -4.300000000000001 0  -5 -4.4 0  -5 -4.5 0  -5 -4.6 0  -5 -4.699999999999999 0  -5 -4.800000000000001 0  -5 -4.9 0  1.153289260938984 0.1000042470841024 0  1.135555673863741 0.1989018433902144 0  1.105671078325022 0.2965370937567171 0  1.066629345376359 0.3891294757031993 0  1.016217324174382 0.4800337747893045 0  0.9564595528661856 0.5654950522534899 0  0.8863020215191351 0.6452760958601195 0  0.806822533096475 0.7181543739867278 0  0.7203386515846287 0.7842087217971546 0  0.6264536148227127 0.8429756382119368 0  0.5256896853270681 0.893238400739422 0  0.4201246629051718 0.9347471613944209 0  0.3119454104642594 0.9673998210310686 0  0.1993088108499304 0.9896983643446282 0  0.08654647501493505 1.003110962875627 0  -0.02742606471560225 1.005761939203784 0  -0.1412836735020837 0.9971683435033335 0  -0.2547555841664174 0.97989866646872 0  -0.3656419403434359 0.9532386494050831 0  -0.4722551119735817 0.9165697067856112 0  -0.5739244404158392 0.8712028638646876 0  -0.6704829944922699 0.8165314469293037 0  -0.760309409411723 0.7539968338146247 0  -0.843090310610271 0.6840241394542517 0  -0.9181640172777893 0.6062346433104638 0  -0.9834589401271129 0.5233279580219976 0  -1.039709862067367 0.4358428836697379 0  -1.08494941717415 0.3432548631546282 0  -1.118971794678333 0.2481792779415413 0  -1.142029697010794 0.1506451523924722 0  -1.153762574196268 0.05087413168138399 0  -1.153783729769564 -0.04949961122272938 0  -1.142051165953376 -0.1490349161550741 0  -1.120165326957653 -0.246574515247789 0  -1.084743232157109 -0.3427562662250935 0  -1.040065311515962 -0.4345812300059889 0  -0.9842227941080022 -0.5223300149320634 0  -0.9192281043870669 -0.6048702283257789 0  -0.8442438931201522 -0.6817235172286349 0  -0.7609478062835798 -0.7511224640673214 0  -0.6702410252571734 -0.8126821436232723 0  -0.5742833491506359 -0.8673243478958612 0  -0.4703304043249473 -0.9132839189931977 0  -0.36349956703322 -0.9508968513342391 0  -0.252572316655099 -0.978384932155401 0  -0.1399599099484709 -0.9961286587153874 0  -0.02671543548922323 -1.005093266552125 0  0.08709268648651647 -1.001541491241495 0  0.2012571610520917 -0.9879406380096101 0  0.3130025109122039 -0.9658604096063381 0  0.4227729275467997 -0.9334081764791811 0  0.526877358107119 -0.8922434810067464 0  0.627038401357166 -0.8423142737825098 0  0.7205708076973572 -0.7849037976438025 0  0.8069628260629906 -0.7186734011243499 0  0.885888285203362 -0.6447149154157705 0  0.9554201760601926 -0.5647722144476306 0  1.016248337539797 -0.4795479868202748 0  1.067718241275749 -0.3892359942367977 0  1.106870930174103 -0.2955422606328629 0  1.135700415483303 -0.1982166778028344 0  1.1533028023473 -0.09961764972912474 0  -2.44896476258204 4.918857362549115 0  -2.448875052156148 -4.911303029011755 0  4.911246096042516 2.448474068315168 0  4.919296355851937 -2.449883089576358 0  2.446676487919088 -4.896675707496262 0  2.441093420067748 4.900407611602523 0  -4.911266444446953 -2.448494173358351 0  -4.911265683741672 2.44849799301142 0  -1.748933335509296 4.912074293497473 0  -1.744701999057538 -4.915473145174247 0  4.921641070795046 1.744594250081952 0  4.910317352401049 -1.748432084060211 0  -4.910598563850687 -1.748157460383061 0  -4.911412627143832 1.747896105190763 0  1.746232132215264 4.906010176543394 0  1.747698458826004 -4.894293778634911 0  -1.149159405601605 4.910082977382725 0  -1.129983388245029 -4.917890231995405 0  -4.910606356280676 -1.148381471849938 0  -4.910429327154019 1.14818126831999 0  1.144133272750817 -4.914128076007351 0  1.149165337513048 4.910073331751084 0  4.910758205429803 1.146660462086661 0  4.921416582978566 -1.15238966028838 0  -0.5468348433958317 -4.911383371585249 0  -0.5466006454154414 4.919940659368362 0  -4.909572499351611 -0.5489608174004308 0  -4.909597367452236 0.5475157144433179 0  4.908919424739166 -0.5492839531016952 0  4.920368225694868 0.5460068992045348 0  0.5426327468125595 -4.898462591310256 0  0.5513322568039197 4.916812242500591 0  -4.912428692659597 -3.048752742283911 0  4.918964111433481 3.046739306057814 0  4.91194253337526 -3.04873586803155 0  -4.913273941655598 3.045840590073286 0  3.055647536721301 -4.917913042708038 0  -3.049004088689869 -4.911885274153814 0  3.052563526021135 4.913953334178547 0  -3.048447684906102 4.912770492593995 0  -4.908768037985261 -0.04993289270858918 0  0.04513022912369055 -4.913344431479935 0  0.04957883880192144 4.920266122438161 0  4.915707580600859 -0.05131340011728659 0  3.545893303134333 -4.919397622244884 0  -3.549198064254599 4.
[...]
<PointData  Vectors="f_1650"> 
<DataArray  type="Float64"  Name="f_1650"  NumberOfComponents="3" format="ascii">-4.5508842991762658e-07 -4.5510403115568079e-07 0.0000000000000000e+00  4.5508639646702155e-07 -4.5510254923474065e-07 0.0000000000000000e+00  5.0304161862381401e-07 5.0305299757819111e-07 0.0000000000000000e+00  -4.5508794849554948e-07 4.5510334280510349e-07 0.0000000000000000e+00  -5.3523709626789118e-01 -1.0692086168036428e-02 0.0000000000000000e+00  9.1196254360547448e-08 -9.0597448229671655e-07 0.0000000000000000e+00  -1.0656360348242329e-07 -8.5999205116919895e-07 0.0000000000000000e+00  1.0478949463491519e-07 -8.7304339241573352e-07 0.0000000000000000e+00  -9.1367753376497415e-08 -8.8061041516086920e-07 0.0000000000000000e+00  -2.1203181439420314e-08 -9.0464602532315871e-07 0.0000000000000000e+00  3.5904220604599418e-08 -1.0616327010555044e-06 0.0000000000000000e+00  6.0731996679764404e-09 -9.3668285640396137e-07 0.0000000000000000e+00  7.3484196512342775e-08 -7.7924107682423444e-07 0.0000000000000000e+00  -1.0502377187830074e-07 -8.4508219760585903e-07 0.0000000000000000e+00  1.2029170983493836e-07 -8.2551480646258322e-07 0.0000000000000000e+00  -2.6588352447264028e-08 -6.8038708505796642e-07 0.0000000000000000e+00  -5.3512425160412016e-09 -7.5236838805981703e-07 0.0000000000000000e+00  -1.2977828663327552e-08 -7.6673850561443391e-07 0.0000000000000000e+00  1.0390843260698229e-08 -7.7558423852339122e-07 0.0000000000000000e+00  3.2174305042547473e-10 -7.5988147864497616e-07 0.0000000000000000e+00  3.3126358862006217e-10 -7.5914726033467074e-07 0.0000000000000000e+00  5.0546268033483478e-08 -7.2506926987158299e-07 0.0000000000000000e+00  -4.4528552654266067e-08 -6.8659390723835385e-07 0.0000000000000000e+00  3.4883992346040945e-10 -7.5686237100703703e-07 0.0000000000000000e+00  3.9941056014809727e-08 -6.5987043656335170e-07 0.0000000000000000e+00  -1.2845569716903165e-07 -8.0516224628456928e-07 0.0000000000000000e+00  9.7367523471507394e-08 -8.4745586403923300e-07 0.0000000000000000e+00  -9.4243541418728153e-08 -8.4690432561197105e-07 0.0000000000000000e+00  1.2508107899136815e-07 -7.9726005217686229e-07 0.0000000000000000e+00  -3.7864179517786226e-08 -6.4507535189141898e-07 0.0000000000000000e+00  3.7063547834335121e-10 -7.5117709726612858e-07 0.0000000000000000e+00  3.5627349479989405e-08 -6.8300304618257065e-07 0.0000000000000000e+00  -1.2116525597377138e-07 -8.0816992300570286e-07 0.0000000000000000e+00  1.0030459659333108e-07 -8.4269405570346809e-07 0.0000000000000000e+00  -9.4920777923886382e-08 -8.6328528362421747e-07 0.0000000000000000e+00  1.0747254849798674e-09 -8.6469294248687790e-07 0.0000000000000000e+00  6.7865666023850740e-08 -9.7070804555511463e-07 0.0000000000000000e+00  1.1499674093527154e-08 -7.8793049291287216e-07 0.0000000000000000e+00  7.9663104782679881e-09 -7.5921410272087447e-07 0.0000000000000000e+00  6.5393384127240414e-10 -7.4446922173519461e-07 0.0000000000000000e+00  9.9690058776185325e-09 -7.2215233592192235e-07 0.0000000000000000e+00  4.0625459993973370e-08 -6.3346226757867171e-07 0.0000000000000000e+00  -7.9950739999885871e-08 -6.7451379220242024e-07 0.0000000000000000e+00  -8.9148766026418532e-08 -9.5914906656143478e-07 0.0000000000000000e+00  9.7983211148186967e-08 -9.5589027474757445e-07 0.0000000000000000e+00  5.2289049520200406e-08 -6.9689783221834542e-07 0.0000000000000000e+00  -9.5555626801923260e-08 -8.2119232351179061e-07 0.0000000000000000e+00  -1.0684411380102488e-08 -7.4787988388442421e-07 0.0000000000000000e+00  5.8093553892880654e-08 -9.0929200430200698e-07 0.0000000000000000e+00  1.8676960361534404e-09 -7.5354953132405454e-07 0.0000000000000000e+00  4.5835713389828391e-09 -7.5072314034988130e-07 0.0000000000000000e+00  8.8736060243858708e-11 -7.3830417419917566e-07 0.0000000000000000e+00  -3.6134254505107259e-10 -7.3915421416319009e-07 0.0000000000000000e+00  -1.8578004293612706e-09 -7.4355891671805948e-07 0.0000000000000000e+00  -1.2198646944716786e-08 -7.7228449431195829e-07 0.0000000000000000e+00  -7.2707251861752528e-08 -9.5618599598744493e-07 0.0000000000000000e+00  7.7457040627790449e-09 -8.2886593742411005e-07 0.0000000000000000e+00  9.1608224481934934e-08 -8.2036426739103328e-07 0.0000000000000000e+00  -1.0600572149097420e-07 -8.1287206578338570e-07 0.0000000000000000e+00  1.1978045477114487e-07 -7.9557252113698048e-07 0.0000000000000000e+00  -2.7963607197040406e-08 -6.5930955668358600e-07 0.0000000000000000e+00  -9.4261987514898788e-09 -7.3572442322169349e-07 0.0000000000000000e+00  -6.6936499559373142e-09 -7.4709580320273811e-07 0.0000000000000000e+00  5.1948634579132844e-09 -7.4868325377745814e-07 0.0000000000000000e+00  -5.1571309379157638e-09 -7.5186045403864775e-07 0.0000000000000000e+00  -1.0117413084922120e-08 -7.8232513383910283e-07 0.0000000000000000e+00  4.7562109250408996e-08 -7.1032073189087561e-07 0.0000000000000000e+00  -8.6902780835174847e-08 -7.5921669171735639e-07 0.0000000000000000e+00  1.3008931202312677e-08 -8.7069723903426272e-07 0.0000000000000000e+00  5.8587113867998819e-09 -8.3424982744514843e-07 0.0000000000000000e+00  1.5614299148164111e-08 -8.2705804010128675e-07 0.0000000000000000e+00  7.2607796504076836e-08 -6.8584966946291529e-07 0.0000000000000000e+00  -6.8353409833642182e-08 -6.8341398513695592e-07 0.0000000000000000e+00  -1.4677102433743489e-08 -8.0829643641483761e-07 0.0000000000000000e+00  2.7557612633902924e-08 -7.8952193716303878e-07 0.0000000000000000e+00  1.7653054082771441e-09 -7.5548523605535681e-07 0.0000000000000000e+00  5.2495693445599755e-11 -7.5058125987581306e-07 0.0000000000000000e+00  -5.6476343938888438e-09 -7.7416391192840295e-07 0.0000000000000000e+00  5.3551502227559261e-08 -6.8699169262671214e-07 0.0000000000000000e+00  -3.3452805925225294e-08 -6.5898954697131369e-07 0.0000000000000000e+00  -1.6623663671567848e-08 -7.4619493998977611e-07 0.0000000000000000e+00  -4.3738557803026621e-08 -8.0614805513938556e-07 0.0000000000000000e+00  -6.3096717108891093e-09 -8.7817602815160618e-07 0.0000000000000000e+00  8.5773331320140727e-08 -7.4525476832543420e-07 0.0000000000000000e+00  -6.2421030676425348e-08 -7.1632216262458426e-07 0.0000000000000000e+00  -4.8187454194666633e-09 -8.2847687359521688e-07 0.0000000000000000e+00  4.1447093711845199e-08 -7.8616215601232648e-07 0.0000000000000000e+00  -1.9054732163006582e-08 -7.5641157965807476e-07 0.0000000000000000e+00  -2.5376669698679223e-08 -7.9498323318297983e-07 0.0000000000000000e+00  2.9530991380325703e-09 -8.5095998023346978e-07 0.0000000000000000e+00  7.4996679511525149e-08 -7.1522142231805700e-07 0.0000000000000000e+00  -7.3134498982131504e-08 -7.1324278980012564e-07 0.0000000000000000e+00  -8.1855250779987531e-09 -8.4413860241398052e-07 0.0000000000000000e+00  3.3286661531821878e-08 -8.0944997836991513e-07 0.0000000000000000e+00  1.5986143571971396e-08 -7.4515140041943840e-07 0.0000000000000000e+00  -1.2427560893639826e-08 -7.3994058441846556e-07 0.0000000000000000e+00  -6.9497987011940449e-09 -7.7712595852080866e-07 0.0000000000000000e+00  5.2216576101883658e-08 -6.9580850922853756e-07 0.0000000000000000e+00  -6.5832098124611611e-08 -7.0838410681368146e-07 0.0000000000000000e+00  -1.8707860240505165e-08 -8.4000819428853296e-07 0.0000000000000000e+00  2.8395508643020906e-08 -8.1800512675713131e-07 0.0000000000000000e+00  3.3038514082869038e-09 -7.8006276607188005e-07 0.0000000000000000e+00  -6.7518886044540904e-09 -7.9426660461520166e-07 0.0000000000000000e+00  -6.0227590970115513e-08 -9.4807253387525341e-07 0.0000000000000000e+00  8.9102458390118731e-07 8.8236613987040132e-08 0.0000000000000000e+00  8.8521971646687054e-07 -1.2420098001009411e-07 0.0000000000000000e+00  9.1685658223199566e-07 1.1033958495512483e-07 0.0000000000000000e+00  7.5655900853884641e-07 -2.5037568086872847e-08 0.0000000000000000e+00  8.0157203533965933e-07 1.6806003614100220e-08 0.0000000000000000e+00  7.7976673632078564e-07 4.9996855073994970e-10 0.0000000000000000e+00  7.7918100008105893e-07 -2.3361895058546928e-10 0.0000000000000000e+00  7.7893805725412635e-07 7.5899230188837682e-10 0.0000000000000000e+00  7.8303484755534704e-07 -6.4261275102385307e-09 0.0000000000000000e+00  7.9160888144192324e-07 3.7897505456531215e-09 0.0000000000000000e+00  7.9464664511819804e-07 -6.7879473852772115e-09 0.0000000000000000e+00  7.9295476965862943e-07 1.1886060532174903e-08 0.0000000000000000e+00  7.8541508545779369e-07 -1.2860149607189197e-08 0.0000000000000000e+00  7.8561894176169389e-07 9.1048620579581270e-09 0.0000000000000000e+00  7.9994268955375384e-07 -1.4230082251969930e-08 0.0000000000000000e+00  7.8851043163859538e-07 2.2910862779919021e-08 0.0000000000000000e+00  7.7149056381164636e-07 -3.4753977409948055e-09 0.0000000000000000e+00  7.8046625960047667e-07 -1.1215711482061720e-08 0.0000000000000000e+00  7.6989618086822036e-07 1.6277342258894804e-08 0.0000000000000000e+00  7.7518676211366838e-07 -1.8094994244107043e-08 0.0000000000000000e+00  7.9464702742441232e-07 6.1034695244474033e-09 0.0000000000000000e+00  7.6962824565688387e-07 1.3371639508023716e-08 0.0000000000000000e+00  8.0204740809286989e-07 -3.1999225612504999e-08 0.0000000000000000e+00  8.3553779664373782e-07 -8.2231926538903128e-09 0.0000000000000000e+00  8.3331796479301996e-07 8.9661920518990428e-09 0.0000000000000000e+00  7.9392848997342862e-07 2.1492499966017388e-08 0.0000000000000000e+00  7.6188969076494173e-07 1.0820159308749949e-08 0.0000000000000000e+00  7.4847387086637049e-07 4.9186497705442209e-10 0.0000000000000000e+00  7.4735755381760227e-07 5.1010801599274035e-10 0.0000000000000000e+00  7.4623170114348469e-07 5.1158080414545561e-10 0.0000000000000000e+00  7.4514308874601494e-07 5.0882799910080129e-10 0.0000000000000000e+00  7.4402320760238379e-07 5.2161656818355307e-10 0.0000000000000000e+00  7.5380593861861128e-07 -1.1260508490424082e-08 0.0000000000000000e+00  7.6756736043727678e-07 1.6431900976312256e-09 0.0000000000000000e+00  7.5478169592490380e-07 1.1271126938282724e-08 0.0000000000000000e+00  7.8633650328966669e-07 -3.0717158831899288e-08 0.0000000000000000e+00  8.1866776642778653e-07 -9.8101492664322723e-09 0.0000000000000000e+00  8.4654219965505795e-07 -6.0358735143517355e-09 0.0000000000000000e+00  8.4482216442869680e-07 1.7996576630478224e-08 0.0000000000000000e+00  7.2801659470587650e-07 5.7932714399069397e-10 0.0000000000000000e+00  8.1467229221830641e-07 3.4272182203417215e-08 0.0000000000000000e+00  7.3715500043344596e-07 -9.8649903881789534e-10 0.0000000000000000e+00  7.3314146160146483e-07 1.6378816541664002e-09 0.0000000000000000e+00  7.3269950843123316e-07 2.8902005561290427e-10 0.0000000000000000e+00  7.8693210353247024e-07 -3.0175142820279070e-08 0.0000000000000000e+00  7.9662893197354584e-07 -9.1642583074888927e-09 0.0000000000000000e+00  8.1858100858258166e-07 -1.6025665226798964e-09 0.0000000000000000e+00  8.0942925174248012e-07 7.0223484183672148e-09 0.0000000000000000e+00  8.0558568709790719e-07 6.6606736821436780e-09 0.0000000000000000e+00  8.0422808300629417e-07 -1.4666780487231223e-08 0.0000000000000000e+00  8.3455313445527688e-07 -2.0823171612203504e-09 0.0000000000000000e+00  8.4377900763357604e-07 -1.7394436763115034e-09 0.0000000000000000e+00  8.2387276314241710e-07 5.3570969430335344e-10 0.0000000000000000e+00  8.3818775870675300e-07 4.8804941633473591e-10 0.0000000000000000e+00  8.4468157755854445e-07 -1.4331255757497220e-09 0.0000000000000000e+00  8.2496543743575697e-07 4.0219729431801457e-10 0.0000000000000000e+00  8.3654820568378112e-07 1.3938321664472864e-09 0.0000000000000000e+00  8.3145015441368457e-07 2.6630304774196702e-09 0.0000000000000000e+00  7.8923670449258666e-07 2.4649426445996762e-08 0.0000000000000000e+00  7.6752178228467262e-07 -7.6216370372908046e-11 0.0000000000000000e+00  7.6445810569621345e-07 8.7601572500720458e-09 0.0000000000000000e+00  7.6207579622270979e-07 -1.2009283381750714e-08 0.0000000000000000e+00  7.6835561273075231e-07 -2.8025915120992593e-10 0.0000000000000000e+00  7.8139606340867196e-07 -8.4482646900069640e-11 0.0000000000000000e+00  8.0070140562290997e-07 -2.4038600917537799e-08 0.0000000000000000e+00  8.4278012529813803e-07 -3.9157683345680605e-09 0.0000000000000000e+00  8.5707246801596095e-07 -2.8959610804852484e-09 0.0000000000000000e+00  8.3888124376527655e-07 -1.1631016519136844e-10 0.0000000000000000e+00  8.5076881667026038e-07 3.3359146387253936e-09 0.0000000000000000e+00  8.2594985802908173e-07 1.2250971137796798e-08 0.0000000000000000e+00  7.7704924860113914e-07 2.2572037470021336e-08 0.0000000000000000e+00  7.5217462239313322e-07 4.0012957415506856e-09 0.0000000000000000e+00  7.4952587262905031e-07 -4.8064297301508357e-10 0.0000000000000000e+00  7.5055246318352038e-07 -4.5391539390430237e-10 0.0000000000000000e+00  7.5407381633291296e-07 -1.5070504012566174e-09 0.0000000000000000e+00  7.6180377167808479e-07 -4.8376810507856480e-09 0.0000000000000000e+00  7.8288681917700902e-07 -1.0528690403411023e-08 0.0000000000000000e+00  8.1540666760468496e-07 -2.3731295503870361e-08 0.0000000000000000e+00  8.5511673206821326e-07 -1.0679755930085161e-09 0.0000000000000000e+00  8.3524599915260522e-07 1.1389612747834027e-08 0.0000000000000000e+00  8.0756477533921650e-07 1.4870550116514474e-08 0.0000000000000000e+00  8.0135372006297945e-07 -8.0670980916586001e-09 0.0000000000000000e+00  8.2040174339936607e-07 -1.9165984244121959e-08 0.0000000000000000e+00  8.5520877130226734e-07 1.6943128034067621e-10 0.0000000000000000e+00  8.3990380036795695e-07 1.0700338376895004e-08 0.0000000000000000e+00  8.1214906209234461e-07 8.7479464746756582e-09 0.0000000000000000e+00  7.8148365851908568e-07 1.8373430904688548e-08 0.0000000000000000e+00  7.7226639694206197e-07 -8.0608804565665312e-09 0.0000000000000000e+00  7.7150741001079811e-07 7.4573478508577245e-09 0.0000000000000000e+00  7.6391579879143808e-07 -2.7463757788703802e-10 0.0000000000000000e+00  7.6453372774389048e-07 -2.6626581581749911e-10 0.0000000000000000e+00  7.7813096969029926e-07 -1.1415360611788269e-08 0.0000000000000000e+00  7.7859446850843872e-07 1.0904930196464701e-08 0.0000000000000000e+00  7.6903907454269828e-07 -2.5399840213987685e-09 0.0000000000000000e+00  7.9985837986258041e-07 -1.2078254664359339e-08 0.0000000000000000e+00  8.1412664919144932e-07 -7.0126599842105337e-09 0.0000000000000000e+00  8.2296207602308574e-07 -1.7233442381794961e-08 0.0000000000000000e+00  8.4619006378517127e-07 -3.7691725653722584e-09 0.0000000000000000e+00  1.0391161868493303e-06 -6.0208618436933685e-08 0.0000000000000000e+00  -1.0910961964442388e-07 9.7266274763838257e-07 0.0000000000000000e+00  5.6979042134039725e-08 8.2974821039715834e-07 0.0000000000000000e+00  1.0155563545483161e-09 9.4600133240946366e-07 0.0000000000000000e+00  3.4477438344901757e-08 1.0615929172822915e-06 0.0000000000000000e+00  -1.8671855428200725e-08 9.0083085715703052e-07 0.0000000000000000e+00  -8.8558175766673970e-08 8.9431500776295992e-07 0.0000000000000000e+00  1.3330106285718114e-07 9.1921218651481686e-07 0.0000000000000000e+00  -1.4570417786116453e-07 9.2481220416821316e-07 0.0000000000000000e+00  1.1921407672057313e-08 7.0638281064976673e-07 0.0000000000000000e+00  7.7056634633175970e-09 7.6157501297555445e-07 0.0000000000000000e+00  -1.2246745072219847e-08 7.7760155696825004e-07 0.0000000000000000e+00  -1.1657059242569866e-08 7.5161414659052574e-07 0.0000000000000000e+00  -3.3851238973615714e-08 6.6173059101910733e-07 0.0000000000000000e+00  5.6664092598247142e-08 6.9494059987703761e-07 0.0000000000000000e+00  1.0136894938904277e-09 7.9078253721228709e-07 0.0000000000000000e+00  -1.8658424559278792e-09 7.8075238553887090e-07 0.0000000000000000e+00  -1.5087798803373128e-09 7.7455227408740687e-07 0.0000000000000000e+00  2.1028897981031329e-09 7.7750410709048635e-07 0.0000000000000000e+00  -1.3379854062093475e-09 7.8756023065086566e-07 0.0000000000000000e+00  -5.6529009028862061e-08 6.9461496141033065e-07 0.0000000000000000e+00  4.2284978186776149e-08 6.7565744923340275e-07 0.0000000000000000e+00  -3.8664710731766629e-09 7.4609661123554444e-07 0.0000000000000000e+00  9.1160418409291784e-09 7.5134739168070043e-07 0.0000000000000000e+00  -9.0784131796068113e-09 7.4807322825015388e-07 0.0000000000000000e+00  -2.7891281959747842e-08 6.7126320273843566e-07 0.0000000000000000e+00  1.1960195384262221e-07 8.0830701303974150e-07 0.0000000000000000e+00  -1.0521601382978119e-07 8.3199781429580015e-07 0.0000000000000000e+00  7.3717843471579358e-08 7.6425252094265996e-07 0.0000000000000000e+00  4.2550159647432454e-09 9.1925601672272720e-07 0.0000000000000000e+00  3.5144358087577981e-08 1.0358790857191555e-06 0.0000000000000000e+00  -2.3423249712139682e-08 8.8118086452272708e-07 0.0000000000000000e+00  -9.2584203914202288e-08 8.5402928254819572e-07 0.0000000000000000e+00  9.5922370032781600e-08 8.3553891645665655e-07 0.0000000000000000e+00  -1.2890321898616898e-07 7.9127291730046531e-07 0.0000000000000000e+00  4.2052213529324987e-08 6.5671541364120045e-07 0.0000000000000000e+00  -1.0528655998507764e-08 7.2776227062410740e-07 0.0000000000000000e+00  1.3481143937791260e-08 7.3678458116986235e-07 0.0000000000000000e+00  -3.6687714862291199e-09 7.4752090836569967e-07 0.0000000000000000e+00  -2.6177625388919308e-10 7.4127174431890091e-07 0.0000000000000000e+00  -2.4781336441440554e-10 7.4071807410923536e-07 0.0000000000000000e+00  -5.1319697377040542e-08 7.1082632046813977e-07 0.0000000000000000e+00  4.4437988610859515e-08 6.6679722269200262e-07 0.0000000000000000e+00  -1.5316306211910651e-09 7.4635152101085872e-07 0.0000000000000000e+00  2.8293396175524160e-08 7.6720630721644841e-07 0.0000000000000000e+00  -9.9246018217805523e-09 8.0923517867977649e-07 0.0000000000000000e+00  -7.1014183398694893e-08 6.7658313079610934e-07 0.0000000000000000e+00  6.8364538485260314e-08 6.7323420445126904e-07 0.0000000000000000e+00  2.5224850897147150e-08 8.1297967705314132e-07 0.0000000000000000e+00  8.6533532907018149e-10 8.3611739712008982e-07 0.0000000000000000e+00  5.5227775737843281e-09 8.5423670648390417e-07 0.0000000000000000e+00  -8.5801441574553433e-08 7.2554078940034687e-07 0.0000000000000000e+00  6.3523635127031946e-08 6.9742202860776939e-07 0.0000000000000000e+00  2.2501063611609339e-08 8.3188170569817141e-07 0.0000000000000000e+00  6.8189445667697413e-09 8.6460141073034567e-07 0.0000000000000000e+00  -1.1811248432458520e-08 8.5814961856750147e-07 0.0000000000000000e+00  -5.8377524742783933e-08 7.1352795767883837e-07 0.0000000000000000e+00  1.1946652528591882e-07 8.2399957130207778e-07 0.0000000000000000e+00  -1.0427671169503904e-07 8.4743135951244050e-07 0.0000000000000000e+00  8.6672872797656548e-08 8.3525980716470891e-07 0.0000000000000000e+00  -1.2888480111967339e-07 7.7375665819049052e-07 0.0000000000000000e+00  4.4368731862717002e-08 6.3874772560425978e-07 0.0000000000000000e+00  5.4017076155668811e-09 7.4769932435679107e-07 0.0000000000000000e+00  1.1622645212144702e-09 7.5503661314403638e-07 0.0000000000000000e+00  -5.6553046916033785e-09 7.4988611586074338e-07 0.0000000000000000e+00  1.1909190908527253e-09 7.4447453724083358e-07 0.0000000000000000e+00  -5.4366656434373553e-10 7.4609051142039953e-07 0.0000000000000000e+00  5.9093749306818815e-09 7.5169176455866876e-07 0.0000000000000000e+00  2.5762846989865242e-08 7.8848050954762996e-07 0.0000000000000000e+00  -8.8666088573233156e-09 8.1853758121340332e-07 0.0000000000000000e+00  -7.0132837575344828e-08 6.9531112074808196e-07 0.0000000000000000e+00  5.3950698989874857e-08 7.0014226334105292e-07 0.0000000000000000e+00  3.7444176929439305e-10 7.4947749563121105e-07 0.0000000000000000e+00  3.0998558367263596e-08 7.7818690913662204e-07 0.0000000000000000e+00  -1.2460786533185257e-09 8.3127288225076863e-07 0.0000000000000000e+00  -1.9138396429904958e-08 7.9805126497100856e-07 0.0000000000000000e+00  -9.7928898162767919e-09 7.6424866215605909e-07 0.0000000000000000e+00  -4.0118286128875528e-08 6.9428314173967724e-07 0.0000000000000000e+00  1.0992282283902117e-07 7.9573435968777104e-07 