<?xml version="1.0"?>
<VTKFile type="UnstructuredGrid"  version="0.1"  >
<UnstructuredGrid>
<Piece  NumberOfPoints="11902" NumberOfCells="23402">
<Points>
<DataArray  type="Float64"  NumberOfComponents="3"  format="ascii">-5 -5 0  5 -5 0  5 5 0  -5 5 0  1.186041096732996 0.001221665444542545 0  -4.9 -5 0  -4.8 -5 0  -4.7 -5 0  -4.6 -5 0  -4.5 -5 0  -4.4 -5 0  -4.3 -5 0  -4.2 -5 0  -4.1 -5 0  -4 -5 0  -3.9 -5 0  -3.8 -5 0  -3.7 -5 0  -3.6 -5 0  -3.5 -5 0  -3.4 -5 0  -3.3 -5 0  -3.2 -5 0  -3.1 -5 0  -3 -5 0  -2.9 -5 0  -2.8 -5 0  -2.7 -5 0  -2.6 -5 0  -2.5 -5 0  -2.4 -5 0  -2.3 -5 0  -2.2 -5 0  -2.1 -5 0  -2 -5 0  -1.9 -5 0  -1.8 -5 0  -1.7 -5 0  -1.6 -5 0  -1.5 -5 0  -1.4 -5 0  -1.3 -5 0  -1.2 -5 0  -1.1 -5 0  -1 -5 0  -0.9000000000000004 -5 0  -0.7999999999999998 -5 0  -0.7000000000000002 -5 0  -0.5999999999999996 -5 0  -0.5 -5 0  -0.4000000000000004 -5 0  -0.2999999999999998 -5 0  -0.2000000000000002 -5 0  -0.09999999999999964 -5 0  0 -5 0  0.09999999999999964 -5 0  0.2000000000000002 -5 0  0.2999999999999998 -5 0  0.4000000000000004 -5 0  0.5 -5 0  0.5999999999999996 -5 0  0.7000000000000002 -5 0  0.7999999999999998 -5 0  0.9000000000000004 -5 0  1 -5 0  1.1 -5 0  1.2 -5 0  1.3 -5 0  1.4 -5 0  1.5 -5 0  1.6 -5 0  1.7 -5 0  1.8 -5 0  1.9 -5 0  2 -5 0  2.1 -5 0  2.2 -5 0  2.3 -5 0  2.4 -5 0  2.5 -5 0  2.6 -5 0  2.7 -5 0  2.8 -5 0  2.9 -5 0  3 -5 0  3.1 -5 0  3.199999999999999 -5 0  3.300000000000001 -5 0  3.4 -5 0  3.5 -5 0  3.6 -5 0  3.699999999999999 -5 0  3.800000000000001 -5 0  3.9 -5 0  4 -5 0  4.1 -5 0  4.199999999999999 -5 0  4.300000000000001 -5 0  4.4 -5 0  4.5 -5 0  4.6 -5 0  4.699999999999999 -5 0  4.800000000000001 -5 0  4.9 -5 0  5 -4.9 0  5 -4.8 0  5 -4.7 0  5 -4.6 0  5 -4.5 0  5 -4.4 0  5 -4.3 0  5 -4.2 0  5 -4.1 0  5 -4 0  5 -3.9 0  5 -3.8 0  5 -3.7 0  5 -3.6 0  5 -3.5 0  5 -3.4 0  5 -3.3 0  5 -3.2 0  5 -3.1 0  5 -3 0  5 -2.9 0  5 -2.8 0  5 -2.7 0  5 -2.6 0  5 -2.5 0  5 -2.4 0  5 -2.3 0  5 -2.2 0  5 -2.1 0  5 -2 0  5 -1.9 0  5 -1.8 0  5 -1.7 0  5 -1.6 0  5 -1.5 0  5 -1.4 0  5 -1.3 0  5 -1.2 0  5 -1.1 0  5 -1 0  5 -0.9000000000000004 0  5 -0.7999999999999998 0  5 -0.7000000000000002 0  5 -0.5999999999999996 0  5 -0.5 0  5 -0.4000000000000004 0  5 -0.2999999999999998 0  5 -0.2000000000000002 0  5 -0.09999999999999964 0  5 0 0  5 0.09999999999999964 0  5 0.2000000000000002 0  5 0.2999999999999998 0  5 0.4000000000000004 0  5 0.5 0  5 0.5999999999999996 0  5 0.7000000000000002 0  5 0.7999999999999998 0  5 0.9000000000000004 0  5 1 0  5 1.1 0  5 1.2 0  5 1.3 0  5 1.4 0  5 1.5 0  5 1.6 0  5 1.7 0  5 1.8 0  5 1.9 0  5 2 0  5 2.1 0  5 2.2 0  5 2.3 0  5 2.4 0  5 2.5 0  5 2.6 0  5 2.7 0  5 2.8 0  5 2.9 0  5 3 0  5 3.1 0  5 3.199999999999999 0  5 3.300000000000001 0  5 3.4 0  5 3.5 0  5 3.6 0  5 3.699999999999999 0  5 3.800000000000001 0  5 3.9 0  5 4 0  5 4.1 0  5 4.199999999999999 0  5 4.300000000000001 0  5 4.4 0  5 4.5 0  5 4.6 0  5 4.699999999999999 0  5 4.800000000000001 0  5 4.9 0  4.9 5 0  4.8 5 0  4.7 5 0  4.6 5 0  4.5 5 0  4.4 5 0  4.3 5 0  4.2 5 0  4.1 5 0  4 5 0  3.9 5 0  3.8 5 0  3.7 5 0  3.6 5 0  3.5 5 0  3.4 5 0  3.3 5 0  3.2 5 0  3.1 5 0  3 5 0  2.9 5 0  2.8 5 0  2.7 5 0  2.6 5 0  2.5 5 0  2.4 5 0  2.3 5 0  2.2 5 0  2.1 5 0  2 5 0  1.9 5 0  1.8 5 0  1.7 5 0  1.6 5 0  1.5 5 0  1.4 5 0  1.3 5 0  1.2 5 0  1.1 5 0  1 5 0  0.9000000000000004 5 0  0.7999999999999998 5 0  0.7000000000000002 5 0  0.5999999999999996 5 0  0.5 5 0  0.4000000000000004 5 0  0.2999999999999998 5 0  0.2000000000000002 5 0  0.09999999999999964 5 0  0 5 0  -0.09999999999999964 5 0  -0.2000000000000002 5 0  -0.2999999999999998 5 0  -0.4000000000000004 5 0  -0.5 5 0  -0.5999999999999996 5 0  -0.7000000000000002 5 0  -0.7999999999999998 5 0  -0.9000000000000004 5 0  -1 5 0  -1.1 5 0  -1.2 5 0  -1.3 5 0  -1.4 5 0  -1.5 5 0  -1.6 5 0  -1.7 5 0  -1.8 5 0  -1.9 5 0  -2 5 0  -2.1 5 0  -2.2 5 0  -2.3 5 0  -2.4 5 0  -2.5 5 0  -2.6 5 0  -2.7 5 0  -2.8 5 0  -2.9 5 0  -3 5 0  -3.1 5 0  -3.199999999999999 5 0  -3.300000000000001 5 0  -3.4 5 0  -3.5 5 0  -3.6 5 0  -3.699999999999999 5 0  -3.800000000000001 5 0  -3.9 5 0  -4 5 0  -4.1 5 0  -4.199999999999999 5 0  -4.300000000000001 5 0  -4.4 5 0  -4.5 5 0  -4.6 5 0  -4.699999999999999 5 0  -4.800000000000001 5 0  -4.9 5 0  -5 4.9 0  -5 4.8 0  -5 4.7 0  -5 4.6 0  -5 4.5 0  -5 4.4 0  -5 4.3 0  -5 4.2 0  -5 4.1 0  -5 4 0  -5 3.9 0  -5 3.8 0  -5 3.7 0  -5 3.6 0  -5 3.5 0  -5 3.4 0  -5 3.3 0  -5 3.2 0  -5 3.1 0  -5 3 0  -5 2.9 0  -5 2.8 0  -5 2.7 0  -5 2.6 0  -5 2.5 0  -5 2.4 0  -5 2.3 0  -5 2.2 0  -5 2.1 0  -5 2 0  -5 1.9 0  -5 1.8 0  -5 1.7 0  -5 1.6 0  -5 1.5 0  -5 1.4 0  -5 1.3 0  -5 1.2 0  -5 1.1 0  -5 1 0  -5 0.9000000000000004 0  -5 0.7999999999999998 0  -5 0.7000000000000002 0  -5 0.5999999999999996 0  -5 0.5 0  -5 0.4000000000000004 0  -5 0.2999999999999998 0  -5 0.2000000000000002 0  -5 0.09999999999999964 0  -5 0 0  -5 -0.09999999999999964 0  -5 -0.2000000000000002 0  -5 -0.2999999999999998 0  -5 -0.4000000000000004 0  -5 -0.5 0  -5 -0.5999999999999996 0  -5 -0.7000000000000002 0  -5 -0.7999999999999998 0  -5 -0.9000000000000004 0  -5 -1 0  -5 -1.1 0  -5 -1.2 0  -5 -1.3 0  -5 -1.4 0  -5 -1.5 0  -5 -1.6 0  -5 -1.7 0  -5 -1.8 0  -5 -1.9 0  -5 -2 0  -5 -2.1 0  -5 -2.2 0  -5 -2.3 0  -5 -2.4 0  -5 -2.5 0  -5 -2.6 0  -5 -2.7 0  -5 -2.8 0  -5 -2.9 0  -5 -3 0  -5 -3.1 0  -5 -3.199999999999999 0  -5 -3.300000000000001 0  -5 -3.4 0  -5 -3.5 0  -5 -3.6 0  -5 -3.699999999999999 0  -5 -3.800000000000001 0  -5 -3.9 0  -5 -4 0  -5 -4.1 0  -5 -4.199999999999999 0  -5 -4.300000000000001 0  -5 -4.4 0  -5 -4.5 0  -5 -4.6 0  -5 -4.699999999999999 0  -5 -4.800000000000001 0  -5 -4.9 0  1.180203848477047 0.09945870875081894 0  1.161818245323957 0.197899845955573 0  1.130955438489153 0.2953021092495237 0  1.090913792687815 0.3871890765252454 0  1.038965584603588 0.4779476075173834 0  0.9776358818262557 0.5631709745413068 0  0.9055622808315241 0.6429376208312602 0  0.8241680602037638 0.7157373528726104 0  0.7357181825807824 0.7815433819516335 0  0.6394039842259303 0.8401652879175705 0  0.5360448767917855 0.8907706447196633 0  0.4282529748828005 0.9325252871153126 0  0.3180101802950597 0.9652924576914805 0  0.202663250605677 0.9876966861835123 0  0.08796090866990044 1.001826090972731 0  -0.02764950019370996 1.004554115420434 0  -0.1433341728030415 0.9952605613718786 0  -0.259648807852381 0.9777281883696978 0  -0.3729923886611337 0.9513618464302359 0  -0.4815372923797354 0.9147911514352334 0  -0.58520631902398 0.8693150524312063 0  -0.6838093605363733 0.8145902423630953 0  -0.7754294940869232 0.7518418080779087 0  -0.8602978335318536 0.6815519373983976 0  -0.9376773015545242 0.6035741542277524 0  -1.004895755132535 0.5209710441758314 0  -1.062788235812444 0.4338514972832719 0  -1.10944537667414 0.3415626385997864 0  -1.144467954828424 0.2471229763371646 0  -1.168091002904136 0.1501990207473737 0  -1.180088439028134 0.0508244983959897 0  -1.180093742250504 -0.04918766301467483 0  -1.168059749674609 -0.1482662347327861 0  -1.14545411305256 -0.2451998676236681 0  -1.109054875342825 -0.3411438571068929 0  -1.063162006557594 -0.4325924692559925 0  -1.005815992832249 -0.5200080546371201 0  -0.9390467867953073 -0.6021928396607037 0  -0.861901312704576 -0.6790673969821728 0  -0.7765653186370869 -0.7485035198246844 0  -0.6837880470733267 -0.8098789615879429 0  -0.5854841821494016 -0.8643241946911387 0  -0.4790641092368877 -0.9108067079452576 0  -0.3701131537810653 -0.9486949085977271 0  -0.2570014662799253 -0.9762895795626922 0  -0.1419435592326984 -0.9942844890567387 0  -0.0271147149884756 -1.003735568613811 0  0.08857195802559967 -0.9996568191583014 0  0.2052258347256972 -0.9855744786320769 0  0.3194440452553452 -0.9636463341751692 0  0.4314167274963411 -0.9311144630474962 0  0.537562830867133 -0.8897942964307075 0  0.6400861112773709 -0.8396697972066054 0  0.7359121405906414 -0.7824357032291539 0  0.8242549765271918 -0.716387730246456 0  0.9050900846777182 -0.6423609481923441 0  0.9763422308233514 -0.56248737944358 0  1.038873083718276 -0.4774190187764023 0  1.091972014379478 -0.3872746567225452 0  1.132307749921774 -0.293998112602443 0  1.162033260471251 -0.197108428046676 0  1.180217083278743 -0.09901030860656204 0  -2.448838429143295 4.918623905015703 0  -2.448737588653914 -4.911048486699033 0  4.910985511398684 2.448290685797878 0  4.91905993804031 -2.449716339498657 0  2.446516488368654 -4.896376547741225 0  2.440938650599377 4.90011827641336 0  -4.91100806274344 -2.44831283676608 0  -4.911006623376393 2.448316693540022 0  -1.748802942670379 4.9117382014871 0  -1.744577324472075 -4.915150633336503 0  4.921311803878027 1.744428242126946 0  4.909941324562926 -1.748241778085529 0  -4.910226782368929 -1.747970020929973 0  -4.911043467031109 1.747710657758222 0  1.746093707178714 4.90564908934547 0  1.74754335777123 -4.893888304118298 0  -1.149055685297393 4.909676097957728 0  -1.129890080000751 -4.917518390678841 0  -4.910140782224971 -1.148227204929011 0  -4.909962178361619 1.14802724368797 0  1.144036325706769 -4.913738697952376 0  1.14906281998851 4.909665187380226 0  4.910288680259352 1.146504979625585 0  4.921004177954512 -1.152252115014058 0  -0.5467809184668988 -4.910941662779536 0  -0.5465517289284687 4.919540340425725 0  -4.909031466900279 -0.5488750375015805 0  -4.909056020839408 0.5474308972978605 0  4.908369253370232 -0.5491965022624733 0  4.919886994204084 0.5459311939294366 0  0.542573628887706 -4.897955123504182 0  0.5512825250060603 4.91639583682429 0  -4.912254455961384 -3.04860292236688 0  4.918801489252133 3.046599049836947 0  4.91176628156483 -3.048583565786206 0  -4.913100515179671 3.045691948383176 0  3.055534949033963 -4.917741884353612 0  -3.048883009707171 -4.911702392535739 0  3.052445002403247 4.913773406132592 0  -3.048327378928766 4.912588915741792 0  -4.908198747747481 -0.04992431448668339 0  0.04512696559595264 -4.912899413938438 0  0.04957507779253284 4.919855452919697 0  4.915176611815365 -0.05130537251380169 0  3.545803905167555 -4.919277773590542 0  -3.549100940712944 4.9121971
[...]
<PointData  Vectors="f_2074"> 
<DataArray  type="Float64"  Name="f_2074"  NumberOfComponents="3" format="ascii">-4.5505830324881941e-07 -4.5507573638215682e-07 0.0000000000000000e+00  4.5505603273968635e-07 -4.5507404663412293e-07 0.0000000000000000e+00  5.0301155781796012e-07 5.0302428521288743e-07 0.0000000000000000e+00  -4.5505776793153152e-07 4.5507497571110015e-07 0.0000000000000000e+00  -4.4251494741414443e-01 -8.6111370716561424e-03 0.0000000000000000e+00  9.1223177021222122e-08 -9.0587290122561732e-07 0.0000000000000000e+00  -1.0652751836372250e-07 -8.5978850399455953e-07 0.0000000000000000e+00  1.0481372673387280e-07 -8.7279920338170110e-07 0.0000000000000000e+00  -9.1329086125606494e-08 -8.8022575436609483e-07 0.0000000000000000e+00  -2.1163726471545176e-08 -9.0417320459724415e-07 0.0000000000000000e+00  3.5936324547817813e-08 -1.0610232325544994e-06 0.0000000000000000e+00  6.1060919895599001e-09 -9.3603702388654127e-07 0.0000000000000000e+00  7.3512848503505324e-08 -7.7866271213449655e-07 0.0000000000000000e+00  -1.0498469151990147e-07 -8.4424893636114283e-07 0.0000000000000000e+00  1.2031788261621975e-07 -8.2478529210085974e-07 0.0000000000000000e+00  -2.6550868876284550e-08 -6.7960379755769521e-07 0.0000000000000000e+00  -5.3146737211383840e-09 -7.5144747398579194e-07 0.0000000000000000e+00  -1.2939870059481843e-08 -7.6570877091069634e-07 0.0000000000000000e+00  1.0428240456685479e-08 -7.7448103725368699e-07 0.0000000000000000e+00  3.6052483755600468e-10 -7.5870300398286095e-07 0.0000000000000000e+00  3.7097857156390648e-10 -7.5788195858984300e-07 0.0000000000000000e+00  5.0583459838632731e-08 -7.2383827666321695e-07 0.0000000000000000e+00  -4.4485503954582245e-08 -6.8522523934278819e-07 0.0000000000000000e+00  3.9067985459890386e-10 -7.5532813420776382e-07 0.0000000000000000e+00  3.9982827290207943e-08 -6.5850281360436856e-07 0.0000000000000000e+00  -1.2841377146971565e-07 -8.0314490850630001e-07 0.0000000000000000e+00  9.7408680216334702e-08 -8.4556169665959638e-07 0.0000000000000000e+00  -9.4197287821190914e-08 -8.4461791485069965e-07 0.0000000000000000e+00  1.2511891596117506e-07 -7.9532713411054563e-07 0.0000000000000000e+00  -3.7817933125798974e-08 -6.4320839982327623e-07 0.0000000000000000e+00  4.1591417024869995e-10 -7.4897536848634425e-07 0.0000000000000000e+00  3.5672987630333369e-08 -6.8096550872826130e-07 0.0000000000000000e+00  -1.2112425598109988e-07 -8.0539714337393483e-07 0.0000000000000000e+00  1.0034956536545631e-07 -8.4004436678509727e-07 0.0000000000000000e+00  -9.4876399451573831e-08 -8.6015260144017787e-07 0.0000000000000000e+00  1.1306904711666024e-09 -8.6159394087232363e-07 0.0000000000000000e+00  6.7913553491754720e-08 -9.6719400895054726e-07 0.0000000000000000e+00  1.1542542706578228e-08 -7.8491980714714387e-07 0.0000000000000000e+00  8.0077797348916286e-09 -7.5621643926182030e-07 0.0000000000000000e+00  6.9374485621766026e-10 -7.4143241670666589e-07 0.0000000000000000e+00  1.0007845086632134e-08 -7.1913792426503942e-07 0.0000000000000000e+00  4.0665409281830972e-08 -6.3079419340735568e-07 0.0000000000000000e+00  -7.9925882132054917e-08 -6.7144996285152351e-07 0.0000000000000000e+00  -8.9124629602675857e-08 -9.5471887167288752e-07 0.0000000000000000e+00  9.8018804729970906e-08 -9.5158980988185670e-07 0.0000000000000000e+00  5.2320735178637396e-08 -6.9368958500738649e-07 0.0000000000000000e+00  -9.5537706608534050e-08 -8.1719965925405495e-07 0.0000000000000000e+00  -1.0658382629817725e-08 -7.4427501745028284e-07 0.0000000000000000e+00  5.8118847648942163e-08 -9.0487382165234954e-07 0.0000000000000000e+00  1.8842462937560135e-09 -7.4983006388448599e-07 0.0000000000000000e+00  4.5973455128714406e-09 -7.4698596882569431e-07 0.0000000000000000e+00  9.8908556767690239e-11 -7.3460290171005159e-07 0.0000000000000000e+00  -3.5444917298807496e-10 -7.3543015951897434e-07 0.0000000000000000e+00  -1.8543815055463639e-09 -7.3980076412524633e-07 0.0000000000000000e+00  -1.2199712078416170e-08 -7.6837434880274756e-07 0.0000000000000000e+00  -7.2717106482543145e-08 -9.5134093798801677e-07 0.0000000000000000e+00  7.7364396994286036e-09 -8.2469539933271100e-07 0.0000000000000000e+00  9.1607218009018708e-08 -8.1621107342482742e-07 0.0000000000000000e+00  -1.0602787718223933e-07 -8.0885838933323963e-07 0.0000000000000000e+00  1.1977693988141231e-07 -7.9156846666569043e-07 0.0000000000000000e+00  -2.7985333974591701e-08 -6.5610656902895366e-07 0.0000000000000000e+00  -9.4489812285032623e-09 -7.3217297939814866e-07 0.0000000000000000e+00  -6.7186811820509680e-09 -7.4353864853216133e-07 0.0000000000000000e+00  5.1680817371448878e-09 -7.4516436381571759e-07 0.0000000000000000e+00  -5.1872396054979542e-09 -7.4839834791801043e-07 0.0000000000000000e+00  -1.0150122346518678e-08 -7.7879687561849822e-07 0.0000000000000000e+00  4.7531832693396448e-08 -7.0712390682711007e-07 0.0000000000000000e+00  -8.6943864504752436e-08 -7.5604185845542680e-07 0.0000000000000000e+00  1.2971490745289674e-08 -8.6700849453962100e-07 0.0000000000000000e+00  5.8195599254910914e-09 -8.3081881898014420e-07 0.0000000000000000e+00  1.5574531299250174e-08 -8.2373937668031691e-07 0.0000000000000000e+00  7.2569816897451884e-08 -6.8309663371410482e-07 0.0000000000000000e+00  -6.8397992657897980e-08 -6.8096015113727069e-07 0.0000000000000000e+00  -1.4721496318424662e-08 -8.0539878210229127e-07 0.0000000000000000e+00  2.7513311935485745e-08 -7.8673001569540331e-07 0.0000000000000000e+00  1.7203659744801107e-09 -7.5295057692421565e-07 0.0000000000000000e+00  7.2894973262074588e-12 -7.4816480582593199e-07 0.0000000000000000e+00  -5.6929876385591097e-09 -7.7178312489198027e-07 0.0000000000000000e+00  5.3506685965479599e-08 -6.8487956412357817e-07 0.0000000000000000e+00  -3.3497695840287897e-08 -6.5718090432320152e-07 0.0000000000000000e+00  -1.6668508701445921e-08 -7.4421460813838703e-07 0.0000000000000000e+00  -4.3781771527067315e-08 -8.0415336793926996e-07 0.0000000000000000e+00  -6.3536323371602408e-09 -8.7605754999721732e-07 0.0000000000000000e+00  8.5727924434737861e-08 -7.4341943107272871e-07 0.0000000000000000e+00  -6.2460328010392582e-08 -7.1485277178635915e-07 0.0000000000000000e+00  -4.8607203826167166e-09 -8.2679186795513712e-07 0.0000000000000000e+00  4.1403597076595772e-08 -7.8459900962938823e-07 0.0000000000000000e+00  -1.9094490740979899e-08 -7.5507411671684557e-07 0.0000000000000000e+00  -2.5414858890035282e-08 -7.9367756044422890e-07 0.0000000000000000e+00  2.9140511659500550e-09 -8.4962913890536452e-07 0.0000000000000000e+00  7.4954845225714976e-08 -7.1410149937786077e-07 0.0000000000000000e+00  -7.3166404191547069e-08 -7.1235905768608925e-07 0.0000000000000000e+00  -8.2217234587005879e-09 -8.4311309612098266e-07 0.0000000000000000e+00  3.3248513331218379e-08 -8.0851608666599573e-07 0.0000000000000000e+00  1.5950048615189702e-08 -7.4438181440110220e-07 0.0000000000000000e+00  -1.2461004044223203e-08 -7.3927431743904753e-07 0.0000000000000000e+00  -6.9831264196535642e-09 -7.7650261715900763e-07 0.0000000000000000e+00  5.2179717882979398e-08 -6.9528214236146406e-07 0.0000000000000000e+00  -6.5859518612504752e-08 -7.0798022431381182e-07 0.0000000000000000e+00  -1.8739130456760335e-08 -8.3958900779172489e-07 0.0000000000000000e+00  2.8361154801555194e-08 -8.1765752300363101e-07 0.0000000000000000e+00  3.2718014929879691e-09 -7.7981279693222495e-07 0.0000000000000000e+00  -6.7830469085821696e-09 -7.9409084507906214e-07 0.0000000000000000e+00  -6.0256588973156731e-08 -9.4796441213369530e-07 0.0000000000000000e+00  8.9093055754884644e-07 8.8259052768844739e-08 0.0000000000000000e+00  8.8502191124121059e-07 -1.2416678195527693e-07 0.0000000000000000e+00  9.1663279513512346e-07 1.1035929978744597e-07 0.0000000000000000e+00  7.5626273427824544e-07 -2.5007254472978885e-08 0.0000000000000000e+00  8.0121253632002302e-07 1.6833582633081844e-08 0.0000000000000000e+00  7.7934052549698561e-07 5.2940389800233137e-10 0.0000000000000000e+00  7.7868511234822779e-07 -2.0343053910302966e-10 0.0000000000000000e+00  7.7837186485862410e-07 7.8991773272692219e-10 0.0000000000000000e+00  7.8238611381057669e-07 -6.3937542972946995e-09 0.0000000000000000e+00  7.9088621310960711e-07 3.8224050727256461e-09 0.0000000000000000e+00  7.9383147500021278e-07 -6.7534722340673633e-09 0.0000000000000000e+00  7.9207993471135464e-07 1.1920325511178697e-08 0.0000000000000000e+00  7.8443501378345308e-07 -1.2822644621104207e-08 0.0000000000000000e+00  7.8457846632937575e-07 9.1421465199909756e-09 0.0000000000000000e+00  7.9876109670444521e-07 -1.4189808183104371e-08 0.0000000000000000e+00  7.8730377976701810e-07 2.2950170036468062e-08 0.0000000000000000e+00  7.7017636026906834e-07 -3.4327128475310713e-09 0.0000000000000000e+00  7.7902368809309150e-07 -1.1170882855168576e-08 0.0000000000000000e+00  7.6841538863795519e-07 1.6322107735624977e-08 0.0000000000000000e+00  7.7353002234921744e-07 -1.8046646578001720e-08 0.0000000000000000e+00  7.9287997406913838e-07 6.1522833414948409e-09 0.0000000000000000e+00  7.6781698067234983e-07 1.3421748229250591e-08 0.0000000000000000e+00  7.9995099185948598e-07 -3.1945542423446322e-08 0.0000000000000000e+00  8.3327134698129970e-07 -8.1689344981316563e-09 0.0000000000000000e+00  8.3095783228263467e-07 9.0214248077517295e-09 0.0000000000000000e+00  7.9157506558059327e-07 2.1548955628616077e-08 0.0000000000000000e+00  7.5948219703380508e-07 1.0878274654812202e-08 0.0000000000000000e+00  7.4595846375570027e-07 5.5121356066343725e-10 0.0000000000000000e+00  7.4471537567091576e-07 5.7035309328561238e-10 0.0000000000000000e+00  7.4346158945935704e-07 5.7252044179565019e-10 0.0000000000000000e+00  7.4224423787610643e-07 5.7021060981245527e-10 0.0000000000000000e+00  7.4099571757306915e-07 5.8314375596106516e-10 0.0000000000000000e+00  7.5057936489824102e-07 -1.1199652358874363e-08 0.0000000000000000e+00  7.6417285557433876e-07 1.7040955965638229e-09 0.0000000000000000e+00  7.5133083483618367e-07 1.1331684233085842e-08 0.0000000000000000e+00  7.8252156322784202e-07 -3.0660562898199572e-08 0.0000000000000000e+00  8.1460281042915372e-07 -9.7538655097683390e-09 0.0000000000000000e+00  8.4220843687130961e-07 -5.9814025784842829e-09 0.0000000000000000e+00  8.4040585687494469e-07 1.8050433974236241e-08 0.0000000000000000e+00  7.2409284927443082e-07 6.2868517716617296e-10 0.0000000000000000e+00  8.1019935284896659e-07 3.4322584743913789e-08 0.0000000000000000e+00  7.3297581761780080e-07 -9.4458308140681019e-10 0.0000000000000000e+00  7.2890478496093104e-07 1.6759029590055775e-09 0.0000000000000000e+00  7.2838884267629149e-07 3.2219816358993290e-10 0.0000000000000000e+00  7.8219961774512174e-07 -3.0151389856793729e-08 0.0000000000000000e+00  7.9180445539821523e-07 -9.1425260034397402e-09 0.0000000000000000e+00  8.1357922871199204e-07 -1.5852990689273028e-09 0.0000000000000000e+00  8.0445370266263543e-07 7.0352104938212444e-09 0.0000000000000000e+00  8.0061017924419249e-07 6.6677073202743671e-09 0.0000000000000000e+00  7.9925476351281061e-07 -1.4669040487113689e-08 0.0000000000000000e+00  8.2939621216463978e-07 -2.0884991630518791e-09 0.0000000000000000e+00  8.3858542031491949e-07 -1.7512365600549118e-09 0.0000000000000000e+00  8.1883968375781333e-07 5.1857122816728840e-10 0.0000000000000000e+00  8.3311249738691600e-07 4.6531379681108834e-10 0.0000000000000000e+00  8.3962958584648114e-07 -1.4612968437882327e-09 0.0000000000000000e+00  8.2010650368479996e-07 3.6930884219043386e-10 0.0000000000000000e+00  8.3170271956966632e-07 1.3563585581800255e-09 0.0000000000000000e+00  8.2672817749767865e-07 2.6215163532708665e-09 0.0000000000000000e+00  7.8482471153787646e-07 2.4606679414466486e-08 0.0000000000000000e+00  7.6337150199307416e-07 -1.2542892889341436e-10 0.0000000000000000e+00  7.6042095897910694e-07 8.7088424440269642e-09 0.0000000000000000e+00  7.5820614739061005e-07 -1.2065233196068693e-08 0.0000000000000000e+00  7.6455766595771899e-07 -3.3721984708216646e-10 0.0000000000000000e+00  7.7766285985014562e-07 -1.4313758072806241e-10 0.0000000000000000e+00  7.9706198530949358e-07 -2.4099960387274817e-08 0.0000000000000000e+00  8.3905382512158188e-07 -3.9768358123993782e-09 0.0000000000000000e+00  8.5343308483241200e-07 -2.9574234612949277e-09 0.0000000000000000e+00  8.3546446342829187e-07 -1.7776564854510734e-10 0.0000000000000000e+00  8.4744820543394936e-07 3.2747152234555034e-09 0.0000000000000000e+00  8.2285432905812003e-07 1.2190290682552647e-08 0.0000000000000000e+00  7.7425054649811171e-07 2.2512027967353768e-08 0.0000000000000000e+00  7.4963476497072739e-07 3.9420089071124109e-09 0.0000000000000000e+00  7.4713322813356540e-07 -5.3882147096243016e-10 0.0000000000000000e+00  7.4828308958045512e-07 -5.1086926151408869e-10 0.0000000000000000e+00  7.5192046431960190e-07 -1.5626125525550817e-09 0.0000000000000000e+00  7.5975777493239782e-07 -4.8916173961651201e-09 0.0000000000000000e+00  7.8091817197122065e-07 -1.0580802735534907e-08 0.0000000000000000e+00  8.1350429136014711e-07 -2.3781215989419641e-08 0.0000000000000000e+00  8.5320464886237596e-07 -1.1171337397200953e-09 0.0000000000000000e+00  8.3347496072563508e-07 1.1341599082331309e-08 0.0000000000000000e+00  8.0595752022278412e-07 1.4823984874753552e-08 0.0000000000000000e+00  7.9990327953757189e-07 -8.1108784513173057e-09 0.0000000000000000e+00  8.1903807322788792e-07 -1.9207510181531593e-08 0.0000000000000000e+00  8.5386426721529160e-07 1.2844424124992108e-10 0.0000000000000000e+00  8.3866854042204065e-07 1.0660333642951272e-08 0.0000000000000000e+00  8.1104960675070243e-07 8.7094881866884162e-09 0.0000000000000000e+00  7.8050003799509696e-07 1.8335641383359443e-08 0.0000000000000000e+00  7.7140754960944645e-07 -8.0955559143657094e-09 0.0000000000000000e+00  7.7071240465697896e-07 7.4227372162775003e-09 0.0000000000000000e+00  7.6321255832365317e-07 -3.0757179214760521e-10 0.0000000000000000e+00  7.6390402578126062e-07 -2.9822591380734971e-10 0.0000000000000000e+00  7.7757231040738305e-07 -1.1445564265814095e-08 0.0000000000000000e+00  7.7809108380486454e-07 1.0873830007696208e-08 0.0000000000000000e+00  7.6861870238837732e-07 -2.5692815671038461e-09 0.0000000000000000e+00  7.9949779477588437e-07 -1.2106293214483479e-08 0.0000000000000000e+00  8.1382630263642631e-07 -7.0406312619453110e-09 0.0000000000000000e+00  8.2272903427248695e-07 -1.7260298344118364e-08 0.0000000000000000e+00  8.4601766328313828e-07 -3.7968172244368530e-09 0.0000000000000000e+00  1.0390109475707203e-06 -6.0232597214928471e-08 0.0000000000000000e+00  -1.0913514179763360e-07 9.7255678335577231e-07 0.0000000000000000e+00  5.6943846495027979e-08 8.2955378179687390e-07 0.0000000000000000e+00  9.8373668651914426e-10 9.4570725911185978e-07 0.0000000000000000e+00  3.4442923885364363e-08 1.0611597495777659e-06 0.0000000000000000e+00  -1.8712488810988373e-08 9.0037278942916593e-07 0.0000000000000000e+00  -8.8586627227202580e-08 8.9382007535813972e-07 0.0000000000000000e+00  1.3326199028591680e-07 9.1849285277713715e-07 0.0000000000000000e+00  -1.4572752725653001e-07 9.2416949210606478e-07 0.0000000000000000e+00  1.1886046311294123e-08 7.0572482670656538e-07 0.0000000000000000e+00  7.6699782993419082e-09 7.6079492220787818e-07 0.0000000000000000e+00  -1.2281949033191387e-08 7.7674208530439113e-07 0.0000000000000000e+00  -1.1692937342806073e-08 7.5070186911766640e-07 0.0000000000000000e+00  -3.3886242983625554e-08 6.6087353810462724e-07 0.0000000000000000e+00  5.6623040626314905e-08 6.9386840081898385e-07 0.0000000000000000e+00  9.7472993029384092e-10 7.8954455668183005e-07 0.0000000000000000e+00  -1.9053768870741041e-09 7.7944185823020885e-07 0.0000000000000000e+00  -1.5493991169107177e-09 7.7315926171275090e-07 0.0000000000000000e+00  2.0610760945051522e-09 7.7600708665927702e-07 0.0000000000000000e+00  -1.3803091899097489e-09 7.8595148866239116e-07 0.0000000000000000e+00  -5.6569289602791789e-08 6.9318312221187657e-07 0.0000000000000000e+00  4.2240633784608584e-08 6.7404148157507231e-07 0.0000000000000000e+00  -3.9105206313540268e-09 7.4429050690441677e-07 0.0000000000000000e+00  9.0712776559424612e-09 7.4941163629181666e-07 0.0000000000000000e+00  -9.1233883634457701e-09 7.4607428058601172e-07 0.0000000000000000e+00  -2.7936499045111787e-08 6.6941027521655943e-07 0.0000000000000000e+00  1.1955914925528655e-07 8.0573191489539377e-07 0.0000000000000000e+00  -1.0526026611248655e-07 8.2959203412951332e-07 0.0000000000000000e+00  7.3673088743279169e-08 7.6167490178506810e-07 0.0000000000000000e+00  4.2099696641093558e-09 9.1616518340959371e-07 0.0000000000000000e+00  3.5099067744763401e-08 1.0322149427895103e-06 0.0000000000000000e+00  -2.3477141056693663e-08 8.7803279953849916e-07 0.0000000000000000e+00  -9.2631288014490209e-08 8.5096686566650880e-07 0.0000000000000000e+00  9.5884270193645457e-08 8.3216542992898689e-07 0.0000000000000000e+00  -1.2894652323300271e-07 7.8829494321469480e-07 0.0000000000000000e+00  4.2014363566492341e-08 6.5396382338404713e-07 0.0000000000000000e+00  -1.0567401377356900e-08 7.2470398011379079e-07 0.0000000000000000e+00  1.3445585552550485e-08 7.3357740011434365e-07 0.0000000000000000e+00  -3.7034581262922523e-09 7.4421084582476113e-07 0.0000000000000000e+00  -2.9414520407534267e-10 7.3791365207304286e-07 0.0000000000000000e+00  -2.7792757507660576e-10 7.3729536783455673e-07 0.0000000000000000e+00  -5.1351353441312826e-08 7.0752864865673318e-07 0.0000000000000000e+00  4.4417560634460513e-08 6.6357762681669311e-07 0.0000000000000000e+00  -1.5536275583423462e-09 7.4273357786668510e-07 0.0000000000000000e+00  2.8276548053529158e-08 7.6342228064421716e-07 0.0000000000000000e+00  -9.9417240654123860e-09 8.0522377876271156e-07 0.0000000000000000e+00  -7.1034220320147620e-08 6.7323397086759377e-07 0.0000000000000000e+00  6.8362394733537375e-08 6.6982806659638455e-07 0.0000000000000000e+00  2.5221283230178668e-08 8.0885981524833589e-07 0.0000000000000000e+00  8.6236164790181173e-10 8.3187376822295861e-07 0.0000000000000000e+00  5.5233490354793891e-09 8.4989669130135004e-07 0.0000000000000000e+00  -8.5806845716105360e-08 7.2185432578992518e-07 0.0000000000000000e+00  6.3537149434276313e-08 6.9391497523235283e-07 0.0000000000000000e+00  2.2513476922284271e-08 8.2770084516124471e-07 0.0000000000000000e+00  6.8328792788148477e-09 8.6027948920742150e-07 0.0000000000000000e+00  -1.1795967118328883e-08 8.5388840520529555e-07 0.0000000000000000e+00  -5.8363326036403143e-08 7.0999830562449513e-07 0.0000000000000000e+00  1.1949739723002393e-07 8.2009760040906362e-07 0.0000000000000000e+00  -1.0426020631376479e-07 8.4329500276666923e-07 0.0000000000000000e+00  8.6707212495686180e-08 8.3141693671680599e-07 0.0000000000000000e+00  -1.2886809645005538e-07 7.7005125751507581e-07 0.0000000000000000e+00  4.4405254831101953e-08 6.3591959448401501e-07 0.0000000000000000e+00  5.4368215876977004e-09 7.4440067508282302e-07 0.0000000000000000e+00  1.1987973906145520e-09 7.5177887181835109e-07 0.0000000000000000e+00  -5.6172301702655111e-09 7.4672356798554626e-07 0.0000000000000000e+00  1.2309337136470308e-09 7.4142874926928766e-07 0.0000000000000000e+00  -5.0244958180991238e-10 7.4312389870431743e-07 0.0000000000000000e+00  5.9521019061647624e-09 7.4880401675865564e-07 0.0000000000000000e+00  2.5806912412548680e-08 7.8557894058215790e-07 0.0000000000000000e+00  -8.8228190293230143e-09 8.1557684271605988e-07 0.0000000000000000e+00  -7.0089996592390544e-08 6.9279039632822024e-07 0.0000000000000000e+00  5.3996129404344327e-08 6.9788829139924740e-07 0.0000000000000000e+00  4.2012753669292372e-10 7.4707504379494361e-07 0.0000000000000000e+00  3.1043911117128819e-08 7.7584375869917632e-07 0.0000000000000000e+00  -1.2005838296184078e-09 8.2882828214617894e-07 0.0000000000000000e+00  -1.9092928028248471e-08 7.9578223996328432e-07 0.0000000000000000e+00  -9.7480031577442692e-09 7.6219011133179774e-07 0.0000000000000000e+00  -4.0072673583819069e-08 6.9245637145791338e-07 0.0000000000000000e+00  1.0996277515542813e-07 7.9397811547516035e-07 