<?xml version="1.0"?>
<VTKFile type="UnstructuredGrid"  version="0.1"  >
<UnstructuredGrid>
<Piece  NumberOfPoints="11902" NumberOfCells="23402">
<Points>
<DataArray  type="Float64"  NumberOfComponents="3"  format="ascii">-5 -5 0  5 -5 0  5 5 0  -5 5 0  1.104125901675735 0.0006960604718096475 0  -4.9 -5 0  -4.8 -5 0  -4.7 -5 0  -4.6 -5 0  -4.5 -5 0  -4.4 -5 0  -4.3 -5 0  -4.2 -5 0  -4.1 -5 0  -4 -5 0  -3.9 -5 0  -3.8 -5 0  -3.7 -5 0  -3.6 -5 0  -3.5 -5 0  -3.4 -5 0  -3.3 -5 0  -3.2 -5 0  -3.1 -5 0  -3 -5 0  -2.9 -5 0  -2.8 -5 0  -2.7 -5 0  -2.6 -5 0  -2.5 -5 0  -2.4 -5 0  -2.3 -5 0  -2.2 -5 0  -2.1 -5 0  -2 -5 0  -1.9 -5 0  -1.8 -5 0  -1.7 -5 0  -1.6 -5 0  -1.5 -5 0  -1.4 -5 0  -1.3 -5 0  -1.2 -5 0  -1.1 -5 0  -1 -5 0  -0.9000000000000004 -5 0  -0.7999999999999998 -5 0  -0.7000000000000002 -5 0  -0.5999999999999996 -5 0  -0.5 -5 0  -0.4000000000000004 -5 0  -0.2999999999999998 -5 0  -0.2000000000000002 -5 0  -0.09999999999999964 -5 0  0 -5 0  0.09999999999999964 -5 0  0.2000000000000002 -5 0  0.2999999999999998 -5 0  0.4000000000000004 -5 0  0.5 -5 0  0.5999999999999996 -5 0  0.7000000000000002 -5 0  0.7999999999999998 -5 0  0.9000000000000004 -5 0  1 -5 0  1.1 -5 0  1.2 -5 0  1.3 -5 0  1.4 -5 0  1.5 -5 0  1.6 -5 0  1.7 -5 0  1.8 -5 0  1.9 -5 0  2 -5 0  2.1 -5 0  2.2 -5 0  2.3 -5 0  2.4 -5 0  2.5 -5 0  2.6 -5 0  2.7 -5 0  2.8 -5 0  2.9 -5 0  3 -5 0  3.1 -5 0  3.199999999999999 -5 0  3.300000000000001 -5 0  3.4 -5 0  3.5 -5 0  3.6 -5 0  3.699999999999999 -5 0  3.800000000000001 -5 0  3.9 -5 0  4 -5 0  4.1 -5 0  4.199999999999999 -5 0  4.300000000000001 -5 0  4.4 -5 0  4.5 -5 0  4.6 -5 0  4.699999999999999 -5 0  4.800000000000001 -5 0  4.9 -5 0  5 -4.9 0  5 -4.8 0  5 -4.7 0  5 -4.6 0  5 -4.5 0  5 -4.4 0  5 -4.3 0  5 -4.2 0  5 -4.1 0  5 -4 0  5 -3.9 0  5 -3.8 0  5 -3.7 0  5 -3.6 0  5 -3.5 0  5 -3.4 0  5 -3.3 0  5 -3.2 0  5 -3.1 0  5 -3 0  5 -2.9 0  5 -2.8 0  5 -2.7 0  5 -2.6 0  5 -2.5 0  5 -2.4 0  5 -2.3 0  5 -2.2 0  5 -2.1 0  5 -2 0  5 -1.9 0  5 -1.8 0  5 -1.7 0  5 -1.6 0  5 -1.5 0  5 -1.4 0  5 -1.3 0  5 -1.2 0  5 -1.1 0  5 -1 0  5 -0.9000000000000004 0  5 -0.7999999999999998 0  5 -0.7000000000000002 0  5 -0.5999999999999996 0  5 -0.5 0  5 -0.4000000000000004 0  5 -0.2999999999999998 0  5 -0.2000000000000002 0  5 -0.09999999999999964 0  5 0 0  5 0.09999999999999964 0  5 0.2000000000000002 0  5 0.2999999999999998 0  5 0.4000000000000004 0  5 0.5 0  5 0.5999999999999996 0  5 0.7000000000000002 0  5 0.7999999999999998 0  5 0.9000000000000004 0  5 1 0  5 1.1 0  5 1.2 0  5 1.3 0  5 1.4 0  5 1.5 0  5 1.6 0  5 1.7 0  5 1.8 0  5 1.9 0  5 2 0  5 2.1 0  5 2.2 0  5 2.3 0  5 2.4 0  5 2.5 0  5 2.6 0  5 2.7 0  5 2.8 0  5 2.9 0  5 3 0  5 3.1 0  5 3.199999999999999 0  5 3.300000000000001 0  5 3.4 0  5 3.5 0  5 3.6 0  5 3.699999999999999 0  5 3.800000000000001 0  5 3.9 0  5 4 0  5 4.1 0  5 4.199999999999999 0  5 4.300000000000001 0  5 4.4 0  5 4.5 0  5 4.6 0  5 4.699999999999999 0  5 4.800000000000001 0  5 4.9 0  4.9 5 0  4.8 5 0  4.7 5 0  4.6 5 0  4.5 5 0  4.4 5 0  4.3 5 0  4.2 5 0  4.1 5 0  4 5 0  3.9 5 0  3.8 5 0  3.7 5 0  3.6 5 0  3.5 5 0  3.4 5 0  3.3 5 0  3.2 5 0  3.1 5 0  3 5 0  2.9 5 0  2.8 5 0  2.7 5 0  2.6 5 0  2.5 5 0  2.4 5 0  2.3 5 0  2.2 5 0  2.1 5 0  2 5 0  1.9 5 0  1.8 5 0  1.7 5 0  1.6 5 0  1.5 5 0  1.4 5 0  1.3 5 0  1.2 5 0  1.1 5 0  1 5 0  0.9000000000000004 5 0  0.7999999999999998 5 0  0.7000000000000002 5 0  0.5999999999999996 5 0  0.5 5 0  0.4000000000000004 5 0  0.2999999999999998 5 0  0.2000000000000002 5 0  0.09999999999999964 5 0  0 5 0  -0.09999999999999964 5 0  -0.2000000000000002 5 0  -0.2999999999999998 5 0  -0.4000000000000004 5 0  -0.5 5 0  -0.5999999999999996 5 0  -0.7000000000000002 5 0  -0.7999999999999998 5 0  -0.9000000000000004 5 0  -1 5 0  -1.1 5 0  -1.2 5 0  -1.3 5 0  -1.4 5 0  -1.5 5 0  -1.6 5 0  -1.7 5 0  -1.8 5 0  -1.9 5 0  -2 5 0  -2.1 5 0  -2.2 5 0  -2.3 5 0  -2.4 5 0  -2.5 5 0  -2.6 5 0  -2.7 5 0  -2.8 5 0  -2.9 5 0  -3 5 0  -3.1 5 0  -3.199999999999999 5 0  -3.300000000000001 5 0  -3.4 5 0  -3.5 5 0  -3.6 5 0  -3.699999999999999 5 0  -3.800000000000001 5 0  -3.9 5 0  -4 5 0  -4.1 5 0  -4.199999999999999 5 0  -4.300000000000001 5 0  -4.4 5 0  -4.5 5 0  -4.6 5 0  -4.699999999999999 5 0  -4.800000000000001 5 0  -4.9 5 0  -5 4.9 0  -5 4.8 0  -5 4.7 0  -5 4.6 0  -5 4.5 0  -5 4.4 0  -5 4.3 0  -5 4.2 0  -5 4.1 0  -5 4 0  -5 3.9 0  -5 3.8 0  -5 3.7 0  -5 3.6 0  -5 3.5 0  -5 3.4 0  -5 3.3 0  -5 3.2 0  -5 3.1 0  -5 3 0  -5 2.9 0  -5 2.8 0  -5 2.7 0  -5 2.6 0  -5 2.5 0  -5 2.4 0  -5 2.3 0  -5 2.2 0  -5 2.1 0  -5 2 0  -5 1.9 0  -5 1.8 0  -5 1.7 0  -5 1.6 0  -5 1.5 0  -5 1.4 0  -5 1.3 0  -5 1.2 0  -5 1.1 0  -5 1 0  -5 0.9000000000000004 0  -5 0.7999999999999998 0  -5 0.7000000000000002 0  -5 0.5999999999999996 0  -5 0.5 0  -5 0.4000000000000004 0  -5 0.2999999999999998 0  -5 0.2000000000000002 0  -5 0.09999999999999964 0  -5 0 0  -5 -0.09999999999999964 0  -5 -0.2000000000000002 0  -5 -0.2999999999999998 0  -5 -0.4000000000000004 0  -5 -0.5 0  -5 -0.5999999999999996 0  -5 -0.7000000000000002 0  -5 -0.7999999999999998 0  -5 -0.9000000000000004 0  -5 -1 0  -5 -1.1 0  -5 -1.2 0  -5 -1.3 0  -5 -1.4 0  -5 -1.5 0  -5 -1.6 0  -5 -1.7 0  -5 -1.8 0  -5 -1.9 0  -5 -2 0  -5 -2.1 0  -5 -2.2 0  -5 -2.3 0  -5 -2.4 0  -5 -2.5 0  -5 -2.6 0  -5 -2.7 0  -5 -2.8 0  -5 -2.9 0  -5 -3 0  -5 -3.1 0  -5 -3.199999999999999 0  -5 -3.300000000000001 0  -5 -3.4 0  -5 -3.5 0  -5 -3.6 0  -5 -3.699999999999999 0  -5 -3.800000000000001 0  -5 -3.9 0  -5 -4 0  -5 -4.1 0  -5 -4.199999999999999 0  -5 -4.300000000000001 0  -5 -4.4 0  -5 -4.5 0  -5 -4.6 0  -5 -4.699999999999999 0  -5 -4.800000000000001 0  -5 -4.9 0  1.098767538869024 0.1004081632362343 0  1.082136278699174 0.1997129963647194 0  1.054105138516321 0.2974153859703228 0  1.016849986120706 0.3909558285401996 0  0.969145349513486 0.481882423353155 0  0.9122583371969699 0.5676023774338227 0  0.8457215999597988 0.6474287524290551 0  0.770204996209619 0.7205851305231061 0  0.6878034334295586 0.7869303901483238 0  0.5985471660451455 0.8457645181973394 0  0.5028913797755885 0.8957889438858335 0  0.4022156858591954 0.9370668753116161 0  0.2986546076998691 0.9694492481662982 0  0.1913077962643867 0.9915337670778335 0  0.0829244911732641 1.004314359273277 0  -0.026669720044587 1.006887348515933 0  -0.1360112081298112 0.9989527636636298 0  -0.2442098522575255 0.9818837461955815 0  -0.3499795631787932 0.9549663353841211 0  -0.4520676461197193 0.9182113998702679 0  -0.5494734796650548 0.8727901612964156 0  -0.6416882232358487 0.8182640095951292 0  -0.7275328900625048 0.7558279804639944 0  -0.8062792818744992 0.6860194352840928 0  -0.8772722807050038 0.608559121801899 0  -0.9391495752347667 0.5254134208284162 0  -0.9923056069908959 0.4375055768176624 0  -1.035070786278044 0.3447335875606651 0  -1.067325487199367 0.2490034779325331 0  -1.089242569031452 0.1508355912126295 0  -1.100378702300184 0.05075730439302829 0  -1.100403950553901 -0.04988941564265036 0  -1.089292294567425 -0.1498271725475895 0  -1.068440782702028 -0.247968603764379 0  -1.035025199586444 -0.3442476373811982 0  -0.9925328091136336 -0.436513999192497 0  -0.9396075551684772 -0.5246068831062561 0  -0.8778418266556006 -0.6074953498549891 0  -0.8068197295248133 -0.6843689133549893 0  -0.7276684066707827 -0.7539546319144544 0  -0.6413341728962831 -0.8158476401429765 0  -0.5497840167714987 -0.8706572926043836 0  -0.4510213969636634 -0.9161978257941142 0  -0.3488451894155805 -0.9533930996033246 0  -0.242888979485187 -0.9806445366842205 0  -0.1350252208429566 -0.998082727869028 0  -0.02601320562003938 -1.006489510410451 0  0.08324163240994646 -1.003496484980404 0  0.1923408510619194 -0.9904503992022424 0  0.2991310935412163 -0.9683226652677814 0  0.4038352159452797 -0.9360398633549517 0  0.5035048456069583 -0.8949119145065241 0  0.5989368694442303 -0.8450162255966454 0  0.688035573056111 -0.7872637886471741 0  0.7703883510989776 -0.7208788258466884 0  0.8454265274235125 -0.6470162630743421 0  0.9116362358799027 -0.5669383753774868 0  0.9693214118914859 -0.4814663910992513 0  1.017796612733838 -0.391027880400435 0  1.05496070523455 -0.2969223335102863 0  1.082208009811895 -0.1992710092832816 0  1.098801460834539 -0.1001836646383754 0  -2.449262204017507 4.919408299015295 0  -2.449198699494886 -4.911903689412012 0  4.911861082528618 2.448907795435071 0  4.919854328653742 -2.450277495305469 0  2.44705314060397 -4.897381589996026 0  2.441457820918988 4.901090395992026 0  -4.911876213419207 -2.448923066779024 0  -4.911877079812843 2.448926790497297 0  -1.749239730213126 4.912865708355743 0  -1.744994924922609 -4.916232564572141 0  4.922417017786241 1.744986274957763 0  4.911203360363874 -1.748881523801002 0  -4.911474618329083 -1.748600115728473 0  -4.912282525485125 1.748334037749765 0  1.746557376952371 4.906860528572246 0  1.748062809877101 -4.895248480080518 0  -1.149402724090306 4.911039522985301 0  -1.13020215073772 -4.918764336010972 0  -4.911702001620804 -1.148745324619823 0  -4.911528686017173 1.148544527847503 0  1.144360589584354 -4.915043370965432 0  1.149405754231814 4.911032812500482 0  4.911863142264879 1.147027161034786 0  4.922387143561351 -1.152714094620683 0  -0.5469612584450351 -4.912420577940724 0  -0.5467151484702985 4.920880764340662 0  -4.910844498106236 -0.5491629533912498 0  -4.910870111291547 0.5477155485598544 0  4.910212873468566 -0.5494900244620192 0  4.921499675785633 0.5461852627446662 0  0.5427711818457635 -4.899654206561554 0  0.5514486799854729 4.917790070629347 0  -4.912840350728309 -3.049107494975005 0  4.919348393839684 3.047071399231768 0  4.912358942204455 -3.049096493059152 0  -4.913683717554622 3.04619253437651 0  3.055913199953008 -4.918317665042028 0  -3.049289720386737 -4.912317623279815 0  3.052843176855579 4.914378660514981 0  -3.048731591401434 4.913199708762726 0  -4.910106045029732 -0.04995311216947508 0  0.04513787327854692 -4.914389095520691 0  0.04958760313301745 4.921230204806528 0  4.916955536046418 -0.05133233208242028 0  3.546104405056795 -4.919681316402496 0  -3.54942752
[...]
<PointData  Vectors="f_1014"> 
<DataArray  type="Float64"  Name="f_1014"  NumberOfComponents="3" format="ascii">-4.5515998783224461e-07 -4.5517122624396991e-07 0.0000000000000000e+00  4.5515853257662861e-07 -4.5517019583501872e-07 0.0000000000000000e+00  5.0311307004751651e-07 5.0312125337901634e-07 0.0000000000000000e+00  -4.5515964217607817e-07 4.5517072618427912e-07 0.0000000000000000e+00  -7.1928752681438590e-01 -1.4967151800630100e-02 0.0000000000000000e+00  9.1132009716880966e-08 -9.0621601380724322e-07 0.0000000000000000e+00  -1.0664939800130280e-07 -8.6047609574868539e-07 0.0000000000000000e+00  1.0473194652696914e-07 -8.7362450202508015e-07 0.0000000000000000e+00  -9.1459477456116345e-08 -8.8152499092698223e-07 0.0000000000000000e+00  -2.1296854390387091e-08 -9.0577048878919644e-07 0.0000000000000000e+00  3.5828352033914698e-08 -1.0630829718592635e-06 0.0000000000000000e+00  5.9952243655505286e-09 -9.3821906178638621e-07 0.0000000000000000e+00  7.3415996426828279e-08 -7.8061623153138008e-07 0.0000000000000000e+00  -1.0511655933129453e-07 -8.4706373002126417e-07 0.0000000000000000e+00  1.2022984296624608e-07 -8.2725038998453840e-07 0.0000000000000000e+00  -2.6677238479096881e-08 -6.8224980838824481e-07 0.0000000000000000e+00  -5.4380765671878561e-09 -7.5455874640312437e-07 0.0000000000000000e+00  -1.3067750592855024e-08 -7.6918811622462654e-07 0.0000000000000000e+00  1.0302177416414197e-08 -7.7820896815513487e-07 0.0000000000000000e+00  2.2983670771326926e-10 -7.6268538876035189e-07 0.0000000000000000e+00  2.3726107597067411e-10 -7.6215809680939252e-07 0.0000000000000000e+00  5.0458023399941818e-08 -7.2799914882198633e-07 0.0000000000000000e+00  -4.4630773877366780e-08 -6.8985146854924356e-07 0.0000000000000000e+00  2.4964375636706429e-10 -7.6051500413555922e-07 0.0000000000000000e+00  3.9842080619582941e-08 -6.6312717859166974e-07 0.0000000000000000e+00  -1.2855534479477279e-07 -8.0996578924492568e-07 0.0000000000000000e+00  9.7270111993893269e-08 -8.5196875085540109e-07 0.0000000000000000e+00  -9.4353143182721326e-08 -8.5235073825525466e-07 0.0000000000000000e+00  1.2499180325047986e-07 -8.0186636195281683e-07 0.0000000000000000e+00  -3.7973673059444506e-08 -6.4952361760107703e-07 0.0000000000000000e+00  2.6347057523915063e-10 -7.5642413821359478e-07 0.0000000000000000e+00  3.5519373264952215e-08 -6.8785987557146903e-07 0.0000000000000000e+00  -1.2126264901086229e-07 -8.1477889278869789e-07 0.0000000000000000e+00  1.0019833171972378e-07 -8.4901284342971532e-07 0.0000000000000000e+00  -9.5025756128417694e-08 -8.7075473536290831e-07 0.0000000000000000e+00  9.4250037737088298e-10 -8.7208405423020169e-07 0.0000000000000000e+00  6.7752843314432233e-08 -9.7909087917586408e-07 0.0000000000000000e+00  1.1398509065057107e-08 -7.9511232903088489e-07 0.0000000000000000e+00  7.8683575264058827e-09 -7.6636555837420664e-07 0.0000000000000000e+00  5.5991740080907183e-10 -7.5171482217336617e-07 0.0000000000000000e+00  9.8773309457999889e-09 -7.2934536416272717e-07 0.0000000000000000e+00  4.0531218221350915e-08 -6.3982946723486800e-07 0.0000000000000000e+00  -8.0009768934054351e-08 -6.8182541666348033e-07 0.0000000000000000e+00  -8.9206264749353203e-08 -9.6972381131508343e-07 0.0000000000000000e+00  9.7899558327121564e-08 -9.6615773061352686e-07 0.0000000000000000e+00  5.2214557535133793e-08 -7.0455708470645784e-07 0.0000000000000000e+00  -9.5598115334734424e-08 -8.3072454526738060e-07 0.0000000000000000e+00  -1.0745782918328040e-08 -7.5648694409219228e-07 0.0000000000000000e+00  5.8034148899829844e-08 -9.1984264992342313e-07 0.0000000000000000e+00  1.8286502499298133e-09 -7.6243130860015012e-07 0.0000000000000000e+00  4.5510851301468137e-09 -7.5964768252294434e-07 0.0000000000000000e+00  6.4739967638686793e-11 -7.4714326678493574e-07 0.0000000000000000e+00  -3.7759841063376693e-10 -7.4804794251168003e-07 0.0000000000000000e+00  -1.8659032108183649e-09 -7.5253425065252426e-07 0.0000000000000000e+00  -1.2196349864686974e-08 -7.8162307498500118e-07 0.0000000000000000e+00  -7.2684345817503180e-08 -9.6775824659194159e-07 0.0000000000000000e+00  7.7674664988171094e-09 -8.3882667276534424e-07 0.0000000000000000e+00  9.1610658112367724e-08 -8.3028298802779394e-07 0.0000000000000000e+00  -1.0595364793025951e-07 -8.2245807874118870e-07 0.0000000000000000e+00  1.1978917169756535e-07 -8.0513410081728383e-07 0.0000000000000000e+00  -2.7912373520985318e-08 -6.6695813905228873e-07 0.0000000000000000e+00  -9.3725491860412238e-09 -7.4420449574550695e-07 0.0000000000000000e+00  -6.6344852400414784e-09 -7.5558909407199807e-07 0.0000000000000000e+00  5.2580720284321196e-09 -7.5708441932750046e-07 0.0000000000000000e+00  -5.0860649804442534e-09 -7.6012533562814548e-07 0.0000000000000000e+00  -1.0040160625119951e-08 -7.9074739888076465e-07 0.0000000000000000e+00  4.7633507845180301e-08 -7.1795060711704367e-07 0.0000000000000000e+00  -8.6805802047290524e-08 -7.6679422647436770e-07 0.0000000000000000e+00  1.3097198981984756e-08 -8.7950055977799449e-07 0.0000000000000000e+00  5.9512601269982322e-09 -8.4243659943465047e-07 0.0000000000000000e+00  1.5708540251991002e-08 -8.3497613661852028e-07 0.0000000000000000e+00  7.2697548285645141e-08 -6.9241602783150444e-07 0.0000000000000000e+00  -6.8247923194612995e-08 -6.8926708030036416e-07 0.0000000000000000e+00  -1.4572312772548390e-08 -8.1520753062606730e-07 0.0000000000000000e+00  2.7662218210598513e-08 -7.9617924856041097e-07 0.0000000000000000e+00  1.8716762198389256e-09 -7.6152865943406089e-07 0.0000000000000000e+00  1.5955025049091433e-10 -7.5634196772870260e-07 0.0000000000000000e+00  -5.5401936548620237e-09 -7.7983879617377945e-07 0.0000000000000000e+00  5.3657579146296590e-08 -6.9202478218513251e-07 0.0000000000000000e+00  -3.3346712760672858e-08 -6.6329962131847567e-07 0.0000000000000000e+00  -1.6517707832810773e-08 -7.5091352992271072e-07 0.0000000000000000e+00  -4.3636001520004099e-08 -8.1090049086114454e-07 0.0000000000000000e+00  -6.2055380604898134e-09 -8.8322286192829177e-07 0.0000000000000000e+00  8.5880798236599127e-08 -7.4962497916963028e-07 0.0000000000000000e+00  -6.2327727933038571e-08 -7.1982134283384676e-07 0.0000000000000000e+00  -4.7193322909468879e-09 -8.3248927705250846e-07 0.0000000000000000e+00  4.1549956795158953e-08 -7.8988330670122740e-07 0.0000000000000000e+00  -1.8960525818209956e-08 -7.5959545640681376e-07 0.0000000000000000e+00  -2.5285797173676255e-08 -7.9809096829072636e-07 0.0000000000000000e+00  3.0458017237011177e-09 -8.5412739346201492e-07 0.0000000000000000e+00  7.5095761836053183e-08 -7.1788521976181931e-07 0.0000000000000000e+00  -7.3058636201148801e-08 -7.1534503321602616e-07 0.0000000000000000e+00  -8.0997207685385792e-09 -8.4657835250052702e-07 0.0000000000000000e+00  3.3376893624908672e-08 -8.1167105632744158e-07 0.0000000000000000e+00  1.6071903069971359e-08 -7.4698140200914064e-07 0.0000000000000000e+00  -1.2347960697770217e-08 -7.4152471043789006e-07 0.0000000000000000e+00  -6.8705338493999105e-09 -7.7860766194696271e-07 0.0000000000000000e+00  5.2303967310253295e-08 -6.9705910037846675e-07 0.0000000000000000e+00  -6.5766840748359020e-08 -7.0934332675902418e-07 0.0000000000000000e+00  -1.8633699873950040e-08 -8.4100443339963286e-07 0.0000000000000000e+00  2.8476741982168727e-08 -8.1883084679453848e-07 0.0000000000000000e+00  3.3799980029659526e-09 -7.8065651208857900e-07 0.0000000000000000e+00  -6.6778314255550414e-09 -7.9468410805731527e-07 0.0000000000000000e+00  -6.0158728290440102e-08 -9.4832971272430315e-07 0.0000000000000000e+00  8.9124771554786802e-07 8.8183208194470694e-08 0.0000000000000000e+00  8.8568930005503966e-07 -1.2428199491181326e-07 0.0000000000000000e+00  9.1738741043138029e-07 1.1029339895285125e-07 0.0000000000000000e+00  7.5726138064684690e-07 -2.5109538182107276e-08 0.0000000000000000e+00  8.0242459608076142e-07 1.6740661607025148e-08 0.0000000000000000e+00  7.8077767522848737e-07 4.3020495618972257e-10 0.0000000000000000e+00  7.8035741231530957e-07 -3.0518359196107570e-10 0.0000000000000000e+00  7.8028151642309289e-07 6.8567681722927205e-10 0.0000000000000000e+00  7.8457450248235849e-07 -6.5028966325961097e-09 0.0000000000000000e+00  7.9332432925163765e-07 3.7123426641266613e-09 0.0000000000000000e+00  7.9658218211392718e-07 -6.8697489467120429e-09 0.0000000000000000e+00  7.9503232513546202e-07 1.1804783288067355e-08 0.0000000000000000e+00  7.8774323990131032e-07 -1.2949083199651200e-08 0.0000000000000000e+00  7.8809099121726602e-07 9.0164745230087304e-09 0.0000000000000000e+00  8.0275090663930380e-07 -1.4325662787225787e-08 0.0000000000000000e+00  7.9137858997325769e-07 2.2817659277418345e-08 0.0000000000000000e+00  7.7461536626549317e-07 -3.5766760637695592e-09 0.0000000000000000e+00  7.8389731419609196e-07 -1.1322072174318080e-08 0.0000000000000000e+00  7.7341885385803280e-07 1.6171178387888577e-08 0.0000000000000000e+00  7.7912949442568142e-07 -1.8209811014719373e-08 0.0000000000000000e+00  7.9885341513965623e-07 5.9876030744652633e-09 0.0000000000000000e+00  7.7394113986548192e-07 1.3252674990314607e-08 0.0000000000000000e+00  8.0704153255246597e-07 -3.2126817971581365e-08 0.0000000000000000e+00  8.4093869807817992e-07 -8.3521049710186135e-09 0.0000000000000000e+00  8.3894391353093145e-07 8.8350734959530764e-09 0.0000000000000000e+00  7.9954009483333377e-07 2.1358565926751516e-08 0.0000000000000000e+00  7.6763225084445866e-07 1.0682219518388971e-08 0.0000000000000000e+00  7.5447605406033744e-07 3.5088966296937445e-10 0.0000000000000000e+00  7.5366456826807797e-07 3.6696166123148922e-10 0.0000000000000000e+00  7.5284660326825510e-07 3.6676056738723872e-10 0.0000000000000000e+00  7.5206806055166963e-07 3.6293398224278820e-10 0.0000000000000000e+00  7.5125826890353823e-07 3.7534714503582680e-10 0.0000000000000000e+00  7.6151987816008810e-07 -1.1405278946516217e-08 0.0000000000000000e+00  7.7568580208201566e-07 1.4983577218825348e-09 0.0000000000000000e+00  7.6303790743773690e-07 1.1127104351738211e-08 0.0000000000000000e+00  7.9546765674148505e-07 -3.0851965858813980e-08 0.0000000000000000e+00  8.2840079866336806e-07 -9.9441735264542090e-09 0.0000000000000000e+00  8.5692252372816571e-07 -6.1655135098051864e-09 0.0000000000000000e+00  8.5540347573447508e-07 1.7868601713216242e-08 0.0000000000000000e+00  7.3742032616062726e-07 4.6189296674503988e-10 0.0000000000000000e+00  8.2539547657727886e-07 3.4152568177047590e-08 0.0000000000000000e+00  7.4717639187339180e-07 -1.0862708596514492e-09 0.0000000000000000e+00  7.4330317269600688e-07 1.5473859285578046e-09 0.0000000000000000e+00  7.4304092795259161e-07 2.1003009207542235e-10 0.0000000000000000e+00  7.9828798853597332e-07 -3.0231927195633088e-08 0.0000000000000000e+00  8.0820733536882311e-07 -9.2161229653696311e-09 0.0000000000000000e+00  8.3058654924592803e-07 -1.6437039473092531e-09 0.0000000000000000e+00  8.2137281889960135e-07 6.9917700686915664e-09 0.0000000000000000e+00  8.1752983140122332e-07 6.6439740889187939e-09 0.0000000000000000e+00  8.1616716725259817e-07 -1.4661512741338673e-08 0.0000000000000000e+00  8.4693298543449911e-07 -2.0676747130577437e-09 0.0000000000000000e+00  8.5624633672680827e-07 -1.7113900055130660e-09 0.0000000000000000e+00  8.3595362393766307e-07 5.7651778457240754e-10 0.0000000000000000e+00  8.5036853300020121e-07 5.4215408814379229e-10 0.0000000000000000e+00  8.5680468705808227e-07 -1.3660678391772381e-09 0.0000000000000000e+00  8.3662299927959950e-07 4.8050159323861517e-10 0.0000000000000000e+00  8.4817110898382644e-07 1.4830331594528684e-09 0.0000000000000000e+00  8.4277401515529330e-07 2.7618968780617246e-09 0.0000000000000000e+00  7.9981428068816554e-07 2.4751349920301750e-08 0.0000000000000000e+00  7.7746881670514554e-07 4.0924489727195259e-11 0.0000000000000000e+00  7.7413104014374549e-07 8.8822734124020753e-09 0.0000000000000000e+00  7.7134427966443290e-07 -1.1876258095386077e-08 0.0000000000000000e+00  7.7744938005836008e-07 -1.4478553712301398e-10 0.0000000000000000e+00  7.9033175402547258e-07 5.5000496481939303e-11 0.0000000000000000e+00  8.0940932836988551e-07 -2.3892844789169087e-08 0.0000000000000000e+00  8.5169302320479841e-07 -3.7706490145197446e-09 0.0000000000000000e+00  8.6577431281012627e-07 -2.7498663258857473e-09 0.0000000000000000e+00  8.4704771701140412e-07 2.9812050562030923e-11 0.0000000000000000e+00  8.5870245286365505e-07 3.4814514700035986e-09 0.0000000000000000e+00  8.3334294724332807e-07 1.2395246476167610e-08 0.0000000000000000e+00  7.8373083266872324e-07 2.2714758821033718e-08 0.0000000000000000e+00  7.5823571941297099e-07 4.1422266580708131e-09 0.0000000000000000e+00  7.5523346903643634e-07 -3.4240588998588618e-10 0.0000000000000000e+00  7.5596404288313333e-07 -3.1864310151308023e-10 0.0000000000000000e+00  7.5920690337736252e-07 -1.3751372516163959e-09 0.0000000000000000e+00  7.6667928115605695e-07 -4.7096496890952280e-09 0.0000000000000000e+00  7.8757647697072971e-07 -1.0404998187005935e-08 0.0000000000000000e+00  8.1993693980282443e-07 -2.3612887519749503e-08 0.0000000000000000e+00  8.5966906844435796e-07 -9.5130410102761545e-10 0.0000000000000000e+00  8.3946136566191168e-07 1.1503584891488619e-08 0.0000000000000000e+00  8.1138916693506874e-07 1.4981070330671984e-08 0.0000000000000000e+00  8.0480387162089449e-07 -7.9632256466141246e-09 0.0000000000000000e+00  8.2364459806360607e-07 -1.9067516595560737e-08 0.0000000000000000e+00  8.5840551894557423e-07 2.6665057780899026e-10 0.0000000000000000e+00  8.4284007678121436e-07 1.0795308543533357e-08 0.0000000000000000e+00  8.1476173673360721e-07 8.8392515687229095e-09 0.0000000000000000e+00  7.8382044273812468e-07 1.8463158495510716e-08 0.0000000000000000e+00  7.7430606513798232e-07 -7.9786505559876314e-09 0.0000000000000000e+00  7.7339509370169466e-07 7.5394610432005632e-09 0.0000000000000000e+00  7.6558517117744718e-07 -1.9653324694386474e-10 0.0000000000000000e+00  7.6602823622336840e-07 -1.9051298932633778e-10 0.0000000000000000e+00  7.7945666070972459e-07 -1.1343823035475955e-08 0.0000000000000000e+00  7.7978887570830580e-07 1.0978647198428981e-08 0.0000000000000000e+00  7.7003627744324189e-07 -2.4705209001336829e-09 0.0000000000000000e+00  8.0071370719421330e-07 -1.2011833215757336e-08 0.0000000000000000e+00  8.1483904405930288e-07 -6.9463827822306362e-09 0.0000000000000000e+00  8.2351476671573355e-07 -1.7169820168582820e-08 0.0000000000000000e+00  8.4659907046111371e-07 -3.7037918850884973e-09 0.0000000000000000e+00  1.0393665076242299e-06 -6.0151778018896892e-08 0.0000000000000000e+00  -1.0904879023065723e-07 9.7291473056255746e-07 0.0000000000000000e+00  5.7062471627401354e-08 8.3020982411786905e-07 0.0000000000000000e+00  1.0912207522875445e-09 9.4670084700223953e-07 0.0000000000000000e+00  3.4559783358405547e-08 1.0626237032518728e-06 0.0000000000000000e+00  -1.8575307236782576e-08 9.0192032866570653e-07 0.0000000000000000e+00  -8.8490517962842405e-08 8.9549240871382519e-07 0.0000000000000000e+00  1.3339375657513174e-07 9.2092280081247152e-07 0.0000000000000000e+00  -1.4564928095333894e-07 9.2634130678718726e-07 0.0000000000000000e+00  1.2005449349937443e-08 7.0794722516998684e-07 0.0000000000000000e+00  7.7903771730447912e-09 7.6343009618541570e-07 0.0000000000000000e+00  -1.2163293624087846e-08 7.7964612839783841e-07 0.0000000000000000e+00  -1.1572026541999847e-08 7.5378409679427381e-07 0.0000000000000000e+00  -3.3768312408724031e-08 6.6376938296461298e-07 0.0000000000000000e+00  5.6761463092918879e-08 6.9749107092468946e-07 0.0000000000000000e+00  1.1062330701029696e-09 7.9372846033296963e-07 0.0000000000000000e+00  -1.7718693186963570e-09 7.8387162775735219e-07 0.0000000000000000e+00  -1.4124740481142096e-09 7.7786822740716253e-07 0.0000000000000000e+00  2.2017903493849852e-09 7.8106820107743171e-07 0.0000000000000000e+00  -1.2378165956535748e-09 7.9139063146571836e-07 0.0000000000000000e+00  -5.6433550032409012e-08 6.9802473830900935e-07 0.0000000000000000e+00  4.2390184441599386e-08 6.7950568911791388e-07 0.0000000000000000e+00  -3.7620544557044815e-09 7.5039877123520171e-07 0.0000000000000000e+00  9.2221230085535481e-09 7.5595936527119700e-07 0.0000000000000000e+00  -8.9719656328809834e-09 7.5283629973636881e-07 0.0000000000000000e+00  -2.7784216555067938e-08 6.7567924575630274e-07 0.0000000000000000e+00  1.1970363599047596e-07 8.1444396246832262e-07 0.0000000000000000e+00  -1.0511143130413980e-07 8.3773425476961138e-07 0.0000000000000000e+00  7.3823661757015369e-08 7.7039731349531296e-07 0.0000000000000000e+00  4.3616709165137268e-09 9.2662694175086490e-07 0.0000000000000000e+00  3.5251848777469554e-08 1.0446183918279184e-06 0.0000000000000000e+00  -2.3295763771626408e-08 8.8869048442400654e-07 0.0000000000000000e+00  -9.2472968437025908e-08 8.6133593856444289e-07 0.0000000000000000e+00  9.6012486431970752e-08 8.4358700892342849e-07 0.0000000000000000e+00  -1.2880134870587253e-07 7.9837976582662276e-07 0.0000000000000000e+00  4.2141690777937209e-08 6.6328120190531046e-07 0.0000000000000000e+00  -1.0437124580266832e-08 7.3506109588782846e-07 0.0000000000000000e+00  1.3565043674837555e-08 7.4443946632270032e-07 0.0000000000000000e+00  -3.5868920297364114e-09 7.5542216497938114e-07 0.0000000000000000e+00  -1.8543364783568666e-10 7.4928822993044382e-07 0.0000000000000000e+00  -1.7686586241385013e-10 7.4888940472031453e-07 0.0000000000000000e+00  -5.1244971835938623e-08 7.1870015586219921e-07 0.0000000000000000e+00  4.4486475341281031e-08 6.7448475374719595e-07 0.0000000000000000e+00  -1.4795909158899288e-09 7.5499126809203749e-07 0.0000000000000000e+00  2.8332896118243165e-08 7.7624300899677146e-07 0.0000000000000000e+00  -9.8842932554820132e-09 8.1881582583439650e-07 0.0000000000000000e+00  -7.0966866938384994e-08 6.8458192036259854e-07 0.0000000000000000e+00  6.8369561908363180e-08 6.8136892953709300e-07 0.0000000000000000e+00  2.5233568462064143e-08 8.2282033307848707e-07 0.0000000000000000e+00  8.7237649278658673e-10 8.4625343009294037e-07 0.0000000000000000e+00  5.5213267121276029e-09 8.6460363277538952e-07 0.0000000000000000e+00  -8.5788704021830831e-08 7.3434572223874698e-07 0.0000000000000000e+00  6.3491740353946435e-08 7.0579844252915910e-07 0.0000000000000000e+00  2.2471926203068169e-08 8.4186798186173123e-07 0.0000000000000000e+00  6.7860800528338830e-09 8.7492382413650455e-07 0.0000000000000000e+00  -1.1847356544719617e-08 8.6832714163246923e-07 0.0000000000000000e+00  -5.8410970167383587e-08 7.2195686144330309e-07 0.0000000000000000e+00  1.1939404522917214e-07 8.3331869793212512e-07 0.0000000000000000e+00  -1.0431587877822370e-07 8.5730847960741705e-07 0.0000000000000000e+00  8.6591898121781725e-08 8.4443642833983949e-07 0.0000000000000000e+00  -1.2892469323943091e-07 7.8260247414406951e-07 0.0000000000000000e+00  4.4282554898344003e-08 6.4549938194318366e-07 0.0000000000000000e+00  5.3188466799048699e-09 7.5557318325737312e-07 0.0000000000000000e+00  1.0758413579043037e-09 7.6281209828390498e-07 0.0000000000000000e+00  -5.7452279022223905e-09 7.5743338970834775e-07 0.0000000000000000e+00  1.0963996993350613e-09 7.5174232109869907e-07 0.0000000000000000e+00  -6.4110633702855952e-10 7.5316850171505095e-07 0.0000000000000000e+00  5.8084404126170946e-09 7.5858084619752639e-07 0.0000000000000000e+00  2.5658636045468631e-08 7.9540166800980711e-07 0.0000000000000000e+00  -8.9702716759024181e-09 8.2559909056276696e-07 0.0000000000000000e+00  -7.0234126035215023e-08 7.0132101369942396e-07 0.0000000000000000e+00  5.3843199127106633e-08 7.0551673529742143e-07 0.0000000000000000e+00  2.6655290645556542e-10 7.5520481446184289e-07 0.0000000000000000e+00  3.0891221618844934e-08 7.8377226541693597e-07 0.0000000000000000e+00  -1.3537519917720812e-09 8.3709956626725542e-07 0.0000000000000000e+00  -1.9246009796010692e-08 8.0345807540874335e-07 0.0000000000000000e+00  -9.8993734293055778e-09 7.6915335391685108e-07 0.0000000000000000e+00  -4.0226192395976561e-08 6.9863462588684360e-07 0.0000000000000000e+00  1.0982839330452292e-07 7.9991863029737356e-07 0.0