<?xml version="1.0"?>
<VTKFile type="UnstructuredGrid"  version="0.1"  >
<UnstructuredGrid>
<Piece  NumberOfPoints="11902" NumberOfCells="23402">
<Points>
<DataArray  type="Float64"  NumberOfComponents="3"  format="ascii">-5 -5 0  5 -5 0  5 5 0  -5 5 0  1.015079845214844 9.653840571896435e-05 0  -4.9 -5 0  -4.8 -5 0  -4.7 -5 0  -4.6 -5 0  -4.5 -5 0  -4.4 -5 0  -4.3 -5 0  -4.2 -5 0  -4.1 -5 0  -4 -5 0  -3.9 -5 0  -3.8 -5 0  -3.7 -5 0  -3.6 -5 0  -3.5 -5 0  -3.4 -5 0  -3.3 -5 0  -3.2 -5 0  -3.1 -5 0  -3 -5 0  -2.9 -5 0  -2.8 -5 0  -2.7 -5 0  -2.6 -5 0  -2.5 -5 0  -2.4 -5 0  -2.3 -5 0  -2.2 -5 0  -2.1 -5 0  -2 -5 0  -1.9 -5 0  -1.8 -5 0  -1.7 -5 0  -1.6 -5 0  -1.5 -5 0  -1.4 -5 0  -1.3 -5 0  -1.2 -5 0  -1.1 -5 0  -1 -5 0  -0.9000000000000004 -5 0  -0.7999999999999998 -5 0  -0.7000000000000002 -5 0  -0.5999999999999996 -5 0  -0.5 -5 0  -0.4000000000000004 -5 0  -0.2999999999999998 -5 0  -0.2000000000000002 -5 0  -0.09999999999999964 -5 0  0 -5 0  0.09999999999999964 -5 0  0.2000000000000002 -5 0  0.2999999999999998 -5 0  0.4000000000000004 -5 0  0.5 -5 0  0.5999999999999996 -5 0  0.7000000000000002 -5 0  0.7999999999999998 -5 0  0.9000000000000004 -5 0  1 -5 0  1.1 -5 0  1.2 -5 0  1.3 -5 0  1.4 -5 0  1.5 -5 0  1.6 -5 0  1.7 -5 0  1.8 -5 0  1.9 -5 0  2 -5 0  2.1 -5 0  2.2 -5 0  2.3 -5 0  2.4 -5 0  2.5 -5 0  2.6 -5 0  2.7 -5 0  2.8 -5 0  2.9 -5 0  3 -5 0  3.1 -5 0  3.199999999999999 -5 0  3.300000000000001 -5 0  3.4 -5 0  3.5 -5 0  3.6 -5 0  3.699999999999999 -5 0  3.800000000000001 -5 0  3.9 -5 0  4 -5 0  4.1 -5 0  4.199999999999999 -5 0  4.300000000000001 -5 0  4.4 -5 0  4.5 -5 0  4.6 -5 0  4.699999999999999 -5 0  4.800000000000001 -5 0  4.9 -5 0  5 -4.9 0  5 -4.8 0  5 -4.7 0  5 -4.6 0  5 -4.5 0  5 -4.4 0  5 -4.3 0  5 -4.2 0  5 -4.1 0  5 -4 0  5 -3.9 0  5 -3.8 0  5 -3.7 0  5 -3.6 0  5 -3.5 0  5 -3.4 0  5 -3.3 0  5 -3.2 0  5 -3.1 0  5 -3 0  5 -2.9 0  5 -2.8 0  5 -2.7 0  5 -2.6 0  5 -2.5 0  5 -2.4 0  5 -2.3 0  5 -2.2 0  5 -2.1 0  5 -2 0  5 -1.9 0  5 -1.8 0  5 -1.7 0  5 -1.6 0  5 -1.5 0  5 -1.4 0  5 -1.3 0  5 -1.2 0  5 -1.1 0  5 -1 0  5 -0.9000000000000004 0  5 -0.7999999999999998 0  5 -0.7000000000000002 0  5 -0.5999999999999996 0  5 -0.5 0  5 -0.4000000000000004 0  5 -0.2999999999999998 0  5 -0.2000000000000002 0  5 -0.09999999999999964 0  5 0 0  5 0.09999999999999964 0  5 0.2000000000000002 0  5 0.2999999999999998 0  5 0.4000000000000004 0  5 0.5 0  5 0.5999999999999996 0  5 0.7000000000000002 0  5 0.7999999999999998 0  5 0.9000000000000004 0  5 1 0  5 1.1 0  5 1.2 0  5 1.3 0  5 1.4 0  5 1.5 0  5 1.6 0  5 1.7 0  5 1.8 0  5 1.9 0  5 2 0  5 2.1 0  5 2.2 0  5 2.3 0  5 2.4 0  5 2.5 0  5 2.6 0  5 2.7 0  5 2.8 0  5 2.9 0  5 3 0  5 3.1 0  5 3.199999999999999 0  5 3.300000000000001 0  5 3.4 0  5 3.5 0  5 3.6 0  5 3.699999999999999 0  5 3.800000000000001 0  5 3.9 0  5 4 0  5 4.1 0  5 4.199999999999999 0  5 4.300000000000001 0  5 4.4 0  5 4.5 0  5 4.6 0  5 4.699999999999999 0  5 4.800000000000001 0  5 4.9 0  4.9 5 0  4.8 5 0  4.7 5 0  4.6 5 0  4.5 5 0  4.4 5 0  4.3 5 0  4.2 5 0  4.1 5 0  4 5 0  3.9 5 0  3.8 5 0  3.7 5 0  3.6 5 0  3.5 5 0  3.4 5 0  3.3 5 0  3.2 5 0  3.1 5 0  3 5 0  2.9 5 0  2.8 5 0  2.7 5 0  2.6 5 0  2.5 5 0  2.4 5 0  2.3 5 0  2.2 5 0  2.1 5 0  2 5 0  1.9 5 0  1.8 5 0  1.7 5 0  1.6 5 0  1.5 5 0  1.4 5 0  1.3 5 0  1.2 5 0  1.1 5 0  1 5 0  0.9000000000000004 5 0  0.7999999999999998 5 0  0.7000000000000002 5 0  0.5999999999999996 5 0  0.5 5 0  0.4000000000000004 5 0  0.2999999999999998 5 0  0.2000000000000002 5 0  0.09999999999999964 5 0  0 5 0  -0.09999999999999964 5 0  -0.2000000000000002 5 0  -0.2999999999999998 5 0  -0.4000000000000004 5 0  -0.5 5 0  -0.5999999999999996 5 0  -0.7000000000000002 5 0  -0.7999999999999998 5 0  -0.9000000000000004 5 0  -1 5 0  -1.1 5 0  -1.2 5 0  -1.3 5 0  -1.4 5 0  -1.5 5 0  -1.6 5 0  -1.7 5 0  -1.8 5 0  -1.9 5 0  -2 5 0  -2.1 5 0  -2.2 5 0  -2.3 5 0  -2.4 5 0  -2.5 5 0  -2.6 5 0  -2.7 5 0  -2.8 5 0  -2.9 5 0  -3 5 0  -3.1 5 0  -3.199999999999999 5 0  -3.300000000000001 5 0  -3.4 5 0  -3.5 5 0  -3.6 5 0  -3.699999999999999 5 0  -3.800000000000001 5 0  -3.9 5 0  -4 5 0  -4.1 5 0  -4.199999999999999 5 0  -4.300000000000001 5 0  -4.4 5 0  -4.5 5 0  -4.6 5 0  -4.699999999999999 5 0  -4.800000000000001 5 0  -4.9 5 0  -5 4.9 0  -5 4.8 0  -5 4.7 0  -5 4.6 0  -5 4.5 0  -5 4.4 0  -5 4.3 0  -5 4.2 0  -5 4.1 0  -5 4 0  -5 3.9 0  -5 3.8 0  -5 3.7 0  -5 3.6 0  -5 3.5 0  -5 3.4 0  -5 3.3 0  -5 3.2 0  -5 3.1 0  -5 3 0  -5 2.9 0  -5 2.8 0  -5 2.7 0  -5 2.6 0  -5 2.5 0  -5 2.4 0  -5 2.3 0  -5 2.2 0  -5 2.1 0  -5 2 0  -5 1.9 0  -5 1.8 0  -5 1.7 0  -5 1.6 0  -5 1.5 0  -5 1.4 0  -5 1.3 0  -5 1.2 0  -5 1.1 0  -5 1 0  -5 0.9000000000000004 0  -5 0.7999999999999998 0  -5 0.7000000000000002 0  -5 0.5999999999999996 0  -5 0.5 0  -5 0.4000000000000004 0  -5 0.2999999999999998 0  -5 0.2000000000000002 0  -5 0.09999999999999964 0  -5 0 0  -5 -0.09999999999999964 0  -5 -0.2000000000000002 0  -5 -0.2999999999999998 0  -5 -0.4000000000000004 0  -5 -0.5 0  -5 -0.5999999999999996 0  -5 -0.7000000000000002 0  -5 -0.7999999999999998 0  -5 -0.9000000000000004 0  -5 -1 0  -5 -1.1 0  -5 -1.2 0  -5 -1.3 0  -5 -1.4 0  -5 -1.5 0  -5 -1.6 0  -5 -1.7 0  -5 -1.8 0  -5 -1.9 0  -5 -2 0  -5 -2.1 0  -5 -2.2 0  -5 -2.3 0  -5 -2.4 0  -5 -2.5 0  -5 -2.6 0  -5 -2.7 0  -5 -2.8 0  -5 -2.9 0  -5 -3 0  -5 -3.1 0  -5 -3.199999999999999 0  -5 -3.300000000000001 0  -5 -3.4 0  -5 -3.5 0  -5 -3.6 0  -5 -3.699999999999999 0  -5 -3.800000000000001 0  -5 -3.9 0  -5 -4 0  -5 -4.1 0  -5 -4.199999999999999 0  -5 -4.300000000000001 0  -5 -4.4 0  -5 -4.5 0  -5 -4.6 0  -5 -4.699999999999999 0  -5 -4.800000000000001 0  -5 -4.9 0  1.010053914800214 0.09978961285372513 0  0.9949548799157021 0.1985750529791727 0  0.9698594981676889 0.2954282732908753 0  0.935305270312443 0.389213731989956 0  0.891436759684136 0.4792826835045907 0  0.8387616651964989 0.5645342412272284 0  0.777680506348834 0.6441060744129886 0  0.7087522927486328 0.7172685981223379 0  0.6329021561396848 0.7833645439126868 0  0.5507718380318996 0.8417145354107987 0  0.4631147684575844 0.8916071779890956 0  0.3708079627290898 0.9326668106898319 0  0.2749927767833759 0.9645184143194991 0  0.176319697387957 0.9866741184234384 0  0.07597076759680958 0.9991134521252566 0  -0.02517840165440269 1.001613835943699 0  -0.12608786628278 0.9941038189492437 0  -0.2257410487883726 0.9768390877173313 0  -0.3231269207103552 0.9498309615320759 0  -0.4172909462397938 0.9133211627723016 0  -0.507289624818945 0.8678131732035975 0  -0.5922657703835169 0.8136306411262074 0  -0.6713636431247857 0.7513881643891884 0  -0.7437869731900743 0.6817150806022465 0  -0.8088392396823025 0.6051368116610389 0  -0.8657968997718585 0.5225625436695627 0  -0.9142505751756386 0.4348700842607718 0  -0.9535307391827905 0.3427894523234287 0  -0.9833091452350017 0.2473432875584194 0  -1.003377661545591 0.1494487885052212 0  -1.013482039756401 0.05002464575542692 0  -1.013485014771061 -0.04990682715963744 0  -1.003385120844588 -0.1493148252098371 0  -0.9835065754683001 -0.2471937542350005 0  -0.9535346257322908 -0.3426908507873839 0  -0.9142751486327712 -0.4347040599452912 0  -0.8658513870194882 -0.5224270933950775 0  -0.8088984020234037 -0.604960005655617 0  -0.7438386257502588 -0.6814604883996498 0  -0.6713514703185446 -0.7511197142112025 0  -0.5921892169730478 -0.8132865767233415 0  -0.5073345470671452 -0.8675652963394976 0  -0.4171719306578273 -0.9130538236005261 0  -0.3229934110293827 -0.9496030344886475 0  -0.2255673592512122 -0.9766354536229782 0  -0.1259366552413916 -0.9939569475516431 0  -0.02507587370597418 -1.001549199338559 0  0.07599528410591763 -0.9990083575504624 0  0.176426913591481 -0.9865226952563571 0  0.2750222288579201 -0.9643446397279689 0  0.3710110401084709 -0.9324942321572859 0  0.4631665562841625 -0.8914364061337789 0  0.5508317407766838 -0.8415452999145204 0  0.6329467912694743 -0.78337732856955 0  0.7087927252787868 -0.7172967856344759 0  0.7776335372338601 -0.6440422897055077 0  0.8386873734639714 -0.5644012306797175 0  0.8914914982762479 -0.4791926615727442 0  0.9354762214741823 -0.3892095271154844 0  0.9699927403019445 -0.2953865844181048 0  0.9949642957915507 -0.1985145587813652 0  1.010066524204656 -0.09976814504701946 0  -2.449877118823174 4.920551732212284 0  -2.449867765334997 -4.913150323394575 0  4.913137294127764 2.449811566700095 0  4.921012308422003 -2.451099381217829 0  2.447831676371997 -4.898846188062145 0  2.442211101596169 4.902507152166665 0  -4.913141857318061 -2.449816989122916 0  -4.913146030262469 2.449820449858164 0  -1.749870452595782 4.914500896688345 0  -1.745597822116959 -4.917801662654991 0  4.924021665836575 1.745800351795017 0  4.913035403330436 -1.749814910536595 0  -4.913286617972803 -1.749519567789681 0  -4.914081675997567 1.749243645068302 0  1.747226854376267 4.908617359010782 0  1.748812674269042 -4.8972206456911 0  -1.149901937182587 4.913009383653018 0  -1.130650722293695 -4.920564268734307 0  -4.913961532395184 -1.149498914306967 0  -4.913795740754462 1.14929691187902 0  1.144826829146858 -4.916927964366911 0  1.149898946542381 4.913008452366339 0  4.914141184159283 1.147786514302724 0  4.924388320260202 -1.153385986272332 0  -0.5472200911094928 -4.914551715965679 0  -0.546949317310661 4.922812495880689 0  -4.913462003146943 -0.5495806958092314 0  -4.913489068059785 0.5481285934258985 0  4.912873813361328 -0.5499158916335023 0  4.923827452256287 0.5465538306924416 0  0.5430544947072938 -4.902102454669545 0  0.5516869161811748 4.919799126054567 0  -4.913697038174848 -3.04984878459581 0  4.920148080486831 3.047765158707071 0  4.91322535099086 -3.049849874460729 0  -4.914536470048048 3.046927866614906 0  3.056464613681724 -4.919160472599303 0  -3.049882485627418 -4.913218350931872 0  3.053423576273419 4.915264521458525 0  -3.049320936521641 4.914093769166567 0  -4.912857370376178 -0.0499948265795633 0  0.04515356012108 -4.916534109966382 0  0.04960553253724152 4.923209791547135 0  4.919521135873922 -0.05137144643561856 0  3.546543583493023 -4.920273877941732 0  -3
[...]
<PointData  Vectors="f_272"> 
<DataArray  type="Float64"  Name="f_272"  NumberOfComponents="3" format="ascii">-4.5531042871738702e-07 -4.5531233107652705e-07 0.0000000000000000e+00  4.5531018871929976e-07 -4.5531216594545509e-07 0.0000000000000000e+00  5.0326332090600406e-07 5.0326470263375151e-07 0.0000000000000000e+00  -4.5531037169587689e-07 4.5531224687453586e-07 0.0000000000000000e+00  -9.9656683339934260e-01 -2.1214123427859295e-02 0.0000000000000000e+00  9.0996309985129876e-08 -9.0672443698290048e-07 0.0000000000000000e+00  -1.0682995641357057e-07 -8.6149524047815743e-07 0.0000000000000000e+00  1.0461083805242923e-07 -8.7484947968296827e-07 0.0000000000000000e+00  -9.1652197944678196e-08 -8.8345145088716024e-07 0.0000000000000000e+00  -2.1493859720746090e-08 -9.0814023321876773e-07 0.0000000000000000e+00  3.5669413874153290e-08 -1.0661418130034116e-06 0.0000000000000000e+00  5.8314924914122052e-09 -9.4145868527963211e-07 0.0000000000000000e+00  7.3272348513133315e-08 -7.8351634343256817e-07 0.0000000000000000e+00  -1.0531159512085598e-07 -8.5124259017366729e-07 0.0000000000000000e+00  1.2010026823774281e-07 -8.3091414829692002e-07 0.0000000000000000e+00  -2.6863847390437027e-08 -6.8618033785741749e-07 0.0000000000000000e+00  -5.6205244144098255e-09 -7.5918231701881682e-07 0.0000000000000000e+00  -1.3256322088279732e-08 -7.7436063237531752e-07 0.0000000000000000e+00  1.0116169536544405e-08 -7.8375323598602544e-07 0.0000000000000000e+00  3.7122325783252658e-11 -7.6860942777299648e-07 0.0000000000000000e+00  4.0371303173964737e-11 -7.6852122941055683e-07 0.0000000000000000e+00  5.0272951125158750e-08 -7.3419420245785120e-07 0.0000000000000000e+00  -4.4845414343099611e-08 -6.9673968480832216e-07 0.0000000000000000e+00  4.1729015765947612e-11 -7.6824252628591047e-07 0.0000000000000000e+00  3.9634860581593884e-08 -6.7002072043115018e-07 0.0000000000000000e+00  -1.2876480720671767e-07 -8.2013158557486485e-07 0.0000000000000000e+00  9.7066540247654756e-08 -8.6152946006556560e-07 0.0000000000000000e+00  -9.4582856546377836e-08 -8.6388666706615594e-07 0.0000000000000000e+00  1.2480585901394500e-07 -8.1163142445164511e-07 0.0000000000000000e+00  -3.8202812572218766e-08 -6.5895248235747412e-07 0.0000000000000000e+00  3.9458552180763394e-11 -7.6755086987114092e-07 0.0000000000000000e+00  3.5293921462934769e-08 -6.9816404818899006e-07 0.0000000000000000e+00  -1.2146715891088716e-07 -8.2879922953195328e-07 0.0000000000000000e+00  9.9976969201824435e-08 -8.6242985208757714e-07 0.0000000000000000e+00  -9.5245345633393832e-08 -8.8661278796409123e-07 0.0000000000000000e+00  6.6680128312791744e-10 -8.8778454141410100e-07 0.0000000000000000e+00  6.7518419900036557e-08 -9.9690572916826507e-07 0.0000000000000000e+00  1.1187847352081111e-08 -8.1037706208464815e-07 0.0000000000000000e+00  7.6642586080352338e-09 -7.8156995655816457e-07 0.0000000000000000e+00  3.6404805396304423e-10 -7.6712361173816086e-07 0.0000000000000000e+00  9.6864978656068721e-09 -7.4464691430070746e-07 0.0000000000000000e+00  4.0335365316542483e-08 -6.5337845664241938e-07 0.0000000000000000e+00  -8.0133636921862721e-08 -6.9738441725152664e-07 0.0000000000000000e+00  -8.9327158540282117e-08 -9.9223462168115056e-07 0.0000000000000000e+00  9.7726495158701317e-08 -9.8802420478001743e-07 0.0000000000000000e+00  5.2060324618716608e-08 -7.2087041901014672e-07 0.0000000000000000e+00  -9.5687371782478632e-08 -8.5102799262347902e-07 0.0000000000000000e+00  -1.0873162190903465e-08 -7.7482423472084601e-07 0.0000000000000000e+00  5.7911371326629951e-08 -9.4232618713045587e-07 0.0000000000000000e+00  1.7474726542719263e-09 -7.8135928588772627e-07 0.0000000000000000e+00  4.4835837926647860e-09 -7.7866899745647552e-07 0.0000000000000000e+00  1.4857823432969420e-11 -7.6598398350515370e-07 0.0000000000000000e+00  -4.1138075091156059e-10 -7.6700627580644167e-07 0.0000000000000000e+00  -1.8828111883565102e-09 -7.7166729821573264e-07 0.0000000000000000e+00  -1.2191979477631275e-08 -8.0153102787798615e-07 0.0000000000000000e+00  -7.2637645157884110e-08 -9.9242902244401303e-07 0.0000000000000000e+00  7.8124665701782833e-09 -8.6006075996242815e-07 0.0000000000000000e+00  9.1616354134626654e-08 -8.5142521390013884e-07 0.0000000000000000e+00  -1.0584624738239282e-07 -8.4289158907751738e-07 0.0000000000000000e+00  1.1980863412598750e-07 -8.2551037226462994e-07 0.0000000000000000e+00  -2.7806032505061065e-08 -6.8325711922892979e-07 0.0000000000000000e+00  -9.2611651429750411e-09 -7.6227225178797709e-07 0.0000000000000000e+00  -6.5112683240036720e-09 -7.7368218182481914e-07 0.0000000000000000e+00  5.3896467241354648e-09 -7.7497752446877322e-07 0.0000000000000000e+00  -4.9381752142574477e-09 -7.7772457358111296e-07 0.0000000000000000e+00  -9.8793284267887511e-09 -8.0867808755911492e-07 0.0000000000000000e+00  4.7782323429109304e-08 -7.3418884922537852e-07 0.0000000000000000e+00  -8.6604339483473500e-08 -7.8292037564329512e-07 0.0000000000000000e+00  1.3280907640438572e-08 -8.9822871189743522e-07 0.0000000000000000e+00  6.1442664632850319e-09 -8.5984745545897644e-07 0.0000000000000000e+00  1.5905523869269998e-08 -8.5181091334653381e-07 0.0000000000000000e+00  7.2885085647884197e-08 -7.0636946762675527e-07 0.0000000000000000e+00  -6.8028056381129724e-08 -7.0170505189081608e-07 0.0000000000000000e+00  -1.4353969445086450e-08 -8.2988813420127889e-07 0.0000000000000000e+00  2.7880452631195460e-08 -8.1031427596981239e-07 0.0000000000000000e+00  2.0939294380831103e-09 -7.7435699886328478e-07 0.0000000000000000e+00  3.8334703412470648e-10 -7.6856596624285846e-07 0.0000000000000000e+00  -5.3155145686587224e-09 -7.9187659270129436e-07 0.0000000000000000e+00  5.3879530457415519e-08 -7.0269551651492880e-07 0.0000000000000000e+00  -3.3125265618649633e-08 -6.7243703096492255e-07 0.0000000000000000e+00  -1.6296482392991634e-08 -7.6091310083019930e-07 0.0000000000000000e+00  -4.3421173523311905e-08 -8.2096925774501760e-07 0.0000000000000000e+00  -5.9875767221620375e-09 -8.9391132423400622e-07 0.0000000000000000e+00  8.6105863208871862e-08 -7.5887368937492336e-07 0.0000000000000000e+00  -6.2132129060921185e-08 -7.2722743048563033e-07 0.0000000000000000e+00  -4.5111491812324575e-09 -8.4097828145366509e-07 0.0000000000000000e+00  4.1765235465288230e-08 -7.9775203646475499e-07 0.0000000000000000e+00  -1.8763134819509224e-08 -7.6632724635719477e-07 0.0000000000000000e+00  -2.5094744975450684e-08 -8.0465966217126614e-07 0.0000000000000000e+00  3.2404247493272972e-09 -8.6082001659290555e-07 0.0000000000000000e+00  7.5303516957821987e-08 -7.2350919642731197e-07 0.0000000000000000e+00  -7.2899168689693901e-08 -7.1978415276527741e-07 0.0000000000000000e+00  -7.9197091369590707e-09 -8.5172870894922280e-07 0.0000000000000000e+00  3.3565926822140655e-08 -8.1635732000129861e-07 0.0000000000000000e+00  1.6252200184179257e-08 -7.5084133213419890e-07 0.0000000000000000e+00  -1.2180369571237229e-08 -7.4486519320740915e-07 0.0000000000000000e+00  -6.7037261380684255e-09 -7.8173087716346609e-07 0.0000000000000000e+00  5.2487460553418783e-08 -6.9969331615343986e-07 0.0000000000000000e+00  -6.5629387568322142e-08 -7.1136325814067248e-07 0.0000000000000000e+00  -1.8477916235031157e-08 -8.4310272567159534e-07 0.0000000000000000e+00  2.8646989503875460e-08 -8.2056879389660980e-07 0.0000000000000000e+00  3.5401879531574213e-09 -7.8190584378550776e-07 0.0000000000000000e+00  -6.5219775818557899e-09 -7.9556238120697014e-07 0.0000000000000000e+00  -6.0013868738852356e-08 -9.4887112962736090e-07 0.0000000000000000e+00  8.9171594674890217e-07 8.8071029603855235e-08 0.0000000000000000e+00  8.8667534465696081e-07 -1.2445180453543241e-07 0.0000000000000000e+00  9.1850084253076234e-07 1.1019758303403467e-07 0.0000000000000000e+00  7.5873497869136679e-07 -2.5260583502564500e-08 0.0000000000000000e+00  8.0421379609560856e-07 1.6603790898809438e-08 0.0000000000000000e+00  7.8290005955323645e-07 2.8400743994274866e-10 0.0000000000000000e+00  7.8282805362936227e-07 -4.5518889298793248e-10 0.0000000000000000e+00  7.8310402709768562e-07 5.3198956146905792e-10 0.0000000000000000e+00  7.8781060310844470e-07 -6.6638796886165280e-09 0.0000000000000000e+00  7.9693120764483863e-07 3.5500738937462341e-09 0.0000000000000000e+00  8.0065384374603293e-07 -7.0413878394501405e-09 0.0000000000000000e+00  7.9940425496885598e-07 1.1634312586991427e-08 0.0000000000000000e+00  7.9264545527896381e-07 -1.3135644805400588e-08 0.0000000000000000e+00  7.9329811523961666e-07 8.8311367621321335e-09 0.0000000000000000e+00  8.0866978977755928e-07 -1.4526341280507904e-08 0.0000000000000000e+00  7.9742582807135731e-07 2.2622198158987402e-08 0.0000000000000000e+00  7.8120811345392075e-07 -3.7892938037773428e-09 0.0000000000000000e+00  7.9114066610790772e-07 -1.1545410178231819e-08 0.0000000000000000e+00  7.8085907946985967e-07 1.5948416723061951e-08 0.0000000000000000e+00  7.8746332702198456e-07 -1.8451170458276395e-08 0.0000000000000000e+00  8.0774940319532757e-07 5.7442133316453016e-09 0.0000000000000000e+00  7.8306817992411977e-07 1.3002746482831364e-08 0.0000000000000000e+00  8.1761936844878216e-07 -3.2395407166830035e-08 0.0000000000000000e+00  8.5238552443703310e-07 -8.6232978240426492e-09 0.0000000000000000e+00  8.5087578158297943e-07 8.5594795657850617e-09 0.0000000000000000e+00  8.1144970106238837e-07 2.1077246865705514e-08 0.0000000000000000e+00  7.7982933532842108e-07 1.0392263269288853e-08 0.0000000000000000e+00  7.6723483476312902e-07 5.4247246366525041e-11 0.0000000000000000e+00  7.6708192352722634e-07 6.5634437492534982e-11 0.0000000000000000e+00  7.6693025633147383e-07 6.1820557703644579e-11 0.0000000000000000e+00  7.6682382965009244e-07 5.5646600146609968e-11 0.0000000000000000e+00  7.6668734717883910e-07 6.7164884221302666e-11 0.0000000000000000e+00  7.7798406632266493e-07 -1.1710637647464863e-08 0.0000000000000000e+00  7.9302687698257754e-07 1.1930444587342543e-09 0.0000000000000000e+00  7.8068696398498288e-07 1.0823529341750666e-08 0.0000000000000000e+00  8.1500391630791061e-07 -3.1136978443073401e-08 0.0000000000000000e+00  8.4924025113215012e-07 -1.0227274882129192e-08 0.0000000000000000e+00  8.7916424005431585e-07 -6.4392508753870336e-09 0.0000000000000000e+00  8.7809098059551202e-07 1.7598937182244969e-08 0.0000000000000000e+00  7.5759657441810766e-07 2.1399035614690870e-10 0.0000000000000000e+00  8.4841631987130384e-07 3.3900966963508728e-08 0.0000000000000000e+00  7.6870314506876988e-07 -1.2970348649623907e-09 0.0000000000000000e+00  7.6514267441350835e-07 1.3562385343871229e-09 0.0000000000000000e+00  7.6527698267404218e-07 4.3117437207884436e-11 0.0000000000000000e+00  8.2271605343494070e-07 -3.0352706882586493e-08 0.0000000000000000e+00  8.3312217117625302e-07 -9.3260534830451755e-09 0.0000000000000000e+00  8.5642753143415446e-07 -1.7307119674622798e-09 0.0000000000000000e+00  8.4708512677106897e-07 6.9273007048296376e-09 0.0000000000000000e+00  8.4324642394217717e-07 6.6088419413472159e-09 0.0000000000000000e+00  8.4187378569495414e-07 -1.4650734340244775e-08 0.0000000000000000e+00  8.7358804075737251e-07 -2.0368614854512372e-09 0.0000000000000000e+00  8.8308686173279970e-07 -1.6521390060799447e-09 0.0000000000000000e+00  8.6195695177801583e-07 6.6279656641779928e-10 0.0000000000000000e+00  8.7658029753876483e-07 6.5648269656448340e-10 0.0000000000000000e+00  8.8288373080456854e-07 -1.2243787458418978e-09 0.0000000000000000e+00  8.6169033025236014e-07 6.4598989921510458e-10 0.0000000000000000e+00  8.7315251591181421e-07 1.6715080469012254e-09 0.0000000000000000e+00  8.6709993272216260e-07 2.9708571676653193e-09 0.0000000000000000e+00  8.2252416995945451e-07 2.4967206415055535e-08 0.0000000000000000e+00  7.9881097379908090e-07 2.8830339255842159e-10 0.0000000000000000e+00  7.9487147805190045e-07 9.1401825773595337e-09 0.0000000000000000e+00  7.9120309343484336e-07 -1.1595822151779049e-08 0.0000000000000000e+00  7.9692002423227819e-07 1.4098753131166682e-10 0.0000000000000000e+00  8.0944950739226810e-07 3.4915192696021081e-10 0.0000000000000000e+00  8.2802461207682787e-07 -2.3586032708225020e-08 0.0000000000000000e+00  8.7073231152455277e-07 -3.4649163485871959e-09 0.0000000000000000e+00  8.8434794381588067e-07 -2.4420638322344146e-09 0.0000000000000000e+00  8.6446472260621690e-07 3.3771699570590549e-10 0.0000000000000000e+00  8.7560914576184511e-07 3.7881400961949764e-09 0.0000000000000000e+00  8.4908534354824243e-07 1.2699255856500551e-08 0.0000000000000000e+00  7.9794711376893262e-07 2.3015600889589554e-08 0.0000000000000000e+00  7.7112080777161843e-07 4.4389736725729979e-09 0.0000000000000000e+00  7.6735735424078536e-07 -5.1509999739777624e-11 0.0000000000000000e+00  7.6745035128902846e-07 -3.4118718994219479e-11 0.0000000000000000e+00  7.7009389849083456e-07 -1.0978143015619284e-09 0.0000000000000000e+00  7.7701236271922996e-07 -4.4405842886245242e-09 0.0000000000000000e+00  7.9750850295189596e-07 -1.0145137082022869e-08 0.0000000000000000e+00  8.2952446527427443e-07 -2.3364355466024545e-08 0.0000000000000000e+00  8.6929788070055111e-07 -7.0622018857574955e-10 0.0000000000000000e+00  8.4837223159858724e-07 1.1743048008121421e-08 0.0000000000000000e+00  8.1946862072797594e-07 1.5213243416720622e-08 0.0000000000000000e+00  8.1208775226907734e-07 -7.7451953545040277e-09 0.0000000000000000e+00  8.3048674528824724e-07 -1.8860978052507518e-08 0.0000000000000000e+00  8.6514742362037843e-07 4.7066031118366779e-10 0.0000000000000000e+00  8.4902960175608327e-07 1.0994737243439915e-08 0.0000000000000000e+00  8.2026612181097829e-07 9.0309700157926053e-09 0.0000000000000000e+00  7.8874123506579968e-07 1.8651589211201755e-08 0.0000000000000000e+00  7.7859848841246425e-07 -7.8062077990070993e-09 0.0000000000000000e+00  7.7736617151652023e-07 7.7117397603299825e-09 0.0000000000000000e+00  7.6909530421199158e-07 -3.2743596196824075e-11 0.0000000000000000e+00  7.6916942092450630e-07 -3.1731206120134221e-11 0.0000000000000000e+00  7.8224191256077615e-07 -1.1193987460334342e-08 0.0000000000000000e+00  7.8229772204482499e-07 1.1133165632428323e-08 0.0000000000000000e+00  7.7212999119736613e-07 -2.3249142472564562e-09 0.0000000000000000e+00  8.0250902135354250e-07 -1.1872711358731900e-08 0.0000000000000000e+00  8.1633404171548974e-07 -6.8075370181693912e-09 0.0000000000000000e+00  8.2467433161679454e-07 -1.7036568235849273e-08 0.0000000000000000e+00  8.4745734078406153e-07 -3.5670180062338520e-09 0.0000000000000000e+00  1.0398926913641194e-06 -6.0032711141888318e-08 0.0000000000000000e+00  -1.0892043611088979e-07 9.7344513180000969e-07 0.0000000000000000e+00  5.7237650036766842e-08 8.3118042210479757e-07 0.0000000000000000e+00  1.2504988656128742e-09 9.4817440882312015e-07 0.0000000000000000e+00  3.4733549319344924e-08 1.0647962347999062e-06 0.0000000000000000e+00  -1.8372174458506792e-08 9.0421626687244361e-07 0.0000000000000000e+00  -8.8348102298496016e-08 8.9797501005715239e-07 0.0000000000000000e+00  1.3358846191220144e-07 9.2452815248234106e-07 0.0000000000000000e+00  -1.4553474762891251e-07 9.2956739809926873e-07 0.0000000000000000e+00  1.2182203324851526e-08 7.1124596969841091e-07 0.0000000000000000e+00  7.9683575651174135e-09 7.6734315612099601e-07 0.0000000000000000e+00  -1.1988187828957454e-08 7.8396109811675327e-07 0.0000000000000000e+00  -1.1393652737612448e-08 7.5836424642733047e-07 0.0000000000000000e+00  -3.3594458117333542e-08 6.6807421186850370e-07 0.0000000000000000e+00  5.6965835562909449e-08 7.0287624190319534e-07 0.0000000000000000e+00  1.3005992428281406e-09 7.9995233879511308e-07 0.0000000000000000e+00  -1.5744330593974646e-09 7.9046426435560292e-07 0.0000000000000000e+00  -1.2105639892787632e-09 7.8487878227003029e-07 0.0000000000000000e+00  2.4087299377620624e-09 7.8860588994489790e-07 0.0000000000000000e+00  -1.0281653376072329e-09 7.9949388361707290e-07 0.0000000000000000e+00  -5.6233714670731027e-08 7.0524158980702803e-07 0.0000000000000000e+00  4.2610817711473670e-08 6.8765089055570035e-07 0.0000000000000000e+00  -3.5433896076845203e-09 7.5950932445484043e-07 0.0000000000000000e+00  9.4442266937672995e-09 7.6572964198793305e-07 0.0000000000000000e+00  -8.7494025340866427e-09 7.6293021628213784e-07 0.0000000000000000e+00  -2.7560410989170391e-08 6.8504192014017276e-07 0.0000000000000000e+00  1.1991718227866767e-07 8.2745475276071721e-07 0.0000000000000000e+00  -1.0489346967152732e-07 8.4990732606330598e-07 0.0000000000000000e+00  7.4044894915912513e-08 7.8343487927428905e-07 0.0000000000000000e+00  4.5845745454627756e-09 9.4227515053293738e-07 0.0000000000000000e+00  3.5477009087413853e-08 1.0631769968453082e-06 0.0000000000000000e+00  -2.3029550396268930e-08 9.0464470948167827e-07 0.0000000000000000e+00  -9.2241466468113508e-08 8.7686568047369602e-07 0.0000000000000000e+00  9.6200974875102045e-08 8.6069184407454655e-07 0.0000000000000000e+00  -1.2859031386874022e-07 8.1349447498818177e-07 0.0000000000000000e+00  4.2328526708414770e-08 6.7724476243060975e-07 0.0000000000000000e+00  -1.0246440692191598e-08 7.5058933258169195e-07 0.0000000000000000e+00  1.3739773715366533e-08 7.6072910837172454e-07 0.0000000000000000e+00  -3.4164257675819074e-09 7.7224072808349969e-07 0.0000000000000000e+00  -2.6597367595118325e-11 7.6635590529290506e-07 0.0000000000000000e+00  -2.9391439995865589e-11 7.6629052145626107e-07 0.0000000000000000e+00  -5.1089757108928207e-08 7.3547237358029532e-07 0.0000000000000000e+00  4.4588116807976098e-08 6.9086167399429091e-07 0.0000000000000000e+00  -1.3710980096262955e-09 7.7340110300490269e-07 0.0000000000000000e+00  2.8414848406102202e-08 7.9550110898417874e-07 0.0000000000000000e+00  -9.8006269769718672e-09 8.3923679585136807e-07 0.0000000000000000e+00  -7.0868824353297675e-08 7.0163255315435832e-07 0.0000000000000000e+00  6.8380428021154646e-08 6.9870956823503318e-07 0.0000000000000000e+00  2.5252348657931980e-08 8.4380081264052034e-07 0.0000000000000000e+00  8.8709555802694722e-10 8.6786391782910079e-07 0.0000000000000000e+00  5.5182030523238775e-09 8.8670770964181701e-07 0.0000000000000000e+00  -8.5762722119926653e-08 7.5311765434821654e-07 0.0000000000000000e+00  6.3425819344296824e-08 7.2365682594669435e-07 0.0000000000000000e+00  2.2411716557651742e-08 8.6315829912972593e-07 0.0000000000000000e+00  6.7178058396300663e-09 8.9692816212269624e-07 0.0000000000000000e+00  -1.1922585818057668e-08 8.9002104975738422e-07 0.0000000000000000e+00  -5.8480773776569153e-08 7.3991935760737378e-07 0.0000000000000000e+00  1.1924448665182327e-07 8.5317966964691346e-07 0.0000000000000000e+00  -1.0439823561184568e-07 8.7835077683784950e-07 0.0000000000000000e+00  8.6423980278715596e-08 8.6398647852246335e-07 0.0000000000000000e+00  -1.2900911837400924e-07 8.0143803222859330e-07 0.0000000000000000e+00  4.4103505213523917e-08 6.5987606303201056e-07 0.0000000000000000e+00  5.1463985336327417e-09 7.7233392581506013e-07 0.0000000000000000e+00  8.9558773960369991e-10 7.7935920214211733e-07 0.0000000000000000e+00  -5.9326134203327448e-09 7.7349004335528678e-07 0.0000000000000000e+00  8.9942208876162396e-10 7.6720003629358094e-07 0.0000000000000000e+00  -8.4433915229098149e-10 7.6821800190436848e-07 0.0000000000000000e+00  5.5980363331752414e-09 7.7322446467586970e-07 0.0000000000000000e+00  2.5441269768409224e-08 8.1010912882763098e-07 0.0000000000000000e+00  -9.1868502121058379e-09 8.4059947941431956e-07 0.0000000000000000e+00  -7.0445869221186397e-08 7.1408013937762669e-07 0.0000000000000000e+00  5.3618884330973626e-08 7.1692715661075100e-07 0.0000000000000000e+00  4.1482499520443814e-11 7.6735860324401328e-07 0.0000000000000000e+00  3.0666994975245834e-08 7.9562161812423974e-07 0.0000000000000000e+00  -1.5788400172283514e-09 8.4945651836789013e-07 0.0000000000000000e+00  -1.9471073681231995e-08 8.1491939331127409e-07 0.0000000000000000e+00  -1.0122481309786935e-08 7.7954707058310190e-07 0.0000000000000000e+00  -4.0451945273720321e-08 7.0785190493304750e-07 0.0000000000000000e+00  1.0963130645912916e-07 8.0878305043533927e-07 0.0000