<?xml version="1.0"?>
<VTKFile type="UnstructuredGrid"  version="0.1"  >
<UnstructuredGrid>
<Piece  NumberOfPoints="11902" NumberOfCells="23402">
<Points>
<DataArray  type="Float64"  NumberOfComponents="3"  format="ascii">-5 -5 0  5 -5 0  5 5 0  -5 5 0  1.06946381779721 0.0004582497145295671 0  -4.9 -5 0  -4.8 -5 0  -4.7 -5 0  -4.6 -5 0  -4.5 -5 0  -4.4 -5 0  -4.3 -5 0  -4.2 -5 0  -4.1 -5 0  -4 -5 0  -3.9 -5 0  -3.8 -5 0  -3.7 -5 0  -3.6 -5 0  -3.5 -5 0  -3.4 -5 0  -3.3 -5 0  -3.2 -5 0  -3.1 -5 0  -3 -5 0  -2.9 -5 0  -2.8 -5 0  -2.7 -5 0  -2.6 -5 0  -2.5 -5 0  -2.4 -5 0  -2.3 -5 0  -2.2 -5 0  -2.1 -5 0  -2 -5 0  -1.9 -5 0  -1.8 -5 0  -1.7 -5 0  -1.6 -5 0  -1.5 -5 0  -1.4 -5 0  -1.3 -5 0  -1.2 -5 0  -1.1 -5 0  -1 -5 0  -0.9000000000000004 -5 0  -0.7999999999999998 -5 0  -0.7000000000000002 -5 0  -0.5999999999999996 -5 0  -0.5 -5 0  -0.4000000000000004 -5 0  -0.2999999999999998 -5 0  -0.2000000000000002 -5 0  -0.09999999999999964 -5 0  0 -5 0  0.09999999999999964 -5 0  0.2000000000000002 -5 0  0.2999999999999998 -5 0  0.4000000000000004 -5 0  0.5 -5 0  0.5999999999999996 -5 0  0.7000000000000002 -5 0  0.7999999999999998 -5 0  0.9000000000000004 -5 0  1 -5 0  1.1 -5 0  1.2 -5 0  1.3 -5 0  1.4 -5 0  1.5 -5 0  1.6 -5 0  1.7 -5 0  1.8 -5 0  1.9 -5 0  2 -5 0  2.1 -5 0  2.2 -5 0  2.3 -5 0  2.4 -5 0  2.5 -5 0  2.6 -5 0  2.7 -5 0  2.8 -5 0  2.9 -5 0  3 -5 0  3.1 -5 0  3.199999999999999 -5 0  3.300000000000001 -5 0  3.4 -5 0  3.5 -5 0  3.6 -5 0  3.699999999999999 -5 0  3.800000000000001 -5 0  3.9 -5 0  4 -5 0  4.1 -5 0  4.199999999999999 -5 0  4.300000000000001 -5 0  4.4 -5 0  4.5 -5 0  4.6 -5 0  4.699999999999999 -5 0  4.800000000000001 -5 0  4.9 -5 0  5 -4.9 0  5 -4.8 0  5 -4.7 0  5 -4.6 0  5 -4.5 0  5 -4.4 0  5 -4.3 0  5 -4.2 0  5 -4.1 0  5 -4 0  5 -3.9 0  5 -3.8 0  5 -3.7 0  5 -3.6 0  5 -3.5 0  5 -3.4 0  5 -3.3 0  5 -3.2 0  5 -3.1 0  5 -3 0  5 -2.9 0  5 -2.8 0  5 -2.7 0  5 -2.6 0  5 -2.5 0  5 -2.4 0  5 -2.3 0  5 -2.2 0  5 -2.1 0  5 -2 0  5 -1.9 0  5 -1.8 0  5 -1.7 0  5 -1.6 0  5 -1.5 0  5 -1.4 0  5 -1.3 0  5 -1.2 0  5 -1.1 0  5 -1 0  5 -0.9000000000000004 0  5 -0.7999999999999998 0  5 -0.7000000000000002 0  5 -0.5999999999999996 0  5 -0.5 0  5 -0.4000000000000004 0  5 -0.2999999999999998 0  5 -0.2000000000000002 0  5 -0.09999999999999964 0  5 0 0  5 0.09999999999999964 0  5 0.2000000000000002 0  5 0.2999999999999998 0  5 0.4000000000000004 0  5 0.5 0  5 0.5999999999999996 0  5 0.7000000000000002 0  5 0.7999999999999998 0  5 0.9000000000000004 0  5 1 0  5 1.1 0  5 1.2 0  5 1.3 0  5 1.4 0  5 1.5 0  5 1.6 0  5 1.7 0  5 1.8 0  5 1.9 0  5 2 0  5 2.1 0  5 2.2 0  5 2.3 0  5 2.4 0  5 2.5 0  5 2.6 0  5 2.7 0  5 2.8 0  5 2.9 0  5 3 0  5 3.1 0  5 3.199999999999999 0  5 3.300000000000001 0  5 3.4 0  5 3.5 0  5 3.6 0  5 3.699999999999999 0  5 3.800000000000001 0  5 3.9 0  5 4 0  5 4.1 0  5 4.199999999999999 0  5 4.300000000000001 0  5 4.4 0  5 4.5 0  5 4.6 0  5 4.699999999999999 0  5 4.800000000000001 0  5 4.9 0  4.9 5 0  4.8 5 0  4.7 5 0  4.6 5 0  4.5 5 0  4.4 5 0  4.3 5 0  4.2 5 0  4.1 5 0  4 5 0  3.9 5 0  3.8 5 0  3.7 5 0  3.6 5 0  3.5 5 0  3.4 5 0  3.3 5 0  3.2 5 0  3.1 5 0  3 5 0  2.9 5 0  2.8 5 0  2.7 5 0  2.6 5 0  2.5 5 0  2.4 5 0  2.3 5 0  2.2 5 0  2.1 5 0  2 5 0  1.9 5 0  1.8 5 0  1.7 5 0  1.6 5 0  1.5 5 0  1.4 5 0  1.3 5 0  1.2 5 0  1.1 5 0  1 5 0  0.9000000000000004 5 0  0.7999999999999998 5 0  0.7000000000000002 5 0  0.5999999999999996 5 0  0.5 5 0  0.4000000000000004 5 0  0.2999999999999998 5 0  0.2000000000000002 5 0  0.09999999999999964 5 0  0 5 0  -0.09999999999999964 5 0  -0.2000000000000002 5 0  -0.2999999999999998 5 0  -0.4000000000000004 5 0  -0.5 5 0  -0.5999999999999996 5 0  -0.7000000000000002 5 0  -0.7999999999999998 5 0  -0.9000000000000004 5 0  -1 5 0  -1.1 5 0  -1.2 5 0  -1.3 5 0  -1.4 5 0  -1.5 5 0  -1.6 5 0  -1.7 5 0  -1.8 5 0  -1.9 5 0  -2 5 0  -2.1 5 0  -2.2 5 0  -2.3 5 0  -2.4 5 0  -2.5 5 0  -2.6 5 0  -2.7 5 0  -2.8 5 0  -2.9 5 0  -3 5 0  -3.1 5 0  -3.199999999999999 5 0  -3.300000000000001 5 0  -3.4 5 0  -3.5 5 0  -3.6 5 0  -3.699999999999999 5 0  -3.800000000000001 5 0  -3.9 5 0  -4 5 0  -4.1 5 0  -4.199999999999999 5 0  -4.300000000000001 5 0  -4.4 5 0  -4.5 5 0  -4.6 5 0  -4.699999999999999 5 0  -4.800000000000001 5 0  -4.9 5 0  -5 4.9 0  -5 4.8 0  -5 4.7 0  -5 4.6 0  -5 4.5 0  -5 4.4 0  -5 4.3 0  -5 4.2 0  -5 4.1 0  -5 4 0  -5 3.9 0  -5 3.8 0  -5 3.7 0  -5 3.6 0  -5 3.5 0  -5 3.4 0  -5 3.3 0  -5 3.2 0  -5 3.1 0  -5 3 0  -5 2.9 0  -5 2.8 0  -5 2.7 0  -5 2.6 0  -5 2.5 0  -5 2.4 0  -5 2.3 0  -5 2.2 0  -5 2.1 0  -5 2 0  -5 1.9 0  -5 1.8 0  -5 1.7 0  -5 1.6 0  -5 1.5 0  -5 1.4 0  -5 1.3 0  -5 1.2 0  -5 1.1 0  -5 1 0  -5 0.9000000000000004 0  -5 0.7999999999999998 0  -5 0.7000000000000002 0  -5 0.5999999999999996 0  -5 0.5 0  -5 0.4000000000000004 0  -5 0.2999999999999998 0  -5 0.2000000000000002 0  -5 0.09999999999999964 0  -5 0 0  -5 -0.09999999999999964 0  -5 -0.2000000000000002 0  -5 -0.2999999999999998 0  -5 -0.4000000000000004 0  -5 -0.5 0  -5 -0.5999999999999996 0  -5 -0.7000000000000002 0  -5 -0.7999999999999998 0  -5 -0.9000000000000004 0  -5 -1 0  -5 -1.1 0  -5 -1.2 0  -5 -1.3 0  -5 -1.4 0  -5 -1.5 0  -5 -1.6 0  -5 -1.7 0  -5 -1.8 0  -5 -1.9 0  -5 -2 0  -5 -2.1 0  -5 -2.2 0  -5 -2.3 0  -5 -2.4 0  -5 -2.5 0  -5 -2.6 0  -5 -2.7 0  -5 -2.8 0  -5 -2.9 0  -5 -3 0  -5 -3.1 0  -5 -3.199999999999999 0  -5 -3.300000000000001 0  -5 -3.4 0  -5 -3.5 0  -5 -3.6 0  -5 -3.699999999999999 0  -5 -3.800000000000001 0  -5 -3.9 0  -5 -4 0  -5 -4.1 0  -5 -4.199999999999999 0  -5 -4.300000000000001 0  -5 -4.4 0  -5 -4.5 0  -5 -4.6 0  -5 -4.699999999999999 0  -5 -4.800000000000001 0  -5 -4.9 0  1.06423837004427 0.1003226294705178 0  1.048229624439437 0.199579692403655 0  1.021342926903657 0.2970792327353065 0  0.9851469754879497 0.3908989377696467 0  0.9389915606239224 0.4816220788221134 0  0.8837835217542932 0.5672930164638094 0  0.8194209407644617 0.6470874738740426 0  0.7464568747521286 0.7203392913506308 0  0.6666181839971209 0.7866962647565776 0  0.5801709250033031 0.8454321781657334 0  0.4876711518506003 0.8954160964733922 0  0.3902197282570342 0.9366195982055798 0  0.2896676357120288 0.9688073547946431 0  0.18567753632967 0.9908768473109354 0  0.08031757379623453 1.003487168689406 0  -0.02609464237651371 1.006032544715522 0  -0.1322590936965813 0.9982955188472832 0  -0.2371637770340951 0.9811890021460092 0  -0.3396713965864036 0.9542086221706659 0  -0.4387133570740496 0.9174913000211624 0  -0.5332851482848027 0.8719991966112505 0  -0.6226942849608893 0.8175734078004062 0  -0.7059327374898031 0.7551647683066935 0  -0.7821966977672827 0.6853768309708581 0  -0.8508186897917596 0.6081907677267501 0  -0.9107238318212055 0.5251317774967638 0  -0.9620186304580096 0.4371788105552077 0  -1.003374521024575 0.3445463669819684 0  -1.034624652362214 0.2487512468846947 0  -1.055823826324225 0.1505186735437173 0  -1.066564399257403 0.05054349891354851 0  -1.066581695593891 -0.04997859276139443 0  -1.055861554401502 -0.1498667134069623 0  -1.035458024691666 -0.2480628655890594 0  -1.003366809464999 -0.3441662309360964 0  -0.9621568360625291 -0.4364693158159752 0  -0.9110082294155529 -0.5245527516613122 0  -0.8511524778555885 -0.6074330776533509 0  -0.782496851838773 -0.6842405306082738 0  -0.7059500201084963 -0.7539213263839695 0  -0.6224023684556804 -0.8159776291567165 0  -0.5335010641504453 -0.8707064092041811 0  -0.4380843337165829 -0.9161965848808152 0  -0.3389849094370014 -0.9531549250338265 0  -0.2363195472269645 -0.9803029198256293 0  -0.1315764424727163 -0.9976674620998773 0  -0.02562629086281669 -1.005767004869712 0  0.0804946005834011 -1.002982814829567 0  0.1862841309220115 -0.9901710056266958 0  0.2899060113361044 -0.9680278167803532 0  0.3912436711597176 -0.9358840856347134 0  0.4880103804387451 -0.894743528416973 0  0.5804360458209358 -0.8448124653325674 0  0.6667985987751489 -0.7868582475722123 0  0.7466102386439664 -0.7205127233270624 0  0.819214235466093 -0.6468025246016031 0  0.8833937791829068 -0.5667768743900266 0  0.9391676812185071 -0.4812930316839886 0  0.9858556127071468 -0.390929190563194 0  1.021937711258266 -0.2968099817386584 0  1.048274552247276 -0.1992910158652465 0  1.064275072373155 -0.1001919735056949 0  -2.449481370718785 4.919815180866778 0  -2.449437172846579 -4.912347290413358 0  4.912315246628367 2.4492288565529 0  4.920266405623269 -2.450569460074303 0  2.447330643461755 -4.897902819678334 0  2.441726317428189 4.901594596452245 0  -4.912326565315547 -2.449240587317828 0  -4.912328624066529 2.449244228169844 0  -1.74946495134447 4.913448702892032 0  -1.745210224978525 -4.916791992278839 0  4.922988942825336 1.745275906819477 0  4.911856352409683 -1.749213593248772 0  -4.912120372332239 -1.748927195853994 0  -4.912923723748105 1.748657619927024 0  1.746796442525641 4.907486930892143 0  1.748330591082476 -4.895951680612914 0  -1.14958124079353 4.911742836003957 0  -1.130362588135386 -4.919406999505551 0  -4.912508287563135 -1.149013742816179 0  -4.912337681788746 1.148812509994191 0  1.144527325743853 -4.915716286681335 0  1.149582117766692 4.911738235165662 0  4.912676155685629 1.147297654175333 0  4.923101319620677 -1.152953427151522 0  -0.5470539034830064 -4.913182207142497 0  -0.5467989925531126 4.921571120134388 0  -4.911779418397767 -0.5493118911239045 0  -4.911805565581007 0.5478627968700185 0  4.911163435578759 -0.5496418603488361 0  4.922331214115508 0.5463166724486308 0  0.5428725914662726 -4.900529192753567 0  0.5515339537213503 4.918508088996158 0  -4.913144832510152 -3.049370504744094 0  4.919632631773353 3.047317577538842 0  4.91266690858428 -3.049363826197802 0  -4.913986807992429 3.046453444167344 0  3.056109406674809 -4.918617103966243 0  -3.049500649137944 -4.912637611144266 0  3.053049703246163 4.914693405133053 0  -3.048941286745457 4.913517346293948 0  -4.911089079168536 -0.04996799814616398 0  0.04514348077994364 -4.915155911090941 0  0.04959401466486919 4.921937881883517 0  4.917872318501121 -0.05134628185851108 0  3.54626050771494 -4.919891591957746 0  -3.54959
[...]
<PointData  Vectors="f_696"> 
<DataArray  type="Float64"  Name="f_696"  NumberOfComponents="3" format="ascii">-4.5521322636141060e-07 -4.5522119039328237e-07 0.0000000000000000e+00  4.5521220353339328e-07 -4.5522047553337818e-07 0.0000000000000000e+00  5.0316624262096223e-07 5.0317203601748710e-07 0.0000000000000000e+00  -4.5521298330116937e-07 4.5522083607905812e-07 0.0000000000000000e+00  -8.3135857293172499e-01 -1.7567143628120171e-02 0.0000000000000000e+00  9.1084062324782247e-08 -9.0639585484025987e-07 0.0000000000000000e+00  -1.0671327215695551e-07 -8.6083655761589388e-07 0.0000000000000000e+00  1.0468911285160436e-07 -8.7405755130169587e-07 0.0000000000000000e+00  -9.1527681733769056e-08 -8.8220617727923506e-07 0.0000000000000000e+00  -2.1366551387927452e-08 -9.0660823844837388e-07 0.0000000000000000e+00  3.5772059160868616e-08 -1.0641639898826029e-06 0.0000000000000000e+00  5.9372679118230776e-09 -9.3936396730006238e-07 0.0000000000000000e+00  7.3365190164917417e-08 -7.8164104091229373e-07 0.0000000000000000e+00  -1.0518558070648018e-07 -8.4854047464786816e-07 0.0000000000000000e+00  1.2018394203396514e-07 -8.2854454441848721e-07 0.0000000000000000e+00  -2.6743303355045775e-08 -6.8363838250547931e-07 0.0000000000000000e+00  -5.5026585427109465e-09 -7.5619189081284688e-07 0.0000000000000000e+00  -1.3134536496536275e-08 -7.7101490726319546e-07 0.0000000000000000e+00  1.0236301457980861e-08 -7.8016673401132694e-07 0.0000000000000000e+00  1.6157468629750184e-10 -7.6477703147482028e-07 0.0000000000000000e+00  1.6749615360519319e-10 -7.6440446901325908e-07 0.0000000000000000e+00  5.0392458911251371e-08 -7.3018572062428265e-07 0.0000000000000000e+00  -4.4706777854799223e-08 -6.9228264562643874e-07 0.0000000000000000e+00  1.7597462689750103e-10 -7.6324182943009915e-07 0.0000000000000000e+00  3.9768622852661503e-08 -6.6555916445619492e-07 0.0000000000000000e+00  -1.2862948758674766e-07 -8.1355250121950191e-07 0.0000000000000000e+00  9.7197893462563664e-08 -8.5534048597448546e-07 0.0000000000000000e+00  -9.4434530257557309e-08 -8.5641939265382834e-07 0.0000000000000000e+00  1.2492576264763480e-07 -8.0530912994348069e-07 0.0000000000000000e+00  -3.8054908308258546e-08 -6.5284795529724241e-07 0.0000000000000000e+00  1.8401100976203856e-10 -7.6034637931556048e-07 0.0000000000000000e+00  3.5439360802988147e-08 -6.9149140499176495e-07 0.0000000000000000e+00  -1.2133507162442990e-07 -8.1972028097099574e-07 0.0000000000000000e+00  1.0011969271866444e-07 -8.5373977569056992e-07 0.0000000000000000e+00  -9.5103611558525658e-08 -8.7634192581071008e-07 0.0000000000000000e+00  8.4461009238254179e-10 -8.7761439091041470e-07 0.0000000000000000e+00  6.7669502206367524e-08 -9.8536482116541632e-07 0.0000000000000000e+00  1.1323676880233957e-08 -8.0048774336189007e-07 0.0000000000000000e+00  7.7958665088981783e-09 -7.7171904138779529e-07 0.0000000000000000e+00  4.9034702559703244e-10 -7.5713960034518942e-07 0.0000000000000000e+00  9.8095266265341056e-09 -7.3473166832363872e-07 0.0000000000000000e+00  4.0461577595572883e-08 -6.4459815988672526e-07 0.0000000000000000e+00  -8.0053647641762798e-08 -6.8730149330119939e-07 0.0000000000000000e+00  -8.9249073082626907e-08 -9.7764549633832808e-07 0.0000000000000000e+00  9.7837920906837609e-08 -9.7385119757710833e-07 0.0000000000000000e+00  5.2159645966981966e-08 -7.1029638515410496e-07 0.0000000000000000e+00  -9.5629705493113259e-08 -8.3786751526338877e-07 0.0000000000000000e+00  -1.0791101786859544e-08 -7.6293747677485550e-07 0.0000000000000000e+00  5.7990404225168557e-08 -9.2775095558775542e-07 0.0000000000000000e+00  1.7997909147371465e-09 -7.6908878908494943e-07 0.0000000000000000e+00  4.5270821080118988e-09 -7.6633765715473883e-07 0.0000000000000000e+00  4.7005700540390994e-11 -7.5376948211650190e-07 0.0000000000000000e+00  -3.8960984907332054e-10 -7.5471534228975125e-07 0.0000000000000000e+00  -1.8719079322725581e-09 -7.5926298007387699e-07 0.0000000000000000e+00  -1.2194752366158670e-08 -7.8862425804693988e-07 0.0000000000000000e+00  -7.2667621689581038e-08 -9.7643432929446168e-07 0.0000000000000000e+00  7.7834963597868895e-09 -8.4629429781131866e-07 0.0000000000000000e+00  9.1612572768784702e-08 -8.3771864655596058e-07 0.0000000000000000e+00  -1.0591533365953897e-07 -8.2964446660076935e-07 0.0000000000000000e+00  1.1979590333298328e-07 -8.1230110230699737e-07 0.0000000000000000e+00  -2.7874538928004157e-08 -6.7269111707226133e-07 0.0000000000000000e+00  -9.3329368031053432e-09 -7.5056010771758470e-07 0.0000000000000000e+00  -6.5907035162494460e-09 -7.6195407943007838e-07 0.0000000000000000e+00  5.3048213470762957e-09 -7.6337963068571603e-07 0.0000000000000000e+00  -5.0335104671877585e-09 -7.6631771854673846e-07 0.0000000000000000e+00  -9.9830125037766649e-09 -7.9705700680597298e-07 0.0000000000000000e+00  4.7686337846198275e-08 -7.2366549746802746e-07 0.0000000000000000e+00  -8.6734142953632758e-08 -7.7246981070227839e-07 0.0000000000000000e+00  1.3162462104809029e-08 -8.8609304121391344e-07 0.0000000000000000e+00  6.0197905624111127e-09 -8.4856621159301142e-07 0.0000000000000000e+00  1.5778434129777872e-08 -8.4090371609395893e-07 0.0000000000000000e+00  7.2764064372089764e-08 -6.9733012665930810e-07 0.0000000000000000e+00  -6.8169818631498250e-08 -6.9364747226432728e-07 0.0000000000000000e+00  -1.4494773706672040e-08 -8.2037868804799828e-07 0.0000000000000000e+00  2.7739672345224831e-08 -8.0115919844226074e-07 0.0000000000000000e+00  1.9505321519161649e-09 -7.6604878409778285e-07 0.0000000000000000e+00  2.3893998040852539e-10 -7.6064980368985232e-07 0.0000000000000000e+00  -5.4604994706823990e-09 -7.8408165390405063e-07 0.0000000000000000e+00  5.3736268636348819e-08 -6.9578664839136334e-07 0.0000000000000000e+00  -3.3268125389024558e-08 -6.6652103331505407e-07 0.0000000000000000e+00  -1.6439216163009712e-08 -7.5443953145285237e-07 0.0000000000000000e+00  -4.3559842683052037e-08 -8.1445130765771459e-07 0.0000000000000000e+00  -6.1282658261226374e-09 -8.8699289144238126e-07 0.0000000000000000e+00  8.5960551137832745e-08 -7.5288813030389536e-07 0.0000000000000000e+00  -6.2258409299333266e-08 -7.2243428067230393e-07 0.0000000000000000e+00  -4.6455488116867146e-09 -8.3548486774553652e-07 0.0000000000000000e+00  4.1626255975363313e-08 -7.9266061613550358e-07 0.0000000000000000e+00  -1.8890582001487998e-08 -7.6197162463929097e-07 0.0000000000000000e+00  -2.5218162700636974e-08 -8.0040989069626815e-07 0.0000000000000000e+00  3.1147199727712278e-09 -8.5649044622453302e-07 0.0000000000000000e+00  7.5169343931582985e-08 -7.1987155447963603e-07 0.0000000000000000e+00  -7.3002186723601421e-08 -7.1691278216837984e-07 0.0000000000000000e+00  -8.0359727944877987e-09 -8.4839759800348742e-07 0.0000000000000000e+00  3.3443857273419194e-08 -8.1332672764941717e-07 0.0000000000000000e+00  1.6135711206626584e-08 -7.4834530502608387e-07 0.0000000000000000e+00  -1.2288673611388716e-08 -7.4270519374280458e-07 0.0000000000000000e+00  -6.8115185877984015e-09 -7.7971155217119987e-07 0.0000000000000000e+00  5.2368922958900793e-08 -6.9799041217965365e-07 0.0000000000000000e+00  -6.5718227882159889e-08 -7.1005750787311786e-07 0.0000000000000000e+00  -1.8578564018829149e-08 -8.4174634732456133e-07 0.0000000000000000e+00  2.8537034533770944e-08 -8.1944551499184093e-07 0.0000000000000000e+00  3.4366702749649738e-09 -7.8109843076296318e-07 0.0000000000000000e+00  -6.6226999806246932e-09 -7.9499481939637019e-07 0.0000000000000000e+00  -6.0107483442180635e-08 -9.4852122845496853e-07 0.0000000000000000e+00  8.9141354979500222e-07 8.8143473974273117e-08 0.0000000000000000e+00  8.8603843417289991e-07 -1.2434215228497305e-07 0.0000000000000000e+00  9.1778181388408822e-07 1.1025934677567555e-07 0.0000000000000000e+00  7.5778323574903508e-07 -2.5163035682738565e-08 0.0000000000000000e+00  8.0305817006728255e-07 1.6692155348973823e-08 0.0000000000000000e+00  7.8152910646359010e-07 3.7840208031527453e-10 0.0000000000000000e+00  7.8123201361762859e-07 -3.5833181955442281e-10 0.0000000000000000e+00  7.8128052147039064e-07 6.3122579688793147e-10 0.0000000000000000e+00  7.8571968323822091e-07 -6.5599251455931777e-09 0.0000000000000000e+00  7.9460052603783080e-07 3.6548529164993711e-09 0.0000000000000000e+00  7.9802252583769578e-07 -6.9305400983678121e-09 0.0000000000000000e+00  7.9657865717984892e-07 1.1744397008732420e-08 0.0000000000000000e+00  7.8947668212668853e-07 -1.3015158730239761e-08 0.0000000000000000e+00  7.8993195129327046e-07 8.9508212661366380e-09 0.0000000000000000e+00  8.0484295286227834e-07 -1.4396717693966602e-08 0.0000000000000000e+00  7.9351568378649925e-07 2.2748421662189822e-08 0.0000000000000000e+00  7.7694456580789855e-07 -3.6519590027668021e-09 0.0000000000000000e+00  7.8645568580938231e-07 -1.1401140641785445e-08 0.0000000000000000e+00  7.7604622090325869e-07 1.6092290522719307e-08 0.0000000000000000e+00  7.8207144301048675e-07 -1.8295225739671933e-08 0.0000000000000000e+00  8.0199307038527840e-07 5.9014455346992034e-09 0.0000000000000000e+00  7.7716144120358791e-07 1.3164205022554953e-08 0.0000000000000000e+00  8.1077233668398297e-07 -3.2221814283421958e-08 0.0000000000000000e+00  8.4497486492433883e-07 -8.4480478103538885e-09 0.0000000000000000e+00  8.4314986568582528e-07 8.7375452781954769e-09 0.0000000000000000e+00  8.0373691791336908e-07 2.1258988957665192e-08 0.0000000000000000e+00  7.7192889328913698e-07 1.0579617046754332e-08 0.0000000000000000e+00  7.5896897474046610e-07 2.4596229998284154e-10 0.0000000000000000e+00  7.5838776794215793e-07 2.6039291438108902e-10 0.0000000000000000e+00  7.5780261391707286e-07 2.5892742774624094e-10 0.0000000000000000e+00  7.5725874838645910e-07 2.5428392408514329e-10 0.0000000000000000e+00  7.5668387661577469e-07 2.6639554956528687e-10 0.0000000000000000e+00  7.6730735136705414e-07 -1.1513184059157930e-08 0.0000000000000000e+00  7.8177944043620750e-07 1.3904442640035041e-09 0.0000000000000000e+00  7.6923765780814015e-07 1.1019796834551285e-08 0.0000000000000000e+00  8.0232777354536595e-07 -3.0952581413908885e-08 0.0000000000000000e+00  8.3571616141907905e-07 -1.0044156227368304e-08 0.0000000000000000e+00  8.6472762871332055e-07 -6.2621980640939611e-09 0.0000000000000000e+00  8.6336268406185015e-07 1.7773282646555046e-08 0.0000000000000000e+00  7.4449638423201274e-07 3.7432756207700396e-10 0.0000000000000000e+00  8.3346711427199845e-07 3.4063573797524420e-08 0.0000000000000000e+00  7.5472219282164936e-07 -1.1606970729802849e-09 0.0000000000000000e+00  7.5095685697101578e-07 1.4798838120937743e-09 0.0000000000000000e+00  7.5083199663234323e-07 1.5109575750951857e-10 0.0000000000000000e+00  8.0684547329494888e-07 -3.0274460496174376e-08 0.0000000000000000e+00  8.1693410000815734e-07 -9.2548938033033045e-09 0.0000000000000000e+00  8.3963664576735364e-07 -1.6744140916787288e-09 0.0000000000000000e+00  8.3037711942541291e-07 6.9689863871764738e-09 0.0000000000000000e+00  8.2653516703453738e-07 6.6315473888215812e-09 0.0000000000000000e+00  8.2516886759814808e-07 -1.4657658205616905e-08 0.0000000000000000e+00  8.5626691354572745e-07 -2.0567826458889132e-09 0.0000000000000000e+00  8.6564566733022985e-07 -1.6904674406835655e-09 0.0000000000000000e+00  8.4506056528132141e-07 6.0697333431642135e-10 0.0000000000000000e+00  8.5954950719865718e-07 5.8251800893148386e-10 0.0000000000000000e+00  8.6594051028531768e-07 -1.3160395509302326e-09 0.0000000000000000e+00  8.4540597234810518e-07 5.3892908987639916e-10 0.0000000000000000e+00  8.5692574151758593e-07 1.5495812805332087e-09 0.0000000000000000e+00  8.5130089327320038e-07 2.8356736030265959e-09 0.0000000000000000e+00  8.0777665848369176e-07 2.4827498560074299e-08 0.0000000000000000e+00  7.8495379026868942e-07 1.2829511804886192e-10 0.0000000000000000e+00  7.8140707930328544e-07 8.9733545711408141e-09 0.0000000000000000e+00  7.7831325198915737e-07 -1.1777143797430304e-08 0.0000000000000000e+00  7.8428426539892048e-07 -4.3810906489944474e-11 0.0000000000000000e+00  7.9704499774127042e-07 1.5894750799373094e-10 0.0000000000000000e+00  8.1594846665303058e-07 -2.3784341253887316e-08 0.0000000000000000e+00  8.5838331794724039e-07 -3.6625673791385270e-09 0.0000000000000000e+00  8.7230327242220951e-07 -2.6410499866561338e-09 0.0000000000000000e+00  8.5317223108179384e-07 1.3866304845697538e-10 0.0000000000000000e+00  8.6464963938987510e-07 3.5898729551619506e-09 0.0000000000000000e+00  8.3888247250768473e-07 1.2502720695056502e-08 0.0000000000000000e+00  7.8873502209477955e-07 2.2821099626123424e-08 0.0000000000000000e+00  7.6277300161056689e-07 4.2471693840619991e-09 0.0000000000000000e+00  7.5950419306110883e-07 -2.3950765133156248e-10 0.0000000000000000e+00  7.6001152735956667e-07 -2.1798195993801165e-10 0.0000000000000000e+00  7.6304446662295651e-07 -1.2770063614752417e-09 0.0000000000000000e+00  7.7032276963710765e-07 -4.6144257383741287e-09 0.0000000000000000e+00  7.9107966448487984e-07 -1.0313016950037738e-08 0.0000000000000000e+00  8.2331969090542918e-07 -2.3524885857634068e-08 0.0000000000000000e+00  8.6306724243084078e-07 -8.6454934362697961e-10 0.0000000000000000e+00  8.4260696518698522e-07 1.1588343369787041e-08 0.0000000000000000e+00  8.1424202475772820e-07 1.5063253513321367e-08 0.0000000000000000e+00  8.0737657543484536e-07 -7.8860208901912496e-09 0.0000000000000000e+00  8.2606191323301287e-07 -1.8994361828621975e-08 0.0000000000000000e+00  8.6078789468608039e-07 3.3889734837134767e-10 0.0000000000000000e+00  8.4502772155270322e-07 1.0865919308733990e-08 0.0000000000000000e+00  8.1670766886647280e-07 8.9071360472982456e-09 0.0000000000000000e+00  7.8556040651337385e-07 1.8529875825098782e-08 0.0000000000000000e+00  7.7582424524955625e-07 -7.9175640612452319e-09 0.0000000000000000e+00  7.7479984350804945e-07 7.6004799077775766e-09 0.0000000000000000e+00  7.6682711769026898e-07 -1.3851110107294601e-10 0.0000000000000000e+00  7.6713983598741120e-07 -1.3425668312785859e-10 0.0000000000000000e+00  7.8044248074875649e-07 -1.1290723346951385e-08 0.0000000000000000e+00  7.8067695490575842e-07 1.1033392713758172e-08 0.0000000000000000e+00  7.7077754310940389e-07 -2.4189307516914225e-09 0.0000000000000000e+00  8.0134941687368713e-07 -1.1962528759588781e-08 0.0000000000000000e+00  8.1536846398506280e-07 -6.8971787580622171e-09 0.0000000000000000e+00  8.2392544455152945e-07 -1.7122594304807900e-08 0.0000000000000000e+00  8.4690303032193009e-07 -3.6553042379260819e-09 0.0000000000000000e+00  1.0395527863424139e-06 -6.0109577692790922e-08 0.0000000000000000e+00  -1.0900342465512907e-07 9.7310235430817188e-07 0.0000000000000000e+00  5.7124480093431145e-08 8.3055324966781884e-07 0.0000000000000000e+00  1.1475610132123645e-09 9.4722191942342045e-07 0.0000000000000000e+00  3.4621210016993463e-08 1.0633917905838182e-06 0.0000000000000000e+00  -1.8503445727449646e-08 9.0273201218260625e-07 0.0000000000000000e+00  -8.8440140537011578e-08 8.9636986397914696e-07 0.0000000000000000e+00  1.3346267455644574e-07 9.2219728479365307e-07 0.0000000000000000e+00  -1.4560867014789183e-07 9.2748120456480773e-07 0.0000000000000000e+00  1.2067994468056011e-08 7.0911298891549863e-07 0.0000000000000000e+00  7.8533766170644798e-09 7.6481274530317091e-07 0.0000000000000000e+00  -1.2101288080516963e-08 7.8117048342600824e-07 0.0000000000000000e+00  -1.1508856901031199e-08 7.5540198835490036e-07 0.0000000000000000e+00  -3.3706729494049114e-08 6.6528976566364782e-07 0.0000000000000000e+00  5.6833829681043957e-08 6.9939300403516336e-07 0.0000000000000000e+00  1.1750536194391277e-09 7.9592607358627460e-07 0.0000000000000000e+00  -1.7019646419539352e-09 7.8619906730353710e-07 0.0000000000000000e+00  -1.3409422926102447e-09 7.8034286127242773e-07 0.0000000000000000e+00  2.2751451929319853e-09 7.8372852035645044e-07 0.0000000000000000e+00  -1.1635019450426923e-09 7.9425016706385636e-07 0.0000000000000000e+00  -5.6362703591265070e-08 7.0057091785541516e-07 0.0000000000000000e+00  4.2468348508626634e-08 6.8237934020372481e-07 0.0000000000000000e+00  -3.6845427373831583e-09 7.5361231395152861e-07 0.0000000000000000e+00  9.3008582694847492e-09 7.5940508068711703e-07 0.0000000000000000e+00  -8.8930298541150409e-09 7.5639557365560668e-07 0.0000000000000000e+00  -2.7704823894932543e-08 6.7898002827265541e-07 0.0000000000000000e+00  1.1977925286827666e-07 8.1903093921055610e-07 0.0000000000000000e+00  -1.0503401878891039e-07 8.4202420958438009e-07 0.0000000000000000e+00  7.3902113144625140e-08 7.7499211284222865e-07 0.0000000000000000e+00  4.4407516861406568e-09 9.3214050315296992e-07 0.0000000000000000e+00  3.5331673510308942e-08 1.0511565936958200e-06 0.0000000000000000e+00  -2.3201291910129352e-08 8.9431004597777669e-07 0.0000000000000000e+00  -9.2390690913520015e-08 8.6680493387715059e-07 0.0000000000000000e+00  9.6079316373997873e-08 8.4961073636080826e-07 0.0000000000000000e+00  -1.2872622723401687e-07 8.0370105738142735e-07 0.0000000000000000e+00  4.2207986798831378e-08 6.6819718761325575e-07 0.0000000000000000e+00  -1.0369389863567944e-08 7.4052705295460277e-07 0.0000000000000000e+00  1.3627106235851699e-08 7.5017282591065966e-07 0.0000000000000000e+00  -3.5263278051328177e-09 7.6134094437425145e-07 0.0000000000000000e+00  -1.2899198347071928e-10 7.5529405091188360e-07 0.0000000000000000e+00  -1.2444748418855876e-10 7.5501194785100183e-07 0.0000000000000000e+00  -5.1189759159189569e-08 7.2460071283544337e-07 0.0000000000000000e+00  4.4522496403299788e-08 6.8024597386689531e-07 0.0000000000000000e+00  -1.4410559485778051e-09 7.6146698959757606e-07 0.0000000000000000e+00  2.8362024925881504e-08 7.8301671203727233e-07 0.0000000000000000e+00  -9.8545369823005510e-09 8.2599800866474678e-07 0.0000000000000000e+00  -7.0931943782091482e-08 6.9057845045797163e-07 0.0000000000000000e+00  6.8373340075182977e-08 6.8746738507695087e-07 0.0000000000000000e+00  2.5240166505803554e-08 8.3019845507928177e-07 0.0000000000000000e+00  8.7759749967856297e-10 8.5385301734168941e-07 0.0000000000000000e+00  5.5202204001535743e-09 8.7237665248180432e-07 0.0000000000000000e+00  -8.5779375828293747e-08 7.4094716125270640e-07 0.0000000000000000e+00  6.3468229649750351e-08 7.1207860454857244e-07 0.0000000000000000e+00  2.2450473901990100e-08 8.4935516041553747e-07 0.0000000000000000e+00  6.7617993214567360e-09 8.8266246643894268e-07 0.0000000000000000e+00  -1.1874080145495951e-08 8.7595691582092215e-07 0.0000000000000000e+00  -5.8435727917833358e-08 7.2827485947540713e-07 0.0000000000000000e+00  1.1934071698842605e-07 8.4030435951546239e-07 0.0000000000000000e+00  -1.0434501772878925e-07 8.6471084841318005e-07 0.0000000000000000e+00  8.6532127234126214e-08 8.5131386471038589e-07 0.0000000000000000e+00  -1.2895450030428443e-07 7.8923000017311139e-07 0.0000000000000000e+00  4.4218878382208385e-08 6.5055795915317768e-07 0.0000000000000000e+00  5.2575708304613913e-09 7.6147147989223922e-07 0.0000000000000000e+00  1.0118334997160993e-09 7.6863589047395379e-07 0.0000000000000000e+00  -5.8117776240439645e-09 7.6308530589367037e-07 0.0000000000000000e+00  1.0264441140246848e-09 7.5718408852897103e-07 0.0000000000000000e+00  -7.1326360463450022e-10 7.5846727494262231e-07 0.0000000000000000e+00  5.7337263636302936e-09 7.6373738399633454e-07 0.0000000000000000e+00  2.5581457514307910e-08 8.0058135815924647e-07 0.0000000000000000e+00  -9.0471192950078342e-09 8.3088281759726452e-07 0.0000000000000000e+00  -7.0309215126855794e-08 7.0581632983484957e-07 0.0000000000000000e+00  5.3763561450792443e-08 7.0953689447148389e-07 0.0000000000000000e+00  1.8666885679408910e-10 7.5948777435790234e-07 0.0000000000000000e+00  3.0811659717792110e-08 7.8794844430510982e-07 0.0000000000000000e+00  -1.4335898076521384e-09 8.4145538613278370e-07 0.0000000000000000e+00  -1.9325820324827586e-08 8.0749894238428686e-07 0.0000000000000000e+00  -9.9784511430161463e-09 7.7281833190176815e-07 0.0000000000000000e+00  -4.0306225364029018e-08 7.0188539770058421e-07 0.0000000000000000e+00  1.0975844799510164e-07 8.0304481632293176e-07 0.000