<?xml version="1.0"?>
<VTKFile type="UnstructuredGrid"  version="0.1"  >
<UnstructuredGrid>
<Piece  NumberOfPoints="11902" NumberOfCells="23402">
<Points>
<DataArray  type="Float64"  NumberOfComponents="3"  format="ascii">-5 -5 0  5 -5 0  5 5 0  -5 5 0  1.081589476207755 0.0005411295755481878 0  -4.9 -5 0  -4.8 -5 0  -4.7 -5 0  -4.6 -5 0  -4.5 -5 0  -4.4 -5 0  -4.3 -5 0  -4.2 -5 0  -4.1 -5 0  -4 -5 0  -3.9 -5 0  -3.8 -5 0  -3.7 -5 0  -3.6 -5 0  -3.5 -5 0  -3.4 -5 0  -3.3 -5 0  -3.2 -5 0  -3.1 -5 0  -3 -5 0  -2.9 -5 0  -2.8 -5 0  -2.7 -5 0  -2.6 -5 0  -2.5 -5 0  -2.4 -5 0  -2.3 -5 0  -2.2 -5 0  -2.1 -5 0  -2 -5 0  -1.9 -5 0  -1.8 -5 0  -1.7 -5 0  -1.6 -5 0  -1.5 -5 0  -1.4 -5 0  -1.3 -5 0  -1.2 -5 0  -1.1 -5 0  -1 -5 0  -0.9000000000000004 -5 0  -0.7999999999999998 -5 0  -0.7000000000000002 -5 0  -0.5999999999999996 -5 0  -0.5 -5 0  -0.4000000000000004 -5 0  -0.2999999999999998 -5 0  -0.2000000000000002 -5 0  -0.09999999999999964 -5 0  0 -5 0  0.09999999999999964 -5 0  0.2000000000000002 -5 0  0.2999999999999998 -5 0  0.4000000000000004 -5 0  0.5 -5 0  0.5999999999999996 -5 0  0.7000000000000002 -5 0  0.7999999999999998 -5 0  0.9000000000000004 -5 0  1 -5 0  1.1 -5 0  1.2 -5 0  1.3 -5 0  1.4 -5 0  1.5 -5 0  1.6 -5 0  1.7 -5 0  1.8 -5 0  1.9 -5 0  2 -5 0  2.1 -5 0  2.2 -5 0  2.3 -5 0  2.4 -5 0  2.5 -5 0  2.6 -5 0  2.7 -5 0  2.8 -5 0  2.9 -5 0  3 -5 0  3.1 -5 0  3.199999999999999 -5 0  3.300000000000001 -5 0  3.4 -5 0  3.5 -5 0  3.6 -5 0  3.699999999999999 -5 0  3.800000000000001 -5 0  3.9 -5 0  4 -5 0  4.1 -5 0  4.199999999999999 -5 0  4.300000000000001 -5 0  4.4 -5 0  4.5 -5 0  4.6 -5 0  4.699999999999999 -5 0  4.800000000000001 -5 0  4.9 -5 0  5 -4.9 0  5 -4.8 0  5 -4.7 0  5 -4.6 0  5 -4.5 0  5 -4.4 0  5 -4.3 0  5 -4.2 0  5 -4.1 0  5 -4 0  5 -3.9 0  5 -3.8 0  5 -3.7 0  5 -3.6 0  5 -3.5 0  5 -3.4 0  5 -3.3 0  5 -3.2 0  5 -3.1 0  5 -3 0  5 -2.9 0  5 -2.8 0  5 -2.7 0  5 -2.6 0  5 -2.5 0  5 -2.4 0  5 -2.3 0  5 -2.2 0  5 -2.1 0  5 -2 0  5 -1.9 0  5 -1.8 0  5 -1.7 0  5 -1.6 0  5 -1.5 0  5 -1.4 0  5 -1.3 0  5 -1.2 0  5 -1.1 0  5 -1 0  5 -0.9000000000000004 0  5 -0.7999999999999998 0  5 -0.7000000000000002 0  5 -0.5999999999999996 0  5 -0.5 0  5 -0.4000000000000004 0  5 -0.2999999999999998 0  5 -0.2000000000000002 0  5 -0.09999999999999964 0  5 0 0  5 0.09999999999999964 0  5 0.2000000000000002 0  5 0.2999999999999998 0  5 0.4000000000000004 0  5 0.5 0  5 0.5999999999999996 0  5 0.7000000000000002 0  5 0.7999999999999998 0  5 0.9000000000000004 0  5 1 0  5 1.1 0  5 1.2 0  5 1.3 0  5 1.4 0  5 1.5 0  5 1.6 0  5 1.7 0  5 1.8 0  5 1.9 0  5 2 0  5 2.1 0  5 2.2 0  5 2.3 0  5 2.4 0  5 2.5 0  5 2.6 0  5 2.7 0  5 2.8 0  5 2.9 0  5 3 0  5 3.1 0  5 3.199999999999999 0  5 3.300000000000001 0  5 3.4 0  5 3.5 0  5 3.6 0  5 3.699999999999999 0  5 3.800000000000001 0  5 3.9 0  5 4 0  5 4.1 0  5 4.199999999999999 0  5 4.300000000000001 0  5 4.4 0  5 4.5 0  5 4.6 0  5 4.699999999999999 0  5 4.800000000000001 0  5 4.9 0  4.9 5 0  4.8 5 0  4.7 5 0  4.6 5 0  4.5 5 0  4.4 5 0  4.3 5 0  4.2 5 0  4.1 5 0  4 5 0  3.9 5 0  3.8 5 0  3.7 5 0  3.6 5 0  3.5 5 0  3.4 5 0  3.3 5 0  3.2 5 0  3.1 5 0  3 5 0  2.9 5 0  2.8 5 0  2.7 5 0  2.6 5 0  2.5 5 0  2.4 5 0  2.3 5 0  2.2 5 0  2.1 5 0  2 5 0  1.9 5 0  1.8 5 0  1.7 5 0  1.6 5 0  1.5 5 0  1.4 5 0  1.3 5 0  1.2 5 0  1.1 5 0  1 5 0  0.9000000000000004 5 0  0.7999999999999998 5 0  0.7000000000000002 5 0  0.5999999999999996 5 0  0.5 5 0  0.4000000000000004 5 0  0.2999999999999998 5 0  0.2000000000000002 5 0  0.09999999999999964 5 0  0 5 0  -0.09999999999999964 5 0  -0.2000000000000002 5 0  -0.2999999999999998 5 0  -0.4000000000000004 5 0  -0.5 5 0  -0.5999999999999996 5 0  -0.7000000000000002 5 0  -0.7999999999999998 5 0  -0.9000000000000004 5 0  -1 5 0  -1.1 5 0  -1.2 5 0  -1.3 5 0  -1.4 5 0  -1.5 5 0  -1.6 5 0  -1.7 5 0  -1.8 5 0  -1.9 5 0  -2 5 0  -2.1 5 0  -2.2 5 0  -2.3 5 0  -2.4 5 0  -2.5 5 0  -2.6 5 0  -2.7 5 0  -2.8 5 0  -2.9 5 0  -3 5 0  -3.1 5 0  -3.199999999999999 5 0  -3.300000000000001 5 0  -3.4 5 0  -3.5 5 0  -3.6 5 0  -3.699999999999999 5 0  -3.800000000000001 5 0  -3.9 5 0  -4 5 0  -4.1 5 0  -4.199999999999999 5 0  -4.300000000000001 5 0  -4.4 5 0  -4.5 5 0  -4.6 5 0  -4.699999999999999 5 0  -4.800000000000001 5 0  -4.9 5 0  -5 4.9 0  -5 4.8 0  -5 4.7 0  -5 4.6 0  -5 4.5 0  -5 4.4 0  -5 4.3 0  -5 4.2 0  -5 4.1 0  -5 4 0  -5 3.9 0  -5 3.8 0  -5 3.7 0  -5 3.6 0  -5 3.5 0  -5 3.4 0  -5 3.3 0  -5 3.2 0  -5 3.1 0  -5 3 0  -5 2.9 0  -5 2.8 0  -5 2.7 0  -5 2.6 0  -5 2.5 0  -5 2.4 0  -5 2.3 0  -5 2.2 0  -5 2.1 0  -5 2 0  -5 1.9 0  -5 1.8 0  -5 1.7 0  -5 1.6 0  -5 1.5 0  -5 1.4 0  -5 1.3 0  -5 1.2 0  -5 1.1 0  -5 1 0  -5 0.9000000000000004 0  -5 0.7999999999999998 0  -5 0.7000000000000002 0  -5 0.5999999999999996 0  -5 0.5 0  -5 0.4000000000000004 0  -5 0.2999999999999998 0  -5 0.2000000000000002 0  -5 0.09999999999999964 0  -5 0 0  -5 -0.09999999999999964 0  -5 -0.2000000000000002 0  -5 -0.2999999999999998 0  -5 -0.4000000000000004 0  -5 -0.5 0  -5 -0.5999999999999996 0  -5 -0.7000000000000002 0  -5 -0.7999999999999998 0  -5 -0.9000000000000004 0  -5 -1 0  -5 -1.1 0  -5 -1.2 0  -5 -1.3 0  -5 -1.4 0  -5 -1.5 0  -5 -1.6 0  -5 -1.7 0  -5 -1.8 0  -5 -1.9 0  -5 -2 0  -5 -2.1 0  -5 -2.2 0  -5 -2.3 0  -5 -2.4 0  -5 -2.5 0  -5 -2.6 0  -5 -2.7 0  -5 -2.8 0  -5 -2.9 0  -5 -3 0  -5 -3.1 0  -5 -3.199999999999999 0  -5 -3.300000000000001 0  -5 -3.4 0  -5 -3.5 0  -5 -3.6 0  -5 -3.699999999999999 0  -5 -3.800000000000001 0  -5 -3.9 0  -5 -4 0  -5 -4.1 0  -5 -4.199999999999999 0  -5 -4.300000000000001 0  -5 -4.4 0  -5 -4.5 0  -5 -4.6 0  -5 -4.699999999999999 0  -5 -4.800000000000001 0  -5 -4.9 0  1.076318843082448 0.1003776257904275 0  1.060096862246218 0.1996755811277776 0  1.032810424957831 0.2972657841565789 0  0.9962466902640916 0.3910153293625364 0  0.9495596494849378 0.4818290472019394 0  0.8937723998848817 0.5675369158982532 0  0.8286575807047463 0.6473509506966634 0  0.7547978949026461 0.7205811241325972 0  0.6740651426713579 0.7869497922586489 0  0.5866422725094811 0.8457330502366366 0  0.4930448838349012 0.895729114133171 0  0.3944587481924333 0.936957461911075 0  0.292852001915731 0.9692149774393585 0  0.1876843629159182 0.9912801107892746 0  0.08124850758830841 1.003940421934796 0  -0.02629906174023901 1.006494986005665 0  -0.1335943702435998 0.9986976133698351 0  -0.2396547638863962 0.9816135813139304 0  -0.343304029406308 0.9546505139344902 0  -0.4434199598582918 0.9179115442277243 0  -0.5389923699401432 0.8724415569368306 0  -0.6293856132510602 0.8179777778797943 0  -0.7135396544181869 0.75555572202525 0  -0.7906679961083403 0.6857594880580919 0  -0.8601077133072181 0.6084685005094942 0  -0.9206915322102818 0.5253588310686578 0  -0.972631694786335 0.4374024861428568 0  -1.014470828301991 0.3447009096132862 0  -1.046064903680462 0.2489010438706793 0  -1.067515262185993 0.1506644860073512 0  -1.078395332550437 0.05062953141235604 0  -1.078415822733742 -0.04996019703832189 0  -1.067558549932515 -0.1498899909672764 0  -1.047011763219629 -0.2480919597974897 0  -1.014453337940096 -0.3442763648182945 0  -0.9728000475006641 -0.4365872276580923 0  -0.921034365252086 -0.5246938557948254 0  -0.8605179216303236 -0.6075965936434258 0  -0.7910427292485779 -0.6844376131178705 0  -0.7135865555228426 -0.7540927984699608 0  -0.6290635557364549 -0.8160983822753494 0  -0.5392441690919787 -0.8708736120073767 0  -0.4426549283386528 -0.9163718490365438 0  -0.3424721105826781 -0.9534136960125679 0  -0.2386490664767136 -0.9805936877524928 0  -0.1328006685630251 -0.9979770209696166 0  -0.02575759192034049 -1.006185326748519 0  0.0814717052548409 -1.003334690932205 0  0.1884293628544325 -0.9904454858068252 0  0.2931631867081972 -0.9683090305089618 0  0.3956848633108646 -0.9361129276895122 0  0.4934717172445345 -0.894973752840353 0  0.5869513398017823 -0.8450529003405179 0  0.674267552560207 -0.7871655662951618 0  0.754966302912784 -0.7207945713954986 0  0.8284185608549773 -0.6470197053046298 0  0.8933038098011812 -0.5669596453015594 0  0.9497434125321328 -0.481464270694332 0  0.9970500554062723 -0.3910598661513422 0  1.033500206890623 -0.2969260309866996 0  1.060150457177948 -0.1993338602237354 0  1.076356088257061 -0.1002159829126947 0  -2.449401865963398 4.919667494743527 0  -2.44935066496443 -4.912186275965228 0  4.91215040205239 2.449112250847111 0  4.920116835477553 -2.450463420892933 0  2.447229979208727 -4.897713636807549 0  2.441628919250616 4.901411593342328 0  -4.912163098590343 -2.449125262694793 0  -4.912164726314482 2.449128934936835 0  -1.749383303770846 4.913237237401967 0  -1.745132175872142 -4.916589074451264 0  4.922781466582791 1.745170770999633 0  4.911619471015505 -1.749093051191986 0  -4.911886105343228 -1.74880846140835 0  -4.912691112213184 1.748540155874025 0  1.746709776862739 4.9072597239668 0  1.748233517180026 -4.89569662154447 0  -1.14951655738425 4.911487856433303 0  -1.130304460106076 -4.919174010519836 0  -4.912215914898214 -1.148916346546413 0  -4.912044329504837 1.148715271242126 0  1.144466912996099 -4.915472333378767 0  1.149518215289645 4.911482496223938 0  4.912381357701746 1.147199507708657 0  4.922842356491091 -1.15286658615325 0  -0.5470203454852551 -4.912906180219704 0  -0.5467686269754186 4.921320922340679 0  -4.91144051430845 -0.5492578667647467 0  -4.911466469761478 0.5478093837121545 0  4.910818876546251 -0.5495867849349966 0  4.922029797067366 0.5462690067763805 0  0.5428358602305862 -4.900212086712437 0  0.5515030673788333 4.918247869446412 0  -4.913034268511717 -3.049274941193713 0  4.919529420003735 3.047228133447436 0  4.912555082764552 -3.049266695613526 0  -4.913876749900935 3.04635864540068 0  3.056038188202133 -4.91850835664801 0  -3.049424088387637 -4.912521397531716 0  3.052974739844029 4.914579100572065 0  -3.048865171071912 4.913401988912421 0  -4.910732774053761 -0.04996260015794928 0  0.0451414487607348 -4.914878033403027 0  0.049591692150981 4.921681434508417 0  4.917540038907508 -0.05134122222374683 0  3.546203825503795 -4.919815193793033 0  -3.549535617394741 
[...]
<PointData  Vectors="f_802"> 
<DataArray  type="Float64"  Name="f_802"  NumberOfComponents="3" format="ascii">-4.5519386456401973e-07 -4.5520302285857287e-07 0.0000000000000000e+00  4.5519268461115612e-07 -4.5520219469248714e-07 0.0000000000000000e+00  5.0314690451476214e-07 5.0315356894273753e-07 0.0000000000000000e+00  -4.5519358419042229e-07 4.5520261525262875e-07 0.0000000000000000e+00  -7.9266158394270780e-01 -1.6675636516463189e-02 0.0000000000000000e+00  9.1101510966855591e-08 -9.0633043869170891e-07 0.0000000000000000e+00  -1.0669003908327397e-07 -8.6070543725819078e-07 0.0000000000000000e+00  1.0470469330369409e-07 -8.7389999882063453e-07 0.0000000000000000e+00  -9.1502878692929599e-08 -8.8195837181409868e-07 0.0000000000000000e+00  -2.1341202094951729e-08 -9.0630345463743691e-07 0.0000000000000000e+00  3.5792522882695914e-08 -1.0637706558483203e-06 0.0000000000000000e+00  5.9583424967098638e-09 -9.3894739248169005e-07 0.0000000000000000e+00  7.3383671899930011e-08 -7.8126815577036443e-07 0.0000000000000000e+00  -1.0516047949377829e-07 -8.4800315345313306e-07 0.0000000000000000e+00  1.2020062725768662e-07 -8.2807358914203416e-07 0.0000000000000000e+00  -2.6719281271272945e-08 -6.8313309512915342e-07 0.0000000000000000e+00  -5.4791734961881794e-09 -7.5559757341494281e-07 0.0000000000000000e+00  -1.3110256037177088e-08 -7.7035008722400756e-07 0.0000000000000000e+00  1.0260251990227782e-08 -7.7945420922408334e-07 0.0000000000000000e+00  1.8639110437255256e-10 -7.6401575577766761e-07 0.0000000000000000e+00  1.9285518679679516e-10 -7.6358684000309304e-07 0.0000000000000000e+00  5.0416294522443676e-08 -7.2938979872034795e-07 0.0000000000000000e+00  -4.4679142206699820e-08 -6.9139768014740534e-07 0.0000000000000000e+00  2.0275457393872496e-10 -7.6224917057336205e-07 0.0000000000000000e+00  3.9795321461908182e-08 -6.6467376752482097e-07 0.0000000000000000e+00  -1.2860252461334198e-07 -8.1224674773505169e-07 0.0000000000000000e+00  9.7224134518733493e-08 -8.5411280273099903e-07 0.0000000000000000e+00  -9.4404944467297052e-08 -8.5493799910860503e-07 0.0000000000000000e+00  1.2494974778521172e-07 -8.0405545466315495e-07 0.0000000000000000e+00  -3.8025384410512733e-08 -6.5163742397975607e-07 0.0000000000000000e+00  2.1288439620353169e-10 -7.5891803465165509e-07 0.0000000000000000e+00  3.5468429906920246e-08 -6.9016883157412908e-07 0.0000000000000000e+00  -1.2130873834082493e-07 -8.1792068883745334e-07 0.0000000000000000e+00  1.0014825278047508e-07 -8.5201805040570093e-07 0.0000000000000000e+00  -9.5075317389508400e-08 -8.7430690048375913e-07 0.0000000000000000e+00  8.8016761262802950e-10 -8.7559990295954105e-07 0.0000000000000000e+00  6.7699759894893409e-08 -9.8307931763335914e-07 0.0000000000000000e+00  1.1350853882429319e-08 -7.9852951128853369e-07 0.0000000000000000e+00  7.8221952188088810e-09 -7.6976871409634580e-07 0.0000000000000000e+00  5.1561453812959243e-10 -7.5516321562860587e-07 0.0000000000000000e+00  9.8341496995741380e-09 -7.3276921052815660e-07 0.0000000000000000e+00  4.0486860984870783e-08 -6.4286063939633017e-07 0.0000000000000000e+00  -8.0037694705783924e-08 -6.8530622323407062e-07 0.0000000000000000e+00  -8.9233505753721754e-08 -9.7475899184094656e-07 0.0000000000000000e+00  9.7860284397690626e-08 -9.7104766204259410e-07 0.0000000000000000e+00  5.2179571604806684e-08 -7.0820492039826114e-07 0.0000000000000000e+00  -9.5618217634017180e-08 -8.3526452102627752e-07 0.0000000000000000e+00  -1.0774651801868165e-08 -7.6058672743267628e-07 0.0000000000000000e+00  5.8006273535106296e-08 -9.2486885225704201e-07 0.0000000000000000e+00  1.8102691285161375e-09 -7.6666251636720443e-07 0.0000000000000000e+00  4.5357963457089365e-09 -7.6389949938007892e-07 0.0000000000000000e+00  5.3444517726604564e-11 -7.5135453125274821e-07 0.0000000000000000e+00  -3.8524900200925788e-10 -7.5228535882726152e-07 0.0000000000000000e+00  -1.8697267240098438e-09 -7.5681062985928021e-07 0.0000000000000000e+00  -1.2195325458827741e-08 -7.8607259972818237e-07 0.0000000000000000e+00  -7.2673676853167870e-08 -9.7327221905507322e-07 0.0000000000000000e+00  7.7776807360911485e-09 -8.4357264550937167e-07 0.0000000000000000e+00  9.1611864315639360e-08 -8.3500868872934049e-07 0.0000000000000000e+00  -1.0592922779358453e-07 -8.2702535081995069e-07 0.0000000000000000e+00  1.1979343382613601e-07 -8.0968914964516020e-07 0.0000000000000000e+00  -2.7888272296222614e-08 -6.7060179397084675e-07 0.0000000000000000e+00  -9.3473167234665293e-09 -7.4824393356229510e-07 0.0000000000000000e+00  -6.6066033854590087e-09 -7.5963454621378143e-07 0.0000000000000000e+00  5.2878443496610544e-09 -7.6108559770165600e-07 0.0000000000000000e+00  -5.0525946863718624e-09 -7.6406122805346809e-07 0.0000000000000000e+00  -1.0003765869069948e-08 -7.9475787379662175e-07 0.0000000000000000e+00  4.7667148000381304e-08 -7.2158317774335386e-07 0.0000000000000000e+00  -8.6760156947274850e-08 -7.7040182898355679e-07 0.0000000000000000e+00  1.3138761653991627e-08 -8.8369111006354616e-07 0.0000000000000000e+00  5.9948973012198900e-09 -8.4633303244530324e-07 0.0000000000000000e+00  1.5753037932638568e-08 -8.3874423765950469e-07 0.0000000000000000e+00  7.2739894725819132e-08 -6.9554000891245102e-07 0.0000000000000000e+00  -6.8198186169639338e-08 -6.9205177290316654e-07 0.0000000000000000e+00  -1.4522936445464695e-08 -8.1849504192819034e-07 0.0000000000000000e+00  2.7711534826887838e-08 -7.9934532663652155e-07 0.0000000000000000e+00  1.9218803210869469e-09 -7.6440246251266179e-07 0.0000000000000000e+00  2.1009216316722840e-10 -7.5908088473822825e-07 0.0000000000000000e+00  -5.4894592118400560e-09 -7.8253648068530567e-07 0.0000000000000000e+00  5.3707670530297776e-08 -6.9441675277814520e-07 0.0000000000000000e+00  -3.3296676121796958e-08 -6.6534795676325187e-07 0.0000000000000000e+00  -1.6467733794126234e-08 -7.5315561667457564e-07 0.0000000000000000e+00  -4.3587524002146487e-08 -8.1315840792782592e-07 0.0000000000000000e+00  -6.1563498029446055e-09 -8.8562025511295622e-07 0.0000000000000000e+00  8.5931562065209709e-08 -7.5170017117732362e-07 0.0000000000000000e+00  -6.2283607409463781e-08 -7.2148302019233526e-07 0.0000000000000000e+00  -4.6723671789252396e-09 -8.3439436879995497e-07 0.0000000000000000e+00  4.1598524690969874e-08 -7.9164965725461238e-07 0.0000000000000000e+00  -1.8916006797931748e-08 -7.6110670110064198e-07 0.0000000000000000e+00  -2.5242758707929205e-08 -7.9956584574357859e-07 0.0000000000000000e+00  3.0896612509626251e-09 -8.5563038403111841e-07 0.0000000000000000e+00  7.5142593073153000e-08 -7.1914868669674350e-07 0.0000000000000000e+00  -7.3022715075130396e-08 -7.1634223248406971e-07 0.0000000000000000e+00  -8.0591499615038028e-09 -8.4773555451127275e-07 0.0000000000000000e+00  3.3419515081770739e-08 -8.1272425755775687e-07 0.0000000000000000e+00  1.6112505695551783e-08 -7.4784902745068901e-07 0.0000000000000000e+00  -1.2310238956557377e-08 -7.4227567254195404e-07 0.0000000000000000e+00  -6.8329839097533384e-09 -7.7930992403754484e-07 0.0000000000000000e+00  5.2345303620306444e-08 -6.9765160781654824e-07 0.0000000000000000e+00  -6.5735911894478487e-08 -7.0979770267298895e-07 0.0000000000000000e+00  -1.8598614034549544e-08 -8.4147645045749375e-07 0.0000000000000000e+00  2.8515115732909188e-08 -8.1922193049458726e-07 0.0000000000000000e+00  3.4160576756837446e-09 -7.8093769103573393e-07 0.0000000000000000e+00  -6.6427531896318761e-09 -7.9488180879577822e-07 0.0000000000000000e+00  -6.0126122131402138e-08 -9.4845156532503466e-07 0.0000000000000000e+00  8.9135325628174190e-07 8.8157921429878425e-08 0.0000000000000000e+00  8.8591148464749221e-07 -1.2432028349016390e-07 0.0000000000000000e+00  9.1763842637763689e-07 1.1027170868377936e-07 0.0000000000000000e+00  7.5759350165797804e-07 -2.5143585092639153e-08 0.0000000000000000e+00  8.0282780944992224e-07 1.6709786689222834e-08 0.0000000000000000e+00  7.8125587826607557e-07 3.9723289698755708e-10 0.0000000000000000e+00  7.8091398277187149e-07 -3.3901137131873078e-10 0.0000000000000000e+00  7.8091723347783442e-07 6.5102006523915598e-10 0.0000000000000000e+00  7.8530321134524335e-07 -6.5391928673502351e-09 0.0000000000000000e+00  7.9413638210116315e-07 3.6757519563212502e-09 0.0000000000000000e+00  7.9749864357304239e-07 -6.9084381303051650e-09 0.0000000000000000e+00  7.9601619529255911e-07 1.1766350528903095e-08 0.0000000000000000e+00  7.8884610362418961e-07 -1.2991135925796530e-08 0.0000000000000000e+00  7.8926222300352480e-07 8.9746890563752533e-09 0.0000000000000000e+00  8.0408181022189906e-07 -1.4370881511971498e-08 0.0000000000000000e+00  7.9273811165723671e-07 2.2773592884447655e-08 0.0000000000000000e+00  7.7609701087461173e-07 -3.6245857760185365e-09 0.0000000000000000e+00  7.8552465199716053e-07 -1.1372389851714987e-08 0.0000000000000000e+00  7.7509001047742903e-07 1.6120972534232832e-08 0.0000000000000000e+00  7.8100061838425029e-07 -1.8264162521751983e-08 0.0000000000000000e+00  8.0085018897332447e-07 5.9327755943168115e-09 0.0000000000000000e+00  7.7598908978271157e-07 1.3196376428878426e-08 0.0000000000000000e+00  8.0941395929656694e-07 -3.2187259312564510e-08 0.0000000000000000e+00  8.4350516158728578e-07 -8.4131518994888001e-09 0.0000000000000000e+00  8.4161818047162880e-07 8.7730135849522343e-09 0.0000000000000000e+00  8.0220839668228746e-07 2.1295198944591989e-08 0.0000000000000000e+00  7.7036382990413603e-07 1.0616931455419450e-08 0.0000000000000000e+00  7.5733221592548462e-07 2.8412787910049154e-10 0.0000000000000000e+00  7.5666691247837925e-07 2.9915767891203005e-10 0.0000000000000000e+00  7.5599671562100579e-07 2.9815384581765968e-10 0.0000000000000000e+00  7.5536710441048328e-07 2.9380919840673226e-10 0.0000000000000000e+00  7.5470637616796536e-07 3.0603249661042726e-10 0.0000000000000000e+00  7.6519769012862426e-07 -1.1473921443666400e-08 0.0000000000000000e+00  7.7955791226092206e-07 1.4297066157030340e-09 0.0000000000000000e+00  7.6697717822851153e-07 1.1058837909388189e-08 0.0000000000000000e+00  7.9982619250763414e-07 -3.0915958248557388e-08 0.0000000000000000e+00  8.3304827254092582e-07 -1.0007768572912093e-08 0.0000000000000000e+00  8.6188081575528427e-07 -6.2270123658812125e-09 0.0000000000000000e+00  8.6045936970086699e-07 1.7807961203060625e-08 0.0000000000000000e+00  7.4191495293273910e-07 4.0619359453602138e-10 0.0000000000000000e+00  8.3052222129625905e-07 3.4095943064203266e-08 0.0000000000000000e+00  7.5196890272563663e-07 -1.1336097611457915e-09 0.0000000000000000e+00  7.4816398285295296e-07 1.5044507053050678e-09 0.0000000000000000e+00  7.4798878993387920e-07 1.7254574829034762e-10 0.0000000000000000e+00  8.0372237095635723e-07 -3.0258964942405318e-08 0.0000000000000000e+00  8.1374906118401020e-07 -9.2407764529320795e-09 0.0000000000000000e+00  8.3633346420098429e-07 -1.6632351879683224e-09 0.0000000000000000e+00  8.2709056113433630e-07 6.9772760846009548e-09 0.0000000000000000e+00  8.2324817212208059e-07 6.6360673161249106e-09 0.0000000000000000e+00  8.2188318170489753e-07 -1.4659054510799576e-08 0.0000000000000000e+00  8.5285997486050372e-07 -2.0607448794301630e-09 0.0000000000000000e+00  8.6221491285279793e-07 -1.6980820861974073e-09 0.0000000000000000e+00  8.4173663291150987e-07 5.9588761438486747e-10 0.0000000000000000e+00  8.5619868282428295e-07 5.6782675740014542e-10 0.0000000000000000e+00  8.6260633266566848e-07 -1.3342479601277539e-09 0.0000000000000000e+00  8.4220076763530583e-07 5.1766307128645184e-10 0.0000000000000000e+00  8.5373110089643077e-07 1.5253603197534993e-09 0.0000000000000000e+00  8.4818960937653980e-07 2.8088207612499678e-09 0.0000000000000000e+00  8.0487159772424938e-07 2.4799774102690395e-08 0.0000000000000000e+00  7.8222318032873382e-07 9.6498360836945027e-11 0.0000000000000000e+00  7.7875295558018547e-07 8.9402067025210586e-09 0.0000000000000000e+00  7.7577141885439803e-07 -1.1813205232401466e-08 0.0000000000000000e+00  7.8179160730660075e-07 -8.0552584287855326e-11 0.0000000000000000e+00  7.9459698317558225e-07 1.2112581466642375e-10 0.0000000000000000e+00  8.1356423547655270e-07 -2.3823809995568285e-08 0.0000000000000000e+00  8.5594425109509918e-07 -3.7018877726812184e-09 0.0000000000000000e+00  8.6992331215401959e-07 -2.6806376620655183e-09 0.0000000000000000e+00  8.5093997070860883e-07 9.9062188207008166e-11 0.0000000000000000e+00  8.6248227885423292e-07 3.5504281947981684e-09 0.0000000000000000e+00  8.3686391850023909e-07 1.2463620784891483e-08 0.0000000000000000e+00  7.8691175425675189e-07 2.2782410117200882e-08 0.0000000000000000e+00  7.6112006406617026e-07 4.2089948290386451e-09 0.0000000000000000e+00  7.5794855183487106e-07 -2.7693514051466510e-10 0.0000000000000000e+00  7.5853737396775586e-07 -2.5459335081712197e-10 0.0000000000000000e+00  7.6164692952496574e-07 -1.3126950005730032e-09 0.0000000000000000e+00  7.6899605791835445e-07 -4.6490552669792182e-09 0.0000000000000000e+00  7.8980418123448515e-07 -1.0346465458367828e-08 0.0000000000000000e+00  8.2208819346902214e-07 -2.3556883005516305e-08 0.0000000000000000e+00  8.6183023712816640e-07 -8.9609674128526558e-10 0.0000000000000000e+00  8.4146200387237663e-07 1.1557520978240875e-08 0.0000000000000000e+00  8.1320371394206657e-07 1.5033368316485534e-08 0.0000000000000000e+00  8.0644032472864334e-07 -7.9140922219274399e-09 0.0000000000000000e+00  8.2518229128954750e-07 -1.9020957909070486e-08 0.0000000000000000e+00  8.5992104562920616e-07 3.1262970001554468e-10 0.0000000000000000e+00  8.4423178635938380e-07 1.0840244186093504e-08 0.0000000000000000e+00  8.1599973425577450e-07 8.8824525970061439e-09 0.0000000000000000e+00  7.8492744870664924e-07 1.8505616319066939e-08 0.0000000000000000e+00  7.7527201931187959e-07 -7.9397717601323631e-09 0.0000000000000000e+00  7.7428890600023244e-07 7.5782953718510917e-09 0.0000000000000000e+00  7.6637542791289568e-07 -1.5960470707696771e-10 0.0000000000000000e+00  7.6673557740813519e-07 -1.5470702898254218e-10 0.0000000000000000e+00  7.8008398691807984e-07 -1.1310024249771323e-08 0.0000000000000000e+00  7.8035401603449863e-07 1.1013491509719495e-08 0.0000000000000000e+00  7.7050800861853153e-07 -2.4376848515225695e-09 0.0000000000000000e+00  8.0111827476096334e-07 -1.1980450096145621e-08 0.0000000000000000e+00  8.1517597467217785e-07 -6.9150640221126421e-09 0.0000000000000000e+00  8.2377613371266767e-07 -1.7139759941372968e-08 0.0000000000000000e+00  8.4679251681508228e-07 -3.6729259712882884e-09 0.0000000000000000e+00  1.0394850453013199e-06 -6.0124916763096936e-08 0.0000000000000000e+00  -1.0901993152767661e-07 9.7303410798988844e-07 0.0000000000000000e+00  5.7101932171081090e-08 8.3042834844274756e-07 0.0000000000000000e+00  1.1270675181715177e-09 9.4703236151345207e-07 0.0000000000000000e+00  3.4598859555219293e-08 1.0631123517283353e-06 0.0000000000000000e+00  -1.8529583330242970e-08 9.0243671379688035e-07 0.0000000000000000e+00  -8.8458464886130638e-08 8.9605061003954222e-07 0.0000000000000000e+00  1.3343761318358908e-07 9.2173360390535479e-07 0.0000000000000000e+00  -1.4562342534752760e-07 9.2706642357710562e-07 0.0000000000000000e+00  1.2045247030907037e-08 7.0868882705706017e-07 0.0000000000000000e+00  7.8304671380942543e-09 7.6430964271024853e-07 0.0000000000000000e+00  -1.2123832359317473e-08 7.8061577721169751e-07 0.0000000000000000e+00  -1.1531823494184744e-08 7.5481323030134032e-07 0.0000000000000000e+00  -3.3729117309422034e-08 6.6473646069953855e-07 0.0000000000000000e+00  5.6807517470961419e-08 6.9870084357753667e-07 0.0000000000000000e+00  1.1500291983021983e-09 7.9512623709992300e-07 0.0000000000000000e+00  -1.7273841823891059e-09 7.8535193009291161e-07 0.0000000000000000e+00  -1.3669463807588899e-09 7.7944210553835726e-07 0.0000000000000000e+00  2.2484851812049317e-09 7.8276012681569107e-07 0.0000000000000000e+00  -1.1905115112200386e-09 7.9320920839409355e-07 0.0000000000000000e+00  -5.6388452470107084e-08 6.9964396177960018e-07 0.0000000000000000e+00  4.2439932591687473e-08 6.8133315845820506e-07 0.0000000000000000e+00  -3.7127155346875098e-09 7.5244230270673922e-07 0.0000000000000000e+00  9.2722415211677317e-09 7.5815046872194534e-07 0.0000000000000000e+00  -8.9217139841865039e-09 7.5509954292279084e-07 0.0000000000000000e+00  -2.7733672599929855e-08 6.7777803971040087e-07 0.0000000000000000e+00  1.1975175751628836e-07 8.1736058793174828e-07 0.0000000000000000e+00  -1.0506213555385111e-07 8.4046180076844254e-07 0.0000000000000000e+00  7.3873604426502222e-08 7.7331871153842451e-07 0.0000000000000000e+00  4.4120172038991828e-09 9.3013232120903633e-07 0.0000000000000000e+00  3.5302659887336908e-08 1.0487751063306219e-06 0.0000000000000000e+00  -2.3235614909604025e-08 8.9226302751864690e-07 0.0000000000000000e+00  -9.2420568001343314e-08 8.6481262961691763e-07 0.0000000000000000e+00  9.6055029288423343e-08 8.4741635872045157e-07 0.0000000000000000e+00  -1.2875348835893750e-07 8.0176236842759193e-07 0.0000000000000000e+00  4.2183900143495147e-08 6.6640616498236997e-07 0.0000000000000000e+00  -1.0393990231768858e-08 7.3853554939963617e-07 0.0000000000000000e+00  1.3604566234220183e-08 7.4808381825371976e-07 0.0000000000000000e+00  -3.5483221111809654e-09 7.5918428496647182e-07 0.0000000000000000e+00  -1.4948749528759020e-10 7.5310559870470168e-07 0.0000000000000000e+00  -1.4347972819625682e-10 7.5278088814782307e-07 0.0000000000000000e+00  -5.1209802285864530e-08 7.2245045489577156e-07 0.0000000000000000e+00  4.4509402311339792e-08 6.7814646039106780e-07 0.0000000000000000e+00  -1.4550524667243245e-09 7.5910701178384268e-07 0.0000000000000000e+00  2.8351450418974026e-08 7.8054809064332750e-07 0.0000000000000000e+00  -9.8653386425910613e-09 8.2338044990291726e-07 0.0000000000000000e+00  -7.0944616126194027e-08 6.8839297414983650e-07 0.0000000000000000e+00  6.8371958872625179e-08 6.8524475502071446e-07 0.0000000000000000e+00  2.5237759252425033e-08 8.2750938094779361e-07 0.0000000000000000e+00  8.7570034207490197e-10 8.5108321902520982e-07 0.0000000000000000e+00  5.5206235270190252e-09 8.6954362144025220e-07 0.0000000000000000e+00  -8.5782751983468718e-08 7.3854116505426573e-07 0.0000000000000000e+00  6.3476757370230926e-08 7.0978970165992197e-07 0.0000000000000000e+00  2.2458256079867243e-08 8.4662635157405070e-07 0.0000000000000000e+00  6.7706141047136053e-09 8.7984205695689345e-07 0.0000000000000000e+00  -1.1864374398240626e-08 8.7317621848048545e-07 0.0000000000000000e+00  -5.8426732623627721e-08 7.2597232033153651e-07 0.0000000000000000e+00  1.1936005790266017e-07 8.3775847663082671e-07 0.0000000000000000e+00  -1.0433441986237814e-07 8.6201325190396379e-07 0.0000000000000000e+00  8.6553819787681270e-08 8.4880756621092597e-07 0.0000000000000000e+00  -1.2894364989280760e-07 7.8681496126244097e-07 0.0000000000000000e+00  4.4241995384544079e-08 6.4871463318837321e-07 0.0000000000000000e+00  5.2798224611970994e-09 7.5932227184842915e-07 0.0000000000000000e+00  1.0350838804296223e-09 7.6651391438256503e-07 0.0000000000000000e+00  -5.7876063182665406e-09 7.6102604881488820e-07 0.0000000000000000e+00  1.0518526408722425e-09 7.5520148365739748e-07 0.0000000000000000e+00  -6.8705243520477540e-10 7.5653685697749693e-07 0.0000000000000000e+00  5.7608643753692986e-09 7.6185886806945135e-07 0.0000000000000000e+00  2.5609492570497269e-08 7.9869449292338757e-07 0.0000000000000000e+00  -9.0191976443639657e-09 8.2895816054698325e-07 0.0000000000000000e+00  -7.0281928626119896e-08 7.0417899951951222e-07 0.0000000000000000e+00  5.3792491180221391e-08 7.0807262872809138e-07 0.0000000000000000e+00  2.1568869848953357e-10 7.5792790135479359e-07 0.0000000000000000e+00  3.0840567190837604e-08 7.8642752429318140e-07 0.0000000000000000e+00  -1.4045786743753224e-09 8.3986913214229036e-07 0.0000000000000000e+00  -1.9296816945348920e-08 8.0602748350053914e-07 0.0000000000000000e+00  -9.9497073962654143e-09 7.7148381457035481e-07 0.0000000000000000e+00  -4.0277139091802687e-08 7.0070178380705800e-07 0.0000000000000000e+00  1.0978385870808443e-07 8.0190654226052120e-07 0.000