<?xml version="1.0"?>
<VTKFile type="UnstructuredGrid"  version="0.1"  >
<UnstructuredGrid>
<Piece  NumberOfPoints="11902" NumberOfCells="23402">
<Points>
<DataArray  type="Float64"  NumberOfComponents="3"  format="ascii">-5 -5 0  5 -5 0  5 5 0  -5 5 0  1.202272924610971 0.001300049928576352 0  -4.9 -5 0  -4.8 -5 0  -4.7 -5 0  -4.6 -5 0  -4.5 -5 0  -4.4 -5 0  -4.3 -5 0  -4.2 -5 0  -4.1 -5 0  -4 -5 0  -3.9 -5 0  -3.8 -5 0  -3.7 -5 0  -3.6 -5 0  -3.5 -5 0  -3.4 -5 0  -3.3 -5 0  -3.2 -5 0  -3.1 -5 0  -3 -5 0  -2.9 -5 0  -2.8 -5 0  -2.7 -5 0  -2.6 -5 0  -2.5 -5 0  -2.4 -5 0  -2.3 -5 0  -2.2 -5 0  -2.1 -5 0  -2 -5 0  -1.9 -5 0  -1.8 -5 0  -1.7 -5 0  -1.6 -5 0  -1.5 -5 0  -1.4 -5 0  -1.3 -5 0  -1.2 -5 0  -1.1 -5 0  -1 -5 0  -0.9000000000000004 -5 0  -0.7999999999999998 -5 0  -0.7000000000000002 -5 0  -0.5999999999999996 -5 0  -0.5 -5 0  -0.4000000000000004 -5 0  -0.2999999999999998 -5 0  -0.2000000000000002 -5 0  -0.09999999999999964 -5 0  0 -5 0  0.09999999999999964 -5 0  0.2000000000000002 -5 0  0.2999999999999998 -5 0  0.4000000000000004 -5 0  0.5 -5 0  0.5999999999999996 -5 0  0.7000000000000002 -5 0  0.7999999999999998 -5 0  0.9000000000000004 -5 0  1 -5 0  1.1 -5 0  1.2 -5 0  1.3 -5 0  1.4 -5 0  1.5 -5 0  1.6 -5 0  1.7 -5 0  1.8 -5 0  1.9 -5 0  2 -5 0  2.1 -5 0  2.2 -5 0  2.3 -5 0  2.4 -5 0  2.5 -5 0  2.6 -5 0  2.7 -5 0  2.8 -5 0  2.9 -5 0  3 -5 0  3.1 -5 0  3.199999999999999 -5 0  3.300000000000001 -5 0  3.4 -5 0  3.5 -5 0  3.6 -5 0  3.699999999999999 -5 0  3.800000000000001 -5 0  3.9 -5 0  4 -5 0  4.1 -5 0  4.199999999999999 -5 0  4.300000000000001 -5 0  4.4 -5 0  4.5 -5 0  4.6 -5 0  4.699999999999999 -5 0  4.800000000000001 -5 0  4.9 -5 0  5 -4.9 0  5 -4.8 0  5 -4.7 0  5 -4.6 0  5 -4.5 0  5 -4.4 0  5 -4.3 0  5 -4.2 0  5 -4.1 0  5 -4 0  5 -3.9 0  5 -3.8 0  5 -3.7 0  5 -3.6 0  5 -3.5 0  5 -3.4 0  5 -3.3 0  5 -3.2 0  5 -3.1 0  5 -3 0  5 -2.9 0  5 -2.8 0  5 -2.7 0  5 -2.6 0  5 -2.5 0  5 -2.4 0  5 -2.3 0  5 -2.2 0  5 -2.1 0  5 -2 0  5 -1.9 0  5 -1.8 0  5 -1.7 0  5 -1.6 0  5 -1.5 0  5 -1.4 0  5 -1.3 0  5 -1.2 0  5 -1.1 0  5 -1 0  5 -0.9000000000000004 0  5 -0.7999999999999998 0  5 -0.7000000000000002 0  5 -0.5999999999999996 0  5 -0.5 0  5 -0.4000000000000004 0  5 -0.2999999999999998 0  5 -0.2000000000000002 0  5 -0.09999999999999964 0  5 0 0  5 0.09999999999999964 0  5 0.2000000000000002 0  5 0.2999999999999998 0  5 0.4000000000000004 0  5 0.5 0  5 0.5999999999999996 0  5 0.7000000000000002 0  5 0.7999999999999998 0  5 0.9000000000000004 0  5 1 0  5 1.1 0  5 1.2 0  5 1.3 0  5 1.4 0  5 1.5 0  5 1.6 0  5 1.7 0  5 1.8 0  5 1.9 0  5 2 0  5 2.1 0  5 2.2 0  5 2.3 0  5 2.4 0  5 2.5 0  5 2.6 0  5 2.7 0  5 2.8 0  5 2.9 0  5 3 0  5 3.1 0  5 3.199999999999999 0  5 3.300000000000001 0  5 3.4 0  5 3.5 0  5 3.6 0  5 3.699999999999999 0  5 3.800000000000001 0  5 3.9 0  5 4 0  5 4.1 0  5 4.199999999999999 0  5 4.300000000000001 0  5 4.4 0  5 4.5 0  5 4.6 0  5 4.699999999999999 0  5 4.800000000000001 0  5 4.9 0  4.9 5 0  4.8 5 0  4.7 5 0  4.6 5 0  4.5 5 0  4.4 5 0  4.3 5 0  4.2 5 0  4.1 5 0  4 5 0  3.9 5 0  3.8 5 0  3.7 5 0  3.6 5 0  3.5 5 0  3.4 5 0  3.3 5 0  3.2 5 0  3.1 5 0  3 5 0  2.9 5 0  2.8 5 0  2.7 5 0  2.6 5 0  2.5 5 0  2.4 5 0  2.3 5 0  2.2 5 0  2.1 5 0  2 5 0  1.9 5 0  1.8 5 0  1.7 5 0  1.6 5 0  1.5 5 0  1.4 5 0  1.3 5 0  1.2 5 0  1.1 5 0  1 5 0  0.9000000000000004 5 0  0.7999999999999998 5 0  0.7000000000000002 5 0  0.5999999999999996 5 0  0.5 5 0  0.4000000000000004 5 0  0.2999999999999998 5 0  0.2000000000000002 5 0  0.09999999999999964 5 0  0 5 0  -0.09999999999999964 5 0  -0.2000000000000002 5 0  -0.2999999999999998 5 0  -0.4000000000000004 5 0  -0.5 5 0  -0.5999999999999996 5 0  -0.7000000000000002 5 0  -0.7999999999999998 5 0  -0.9000000000000004 5 0  -1 5 0  -1.1 5 0  -1.2 5 0  -1.3 5 0  -1.4 5 0  -1.5 5 0  -1.6 5 0  -1.7 5 0  -1.8 5 0  -1.9 5 0  -2 5 0  -2.1 5 0  -2.2 5 0  -2.3 5 0  -2.4 5 0  -2.5 5 0  -2.6 5 0  -2.7 5 0  -2.8 5 0  -2.9 5 0  -3 5 0  -3.1 5 0  -3.199999999999999 5 0  -3.300000000000001 5 0  -3.4 5 0  -3.5 5 0  -3.6 5 0  -3.699999999999999 5 0  -3.800000000000001 5 0  -3.9 5 0  -4 5 0  -4.1 5 0  -4.199999999999999 5 0  -4.300000000000001 5 0  -4.4 5 0  -4.5 5 0  -4.6 5 0  -4.699999999999999 5 0  -4.800000000000001 5 0  -4.9 5 0  -5 4.9 0  -5 4.8 0  -5 4.7 0  -5 4.6 0  -5 4.5 0  -5 4.4 0  -5 4.3 0  -5 4.2 0  -5 4.1 0  -5 4 0  -5 3.9 0  -5 3.8 0  -5 3.7 0  -5 3.6 0  -5 3.5 0  -5 3.4 0  -5 3.3 0  -5 3.2 0  -5 3.1 0  -5 3 0  -5 2.9 0  -5 2.8 0  -5 2.7 0  -5 2.6 0  -5 2.5 0  -5 2.4 0  -5 2.3 0  -5 2.2 0  -5 2.1 0  -5 2 0  -5 1.9 0  -5 1.8 0  -5 1.7 0  -5 1.6 0  -5 1.5 0  -5 1.4 0  -5 1.3 0  -5 1.2 0  -5 1.1 0  -5 1 0  -5 0.9000000000000004 0  -5 0.7999999999999998 0  -5 0.7000000000000002 0  -5 0.5999999999999996 0  -5 0.5 0  -5 0.4000000000000004 0  -5 0.2999999999999998 0  -5 0.2000000000000002 0  -5 0.09999999999999964 0  -5 0 0  -5 -0.09999999999999964 0  -5 -0.2000000000000002 0  -5 -0.2999999999999998 0  -5 -0.4000000000000004 0  -5 -0.5 0  -5 -0.5999999999999996 0  -5 -0.7000000000000002 0  -5 -0.7999999999999998 0  -5 -0.9000000000000004 0  -5 -1 0  -5 -1.1 0  -5 -1.2 0  -5 -1.3 0  -5 -1.4 0  -5 -1.5 0  -5 -1.6 0  -5 -1.7 0  -5 -1.8 0  -5 -1.9 0  -5 -2 0  -5 -2.1 0  -5 -2.2 0  -5 -2.3 0  -5 -2.4 0  -5 -2.5 0  -5 -2.6 0  -5 -2.7 0  -5 -2.8 0  -5 -2.9 0  -5 -3 0  -5 -3.1 0  -5 -3.199999999999999 0  -5 -3.300000000000001 0  -5 -3.4 0  -5 -3.5 0  -5 -3.6 0  -5 -3.699999999999999 0  -5 -3.800000000000001 0  -5 -3.9 0  -5 -4 0  -5 -4.1 0  -5 -4.199999999999999 0  -5 -4.300000000000001 0  -5 -4.4 0  -5 -4.5 0  -5 -4.6 0  -5 -4.699999999999999 0  -5 -4.800000000000001 0  -5 -4.9 0  1.196248334014039 0.09896643880515452 0  1.17740356882585 0.197052208595195 0  1.145923097166537 0.2942529881998562 0  1.105224124539492 0.3856389430028934 0  1.052252671780834 0.4762870026485999 0  0.989931924238844 0.5613621009851052 0  0.9166488849703541 0.6411322544533896 0  0.8341195407112713 0.7139772615683422 0  0.7445787144544702 0.7796173662980601 0  0.6467580574506546 0.8380920018817011 0  0.5418053662431944 0.8890295653041062 0  0.4327903518664024 0.9310045460547515 0  0.3214762780857218 0.9638356915886466 0  0.204413259083673 0.9862192291272017 0  0.08862886532484709 1.001027167760908 0  -0.0277135208767205 1.003817888195451 0  -0.1442743397407625 0.9938891263830709 0  -0.2624785949130814 0.9761554519404936 0  -0.3772343475190323 0.9500575113298475 0  -0.4867450096901691 0.9135580818160004 0  -0.591597993054444 0.8679317285442505 0  -0.6913458436707605 0.8132152717920217 0  -0.7839124408662971 0.7502190954523129 0  -0.8700738604483867 0.6795829692790141 0  -0.9489839671005996 0.6014439196106502 0  -1.017466708135825 0.5190956340045396 0  -1.076375761820787 0.4322340341042086 0  -1.123990079248989 0.340185832313918 0  -1.159669952892977 0.2462624571722223 0  -1.183618489025889 0.1498242235118389 0  -1.195744428296601 0.05076862345050352 0  -1.19573568681006 -0.04897474915252861 0  -1.183543307682511 -0.1476839103696058 0  -1.1604297591694 -0.2441118593018824 0  -1.123410592338875 -0.3398477686133183 0  -1.076727871530747 -0.4310543333723509 0  -1.018482844709045 -0.5182151248360855 0  -0.950555439068981 -0.6001063220790082 0  -0.8719936022754404 -0.6770555507887882 0  -0.7854621867581503 -0.7466441169857594 0  -0.6915493591795699 -0.8078984249000692 0  -0.5917654292020696 -0.8621788717847454 0  -0.4839137698479924 -0.90913763196328 0  -0.3737923998888164 -0.9472313069905528 0  -0.259564347315698 -0.9748508255149865 0  -0.1428793963882257 -0.9930059503364871 0  -0.02736964665689938 -1.002926873687184 0  0.08923403552514692 -0.998380485555832 0  0.207416220854121 -0.9838799961788934 0  0.323155019836065 -0.9621655078640815 0  0.4362469099848134 -0.9295814079980609 0  0.543525392628753 -0.8880760012231412 0  0.6474971765508726 -0.837723280927288 0  0.7447401018424157 -0.7806208319357562 0  0.8341772764470612 -0.7147132835630463 0  0.9161387742886248 -0.6405881687003461 0  0.9884470052959146 -0.5607096348522056 0  1.052094421284342 -0.475706627700409 0  1.106246921246637 -0.385701493639338 0  1.147367718852719 -0.292754417388685 0  1.17768002484956 -0.1962097956882516 0  1.196274896450326 -0.09849962143853484 0  -2.448769043741228 4.91849589060508 0  -2.448662091106004 -4.910908899319815 0  4.91084263758738 2.448190274115867 0  4.918930317408759 -2.449625037952363 0  2.446428602311288 -4.896212490406465 0  2.440853652609123 4.899959627860738 0  -4.910866381221408 -2.448213538933861 0  -4.9108645813173 2.448217416394609 0  -1.748731261465042 4.911553701449636 0  -1.744508780853354 -4.914973580705353 0  4.921131178395308 1.744337283884617 0  4.909735015967038 -1.748137513776954 0  -4.910022797741208 -1.747867317603657 0  -4.910840933037998 1.747609041698458 0  1.746017605769604 4.905450894915475 0  1.747458069708306 -4.893665702908835 0  -1.148998617047688 4.909452549095728 0  -1.129838712412798 -4.917314076390999 0  -4.909885203168292 -1.14814263439895 0  -4.909705744056639 1.147942797826741 0  1.143982957044408 -4.913524744179794 0  1.149006393755121 4.909440940592423 0  4.910030955751537 1.146419741002388 0  4.920777813104976 -1.152176719149639 0  -0.5467512448128128 -4.910698815700968 0  -0.54652477040571 4.919320272863517 0  -4.908734347946802 -0.548827997041333 0  -4.908758735528601 0.5473843711361061 0  4.908067132642747 -0.5491485442181576 0  4.919622750008204 0.5458896699658268 0  0.5425410572459575 -4.897676127945853 0  0.5512551172905105 4.9161669159753 0  -4.912158956698945 -3.048520920434418 0  4.918712376291258 3.046522284767554 0  4.91166968137841 -3.048500210001388 0  -4.913005471099459 3.045610589738931 0  3.055473195578215 -4.917648113322575 0  -3.048816582241439 -4.911602196261474 0  3.052379989329843 4.91367482491904 0  -3.048261399046519 4.912489426268751 0  -4.907886070522648 -0.04991961561700455 0  0.04512516662308907 -4.912654716156079 0  0.04957299442817355 4.919629656116495 0  4.914885008401227 -0.05130097517953997 0  3.545754875296464 -4.91921215469016 0  -3.549047699358658 4.9121264927166
[...]
<PointData  Vectors="f_2392"> 
<DataArray  type="Float64"  Name="f_2392"  NumberOfComponents="3" format="ascii">-4.5504184067608029e-07 -4.5506027763364470e-07 0.0000000000000000e+00  4.5503944503435606e-07 -4.5505846514898477e-07 0.0000000000000000e+00  5.0299514453453598e-07 5.0300861408696530e-07 0.0000000000000000e+00  -4.5504127817484365e-07 4.5505948165570490e-07 0.0000000000000000e+00  -3.8685428979733427e-01 -7.4053766764157437e-03 0.0000000000000000e+00  9.1237825747955146e-08 -9.0581744217958499e-07 0.0000000000000000e+00  -1.0650781719203067e-07 -8.5967738505068054e-07 0.0000000000000000e+00  1.0482697544229959e-07 -8.7266596321468411e-07 0.0000000000000000e+00  -9.1307925650344994e-08 -8.8001567891668548e-07 0.0000000000000000e+00  -2.1142151267662686e-08 -9.0391501641452033e-07 0.0000000000000000e+00  3.5953959255610895e-08 -1.0606905737766920e-06 0.0000000000000000e+00  6.1241027134773005e-09 -9.3568435650413685e-07 0.0000000000000000e+00  7.3528472632902608e-08 -7.7834671230251513e-07 0.0000000000000000e+00  -1.0496332626113311e-07 -8.4379376108649667e-07 0.0000000000000000e+00  1.2033225342214765e-07 -8.2438687498009211e-07 0.0000000000000000e+00  -2.6530353114225592e-08 -6.7917583636255743e-07 0.0000000000000000e+00  -5.2946876574822450e-09 -7.5094435137657489e-07 0.0000000000000000e+00  -1.2919075928391592e-08 -7.6514625123374800e-07 0.0000000000000000e+00  1.0448707831565661e-08 -7.7387840638136762e-07 0.0000000000000000e+00  3.8175896433634842e-10 -7.5805922536758646e-07 0.0000000000000000e+00  3.9274912842854995e-10 -7.5719076825200628e-07 0.0000000000000000e+00  5.0603792957001416e-08 -7.2316590606218620e-07 0.0000000000000000e+00  -4.4461981454130523e-08 -6.8447765094659108e-07 0.0000000000000000e+00  4.1357246784930672e-10 -7.5449024565832101e-07 0.0000000000000000e+00  4.0005689873935697e-08 -6.5775599913235051e-07 0.0000000000000000e+00  -1.2839088021416007e-07 -8.0204325752218100e-07 0.0000000000000000e+00  9.7431223020755678e-08 -8.4452768401788793e-07 0.0000000000000000e+00  -9.4171962168228974e-08 -8.4336956646279210e-07 0.0000000000000000e+00  1.2513969769111735e-07 -7.9427202153918581e-07 0.0000000000000000e+00  -3.7792598718393336e-08 -6.4218907776471770e-07 0.0000000000000000e+00  4.4071884068748584e-10 -7.4777340216928381e-07 0.0000000000000000e+00  3.5697990087146452e-08 -6.7985329314639622e-07 0.0000000000000000e+00  -1.2110186197324268e-07 -8.0388348834783987e-07 0.0000000000000000e+00  1.0037421744901395e-07 -8.3859836066033406e-07 0.0000000000000000e+00  -9.4852063767279394e-08 -8.5844274542669926e-07 0.0000000000000000e+00  1.1613898983398516e-09 -8.5990268970547440e-07 0.0000000000000000e+00  6.7939882809583192e-08 -9.6527648915590366e-07 0.0000000000000000e+00  1.1566082246442243e-08 -7.8327678198378296e-07 0.0000000000000000e+00  8.0305290857650634e-09 -7.5458054298911614e-07 0.0000000000000000e+00  7.1558937293696917e-10 -7.3977520685449059e-07 0.0000000000000000e+00  1.0029163613164953e-08 -7.1749299619009242e-07 0.0000000000000000e+00  4.0687339147967508e-08 -6.2933826092758868e-07 0.0000000000000000e+00  -7.9912302008355310e-08 -6.6977804280007418e-07 0.0000000000000000e+00  -8.9111488629380876e-08 -9.5230170579221267e-07 0.0000000000000000e+00  9.8038404548294357e-08 -9.4924372804739802e-07 0.0000000000000000e+00  5.2338181260678754e-08 -6.9193913390520258e-07 0.0000000000000000e+00  -9.5527892299263820e-08 -8.1502126034292803e-07 0.0000000000000000e+00  -1.0644092101660010e-08 -7.4230821976560442e-07 0.0000000000000000e+00  5.8132783029969815e-08 -9.0246355861997770e-07 0.0000000000000000e+00  1.8933320749449879e-09 -7.4780083679163194e-07 0.0000000000000000e+00  4.6049086844380819e-09 -7.4494713538605225e-07 0.0000000000000000e+00  1.0449376772895863e-10 -7.3258367144483623e-07 0.0000000000000000e+00  -3.5066322797076117e-10 -7.3339851942977379e-07 0.0000000000000000e+00  -1.8525129435842610e-09 -7.3775054138027851e-07 0.0000000000000000e+00  -1.2200344462791162e-08 -7.6624125936941650e-07 0.0000000000000000e+00  -7.2722580070351401e-08 -9.4869802811457948e-07 0.0000000000000000e+00  7.7313360848208266e-09 -8.2242034443249190e-07 0.0000000000000000e+00  9.1606655529703965e-08 -8.1394539886984205e-07 0.0000000000000000e+00  -1.0604006182337052e-07 -8.0666895425628356e-07 0.0000000000000000e+00  1.1977508045527383e-07 -7.8938406108541873e-07 0.0000000000000000e+00  -2.7997261107942335e-08 -6.5435919073471057e-07 0.0000000000000000e+00  -9.4615115360875314e-09 -7.3023545224200946e-07 0.0000000000000000e+00  -6.7323983459433151e-09 -7.4159800133574297e-07 0.0000000000000000e+00  5.1533796585551380e-09 -7.4324452276097342e-07 0.0000000000000000e+00  -5.2037646185353433e-09 -7.4650942690661659e-07 0.0000000000000000e+00  -1.0168062997244184e-08 -7.7687185859033899e-07 0.0000000000000000e+00  4.7515185966969525e-08 -7.0537958272712929e-07 0.0000000000000000e+00  -8.6966394931981973e-08 -7.5430961510865841e-07 0.0000000000000000e+00  1.2950909440882749e-08 -8.6499589435750424e-07 0.0000000000000000e+00  5.7980961841351036e-09 -8.2894664782602138e-07 0.0000000000000000e+00  1.5552781460298383e-08 -8.2192852635568168e-07 0.0000000000000000e+00  7.2548971596791116e-08 -6.8159407721247914e-07 0.0000000000000000e+00  -6.8422398334366193e-08 -6.7962100577253289e-07 0.0000000000000000e+00  -1.4745871288834053e-08 -8.0381747457281376e-07 0.0000000000000000e+00  2.7488987075837528e-08 -7.8520620324490112e-07 0.0000000000000000e+00  1.6957537937298734e-09 -7.5156718426347246e-07 0.0000000000000000e+00  -1.7457816240926787e-11 -7.4684584681741968e-07 0.0000000000000000e+00  -5.7178070910287912e-09 -7.7048357157157919e-07 0.0000000000000000e+00  5.3482127225457843e-08 -6.8372647210203910e-07 0.0000000000000000e+00  -3.3522319051145272e-08 -6.5619357534420767e-07 0.0000000000000000e+00  -1.6693119475591858e-08 -7.4313353315262911e-07 0.0000000000000000e+00  -4.3805379612853681e-08 -8.0306445988213243e-07 0.0000000000000000e+00  -6.3777000321979487e-09 -8.7490107307196980e-07 0.0000000000000000e+00  8.5703031396230594e-08 -7.4241717418310366e-07 0.0000000000000000e+00  -6.2481790387307240e-08 -7.1405043454798379e-07 0.0000000000000000e+00  -4.8837100738015434e-09 -8.2587186581851759e-07 0.0000000000000000e+00  4.1379733049069838e-08 -7.8374539058194691e-07 0.0000000000000000e+00  -1.9116258202095450e-08 -7.5434377358107052e-07 0.0000000000000000e+00  -2.5435678680698110e-08 -7.9296452863366253e-07 0.0000000000000000e+00  2.8927107692356495e-09 -8.4890238785230542e-07 0.0000000000000000e+00  7.4931922299073762e-08 -7.1348962790545417e-07 0.0000000000000000e+00  -7.3183813586754055e-08 -7.1187627674032208e-07 0.0000000000000000e+00  -8.2415407802226421e-09 -8.4255299865271687e-07 0.0000000000000000e+00  3.3227581497004047e-08 -8.0800591531781978e-07 0.0000000000000000e+00  1.5930332154254597e-08 -7.4396136022560109e-07 0.0000000000000000e+00  -1.2479239689216054e-08 -7.3891028908730991e-07 0.0000000000000000e+00  -7.0013140069458275e-09 -7.7616198813007932e-07 0.0000000000000000e+00  5.2159539873654856e-08 -6.9499440218795771e-07 0.0000000000000000e+00  -6.5874474841721121e-08 -7.0775935760871989e-07 0.0000000000000000e+00  -1.8756246510536488e-08 -8.3935995590870675e-07 0.0000000000000000e+00  2.8342295285902539e-08 -8.1746751645676200e-07 0.0000000000000000e+00  3.2542899517025821e-09 -7.7967616073201937e-07 0.0000000000000000e+00  -6.8000650623980111e-09 -7.9399478953751672e-07 0.0000000000000000e+00  -6.0272442388332274e-08 -9.4790540781011193e-07 0.0000000000000000e+00  8.9087915050854310e-07 8.8271278691224426e-08 0.0000000000000000e+00  8.8491379134215222e-07 -1.2414805126926032e-07 0.0000000000000000e+00  9.1651039142990642e-07 1.1037021224535535e-07 0.0000000000000000e+00  7.5610055061575138e-07 -2.4990690259396987e-08 0.0000000000000000e+00  8.0101581124194904e-07 1.6848682280977166e-08 0.0000000000000000e+00  7.7910731126053943e-07 5.4551549714314296e-10 0.0000000000000000e+00  7.7841379742277553e-07 -1.8691025947114419e-10 0.0000000000000000e+00  7.7806211813954860e-07 8.0684069642825634e-10 0.0000000000000000e+00  7.8203125516271764e-07 -6.3760432093313029e-09 0.0000000000000000e+00  7.9049095401266558e-07 3.8402762752309769e-09 0.0000000000000000e+00  7.9338569124339807e-07 -6.7346214002617552e-09 0.0000000000000000e+00  7.9160156342725657e-07 1.1939066218968591e-08 0.0000000000000000e+00  7.8389918073765104e-07 -1.2802121912367431e-08 0.0000000000000000e+00  7.8400964916432967e-07 9.1625521545309474e-09 0.0000000000000000e+00  7.9811524693938407e-07 -1.4167787410898693e-08 0.0000000000000000e+00  7.8664426207702416e-07 2.2971677368165195e-08 0.0000000000000000e+00  7.6945817552486471e-07 -3.4093680193183722e-09 0.0000000000000000e+00  7.7823547557243043e-07 -1.1146362399612333e-08 0.0000000000000000e+00  7.6760636051948367e-07 1.6346600767067914e-08 0.0000000000000000e+00  7.7262504972276892e-07 -1.8020222504412153e-08 0.0000000000000000e+00  7.9191487850254694e-07 6.1789718110057170e-09 0.0000000000000000e+00  7.6682787509629432e-07 1.3449138447799109e-08 0.0000000000000000e+00  7.9880646388121668e-07 -3.1916218544512618e-08 0.0000000000000000e+00  8.3203419564300494e-07 -8.1392901485071474e-09 0.0000000000000000e+00  8.2966974788673997e-07 9.0516240762195780e-09 0.0000000000000000e+00  7.9029079665258949e-07 2.1579841442150104e-08 0.0000000000000000e+00  7.5816863609432288e-07 1.0910057071153181e-08 0.0000000000000000e+00  7.4458626493080691e-07 5.8365048790715205e-10 0.0000000000000000e+00  7.4327428211372014e-07 6.0327215655985533e-10 0.0000000000000000e+00  7.4195100139363726e-07 6.0581542127052890e-10 0.0000000000000000e+00  7.4066374536020208e-07 6.0374462821275301e-10 0.0000000000000000e+00  7.3934540565692923e-07 6.1675131277145025e-10 0.0000000000000000e+00  7.4882089091482534e-07 -1.1166426397005738e-08 0.0000000000000000e+00  7.6232320515112475e-07 1.7373573938341187e-09 0.0000000000000000e+00  7.4945080565037915e-07 1.1364748741212044e-08 0.0000000000000000e+00  7.8044365515505133e-07 -3.0629686718765983e-08 0.0000000000000000e+00  8.1238912290677416e-07 -9.7231590420698317e-09 0.0000000000000000e+00  8.3984878930349280e-07 -5.9516694830086165e-09 0.0000000000000000e+00  8.3800162296839299e-07 1.8079869679081840e-08 0.0000000000000000e+00  7.2195698240493728e-07 6.5563546006711212e-10 0.0000000000000000e+00  8.0776494551959798e-07 3.4350158350481776e-08 0.0000000000000000e+00  7.3070150858527988e-07 -9.2170363222250120e-10 0.0000000000000000e+00  7.2659945826954833e-07 1.6966572325489435e-09 0.0000000000000000e+00  7.2604350540507113e-07 3.4030502592795282e-10 0.0000000000000000e+00  7.7962509007424220e-07 -3.0138463308924364e-08 0.0000000000000000e+00  7.8918008416670844e-07 -9.1306888631617092e-09 0.0000000000000000e+00  8.1085860770247547e-07 -1.5758802178343501e-09 0.0000000000000000e+00  8.0174745182416280e-07 7.0422367655263022e-09 0.0000000000000000e+00  7.9790402876406334e-07 6.6715531125644996e-09 0.0000000000000000e+00  7.9654982324761347e-07 -1.4670292590538624e-08 0.0000000000000000e+00  8.2659143732348317e-07 -2.0918900698442866e-09 0.0000000000000000e+00  8.3576065902547475e-07 -1.7576778469033789e-09 0.0000000000000000e+00  8.1610208459000667e-07 5.0921769874322119e-10 0.0000000000000000e+00  8.3035182487895547e-07 4.5289891466541597e-10 0.0000000000000000e+00  8.3688137929057962e-07 -1.4766742146085449e-09 0.0000000000000000e+00  8.1746305603339113e-07 3.5136033221832256e-10 0.0000000000000000e+00  8.2906633701950325e-07 1.3359033672856075e-09 0.0000000000000000e+00  8.2415868477489944e-07 2.5988670300500320e-09 0.0000000000000000e+00  7.8242355685689677e-07 2.4583375042566462e-08 0.0000000000000000e+00  7.6111242437315716e-07 -1.5228791098795402e-10 0.0000000000000000e+00  7.5822313752478008e-07 8.6808262458480051e-09 0.0000000000000000e+00  7.5609916466872255e-07 -1.2095794731122046e-08 0.0000000000000000e+00  7.6248940105421338e-07 -3.6832785030722134e-10 0.0000000000000000e+00  7.7562953022580131e-07 -1.7517379462623014e-10 0.0000000000000000e+00  7.9507937184566059e-07 -2.4133497548764454e-08 0.0000000000000000e+00  8.3702359941455618e-07 -4.0102077426301583e-09 0.0000000000000000e+00  8.5144987933136564e-07 -2.9910010323300106e-09 0.0000000000000000e+00  8.3360219880884836e-07 -2.1132849134499240e-10 0.0000000000000000e+00  8.4563802979166864e-07 3.2412982254042732e-09 0.0000000000000000e+00  8.2116653329867378e-07 1.2157149415252508e-08 0.0000000000000000e+00  7.7272427497679415e-07 2.2479260712898017e-08 0.0000000000000000e+00  7.4824935150398838e-07 3.9096280275878239e-09 0.0000000000000000e+00  7.4582785938539445e-07 -5.7060749517613867e-10 0.0000000000000000e+00  7.4704475218831187e-07 -5.4199737186691403e-10 0.0000000000000000e+00  7.5074522965065209e-07 -1.5929906396614907e-09 0.0000000000000000e+00  7.5864094706019537e-07 -4.9211093101250927e-09 0.0000000000000000e+00  7.7984340411093393e-07 -1.0609296744654829e-08 0.0000000000000000e+00  8.1246553664139831e-07 -2.3808526705077901e-08 0.0000000000000000e+00  8.5216050498780554e-07 -1.1440143272383923e-09 0.0000000000000000e+00  8.3250770604720533e-07 1.1315347152806313e-08 0.0000000000000000e+00  8.0507957896342910e-07 1.4798522172246782e-08 0.0000000000000000e+00  7.9911086930535457e-07 -8.1348224336914330e-09 0.0000000000000000e+00  8.1829296892182360e-07 -1.9230231978260623e-08 0.0000000000000000e+00  8.5312960107608330e-07 1.0602229469884422e-10 0.0000000000000000e+00  8.3799347745615521e-07 1.0638467401400118e-08 0.0000000000000000e+00  8.1044864991693315e-07 8.6884695404691834e-09 0.0000000000000000e+00  7.7996230639722034e-07 1.8314990195815812e-08 0.0000000000000000e+00  7.7093793426432401e-07 -8.1145263734620059e-09 0.0000000000000000e+00  7.7027765147397305e-07 7.4038098946456486e-09 0.0000000000000000e+00  7.6282793137146113e-07 -3.2558861897286002e-10 0.0000000000000000e+00  7.6355958418546455e-07 -3.1571910470574028e-10 0.0000000000000000e+00  7.7726671266944879e-07 -1.1462107135797902e-08 0.0000000000000000e+00  7.7781571217328708e-07 1.0856807954220034e-08 0.0000000000000000e+00  7.6838870918690347e-07 -2.5853115758617643e-09 0.0000000000000000e+00  7.9930051927985354e-07 -1.2121646861125637e-08 0.0000000000000000e+00  8.1366198373156752e-07 -7.0559446387370792e-09 0.0000000000000000e+00  8.2260153101484797e-07 -1.7275003524588348e-08 0.0000000000000000e+00  8.4592337284183206e-07 -3.8119804936972974e-09 0.0000000000000000e+00  1.0389535461802659e-06 -6.0245717610679575e-08 0.0000000000000000e+00  -1.0914904509081953e-07 9.7249894039838096e-07 0.0000000000000000e+00  5.6924572721792480e-08 8.2944747130747464e-07 0.0000000000000000e+00  9.6636605209055530e-10 9.4554674708267131e-07 0.0000000000000000e+00  3.4424145935426620e-08 1.0609233908296893e-06 0.0000000000000000e+00  -1.8734688887661698e-08 9.0012268536114985e-07 0.0000000000000000e+00  -8.8602157800291898e-08 8.9354986275225529e-07 0.0000000000000000e+00  1.3324061218431087e-07 9.1810000048619029e-07 0.0000000000000000e+00  -1.4574041814508913e-07 9.2381856227922298e-07 0.0000000000000000e+00  1.1866735260504111e-08 7.0536532409962637e-07 0.0000000000000000e+00  7.6504689748628676e-09 7.6036874920783805e-07 0.0000000000000000e+00  -1.2301221904141450e-08 7.7627266771355341e-07 0.0000000000000000e+00  -1.1712582294312807e-08 7.5020351358912980e-07 0.0000000000000000e+00  -3.3905415402136047e-08 6.6040534595277619e-07 0.0000000000000000e+00  5.6600579996533151e-08 6.9328263931730830e-07 0.0000000000000000e+00  9.5344980910348307e-10 7.8886840068366953e-07 0.0000000000000000e+00  -1.9269547150265482e-09 7.7872617376663038e-07 0.0000000000000000e+00  -1.5716249288791420e-09 7.7239855410748886e-07 0.0000000000000000e+00  2.0381426097578102e-09 7.7518964032680502e-07 0.0000000000000000e+00  -1.4035064000520317e-09 7.8507303194116437e-07 0.0000000000000000e+00  -5.6591330687479799e-08 6.9240129343445756e-07 0.0000000000000000e+00  4.2216386855835826e-08 6.7315908466982930e-07 0.0000000000000000e+00  -3.9346200902330829e-09 7.4330443244402042e-07 0.0000000000000000e+00  9.0467801960367338e-09 7.4835491416968996e-07 0.0000000000000000e+00  -9.1480284623777556e-09 7.4498307274883151e-07 0.0000000000000000e+00  -2.7961255917748174e-08 6.6839887206856103e-07 0.0000000000000000e+00  1.1953576931030928e-07 8.0432626104464609e-07 0.0000000000000000e+00  -1.0528452651379182e-07 8.2827923449706141e-07 0.0000000000000000e+00  7.3648536869113678e-08 7.6026798909804700e-07 0.0000000000000000e+00  4.1853058200249861e-09 9.1447856758532662e-07 0.0000000000000000e+00  3.5074326070541888e-08 1.0302155994371283e-06 0.0000000000000000e+00  -2.3506671648174729e-08 8.7631512132239131e-07 0.0000000000000000e+00  -9.2657099246858484e-08 8.4929603944262426e-07 0.0000000000000000e+00  9.5863375096609746e-08 8.3032468329690822e-07 0.0000000000000000e+00  -1.2897035184289183e-07 7.8667027560579307e-07 0.0000000000000000e+00  4.1993604688093427e-08 6.5246243165503057e-07 0.0000000000000000e+00  -1.0588651022001278e-08 7.2303535541512622e-07 0.0000000000000000e+00  1.3426055025542191e-08 7.3182758903999366e-07 0.0000000000000000e+00  -3.7224962527394753e-09 7.4240495026545307e-07 0.0000000000000000e+00  -3.1192667706470149e-10 7.3608156286178960e-07 0.0000000000000000e+00  -2.9448783971726489e-10 7.3542804573094143e-07 0.0000000000000000e+00  -5.1368712405458263e-08 7.0572964876114905e-07 0.0000000000000000e+00  4.4406398887685945e-08 6.6182118832257995e-07 0.0000000000000000e+00  -1.5656722241909900e-09 7.4075995757012694e-07 0.0000000000000000e+00  2.8267231363727953e-08 7.6135806076326460e-07 0.0000000000000000e+00  -9.9511434510081689e-09 8.0303565489120660e-07 0.0000000000000000e+00  -7.1045191271066389e-08 6.7140696839134268e-07 0.0000000000000000e+00  6.8361189551272425e-08 6.6796993040753061e-07 0.0000000000000000e+00  2.5219387854326281e-08 8.0661259549983889e-07 0.0000000000000000e+00  8.6073410501052398e-10 8.2955895321093401e-07 0.0000000000000000e+00  5.5236369476082830e-09 8.4752944679658602e-07 0.0000000000000000e+00  -8.5809793384083532e-08 7.1984337118567128e-07 0.0000000000000000e+00  6.3544548343884980e-08 6.9200188962618486e-07 0.0000000000000000e+00  2.2520320972515229e-08 8.2542036403857911e-07 0.0000000000000000e+00  6.8405305322618363e-09 8.5792193864857211e-07 0.0000000000000000e+00  -1.1787587598070122e-08 8.5156406912193825e-07 0.0000000000000000e+00  -5.8355502990235345e-08 7.0807278015591376e-07 0.0000000000000000e+00  1.1951440306845945e-07 8.1796925055301213e-07 0.0000000000000000e+00  -1.0425117315160065e-07 8.4103859426903746e-07 0.0000000000000000e+00  8.6726057434372869e-08 8.2932072651417658e-07 0.0000000000000000e+00  -1.2885900681429740e-07 7.6802967960656567e-07 0.0000000000000000e+00  4.4425296467592909e-08 6.3437667001922626e-07 0.0000000000000000e+00  5.4561001092232423e-09 7.4260096388533164e-07 0.0000000000000000e+00  1.2188070592845975e-09 7.5000144335277574e-07 0.0000000000000000e+00  -5.5963389934863214e-09 7.4499798059391805e-07 0.0000000000000000e+00  1.2528856395272636e-09 7.3976680198152553e-07 0.0000000000000000e+00  -4.7985509215159136e-10 7.4150508876846000e-07 0.0000000000000000e+00  5.9755416145406435e-09 7.4722819952471990e-07 0.0000000000000000e+00  2.5831057254030617e-08 7.8399550092069052e-07 0.0000000000000000e+00  -8.7988411183761934e-09 8.1396110316424138e-07 0.0000000000000000e+00  -7.0066493938834089e-08 6.9141444469521812e-07 0.0000000000000000e+00  5.4021007140541192e-08 6.9665811602486914e-07 0.0000000000000000e+00  4.4520789544682083e-10 7.4576371506398974e-07 0.0000000000000000e+00  3.1068750867422451e-08 7.7456476084174770e-07 0.0000000000000000e+00  -1.1756595430174606e-09 8.2749394552918984e-07 0.0000000000000000e+00  -1.9068014698363280e-08 7.9454354131621069e-07 0.0000000000000000e+00  -9.7234658551440617e-09 7.6106627803427992e-07 0.0000000000000000e+00  -4.0047663607858303e-08 6.9145895884475745e-07 0.0000000000000000e+00  1.0998468672001473e-07 7.9301940124639833e-07