<?xml version="1.0"?>
<VTKFile type="UnstructuredGrid"  version="0.1"  >
<UnstructuredGrid>
<Piece  NumberOfPoints="11902" NumberOfCells="23402">
<Points>
<DataArray  type="Float64"  NumberOfComponents="3"  format="ascii">-5 -5 0  5 -5 0  5 5 0  -5 5 0  1.206999503540382 0.001319334619526854 0  -4.9 -5 0  -4.8 -5 0  -4.7 -5 0  -4.6 -5 0  -4.5 -5 0  -4.4 -5 0  -4.3 -5 0  -4.2 -5 0  -4.1 -5 0  -4 -5 0  -3.9 -5 0  -3.8 -5 0  -3.7 -5 0  -3.6 -5 0  -3.5 -5 0  -3.4 -5 0  -3.3 -5 0  -3.2 -5 0  -3.1 -5 0  -3 -5 0  -2.9 -5 0  -2.8 -5 0  -2.7 -5 0  -2.6 -5 0  -2.5 -5 0  -2.4 -5 0  -2.3 -5 0  -2.2 -5 0  -2.1 -5 0  -2 -5 0  -1.9 -5 0  -1.8 -5 0  -1.7 -5 0  -1.6 -5 0  -1.5 -5 0  -1.4 -5 0  -1.3 -5 0  -1.2 -5 0  -1.1 -5 0  -1 -5 0  -0.9000000000000004 -5 0  -0.7999999999999998 -5 0  -0.7000000000000002 -5 0  -0.5999999999999996 -5 0  -0.5 -5 0  -0.4000000000000004 -5 0  -0.2999999999999998 -5 0  -0.2000000000000002 -5 0  -0.09999999999999964 -5 0  0 -5 0  0.09999999999999964 -5 0  0.2000000000000002 -5 0  0.2999999999999998 -5 0  0.4000000000000004 -5 0  0.5 -5 0  0.5999999999999996 -5 0  0.7000000000000002 -5 0  0.7999999999999998 -5 0  0.9000000000000004 -5 0  1 -5 0  1.1 -5 0  1.2 -5 0  1.3 -5 0  1.4 -5 0  1.5 -5 0  1.6 -5 0  1.7 -5 0  1.8 -5 0  1.9 -5 0  2 -5 0  2.1 -5 0  2.2 -5 0  2.3 -5 0  2.4 -5 0  2.5 -5 0  2.6 -5 0  2.7 -5 0  2.8 -5 0  2.9 -5 0  3 -5 0  3.1 -5 0  3.199999999999999 -5 0  3.300000000000001 -5 0  3.4 -5 0  3.5 -5 0  3.6 -5 0  3.699999999999999 -5 0  3.800000000000001 -5 0  3.9 -5 0  4 -5 0  4.1 -5 0  4.199999999999999 -5 0  4.300000000000001 -5 0  4.4 -5 0  4.5 -5 0  4.6 -5 0  4.699999999999999 -5 0  4.800000000000001 -5 0  4.9 -5 0  5 -4.9 0  5 -4.8 0  5 -4.7 0  5 -4.6 0  5 -4.5 0  5 -4.4 0  5 -4.3 0  5 -4.2 0  5 -4.1 0  5 -4 0  5 -3.9 0  5 -3.8 0  5 -3.7 0  5 -3.6 0  5 -3.5 0  5 -3.4 0  5 -3.3 0  5 -3.2 0  5 -3.1 0  5 -3 0  5 -2.9 0  5 -2.8 0  5 -2.7 0  5 -2.6 0  5 -2.5 0  5 -2.4 0  5 -2.3 0  5 -2.2 0  5 -2.1 0  5 -2 0  5 -1.9 0  5 -1.8 0  5 -1.7 0  5 -1.6 0  5 -1.5 0  5 -1.4 0  5 -1.3 0  5 -1.2 0  5 -1.1 0  5 -1 0  5 -0.9000000000000004 0  5 -0.7999999999999998 0  5 -0.7000000000000002 0  5 -0.5999999999999996 0  5 -0.5 0  5 -0.4000000000000004 0  5 -0.2999999999999998 0  5 -0.2000000000000002 0  5 -0.09999999999999964 0  5 0 0  5 0.09999999999999964 0  5 0.2000000000000002 0  5 0.2999999999999998 0  5 0.4000000000000004 0  5 0.5 0  5 0.5999999999999996 0  5 0.7000000000000002 0  5 0.7999999999999998 0  5 0.9000000000000004 0  5 1 0  5 1.1 0  5 1.2 0  5 1.3 0  5 1.4 0  5 1.5 0  5 1.6 0  5 1.7 0  5 1.8 0  5 1.9 0  5 2 0  5 2.1 0  5 2.2 0  5 2.3 0  5 2.4 0  5 2.5 0  5 2.6 0  5 2.7 0  5 2.8 0  5 2.9 0  5 3 0  5 3.1 0  5 3.199999999999999 0  5 3.300000000000001 0  5 3.4 0  5 3.5 0  5 3.6 0  5 3.699999999999999 0  5 3.800000000000001 0  5 3.9 0  5 4 0  5 4.1 0  5 4.199999999999999 0  5 4.300000000000001 0  5 4.4 0  5 4.5 0  5 4.6 0  5 4.699999999999999 0  5 4.800000000000001 0  5 4.9 0  4.9 5 0  4.8 5 0  4.7 5 0  4.6 5 0  4.5 5 0  4.4 5 0  4.3 5 0  4.2 5 0  4.1 5 0  4 5 0  3.9 5 0  3.8 5 0  3.7 5 0  3.6 5 0  3.5 5 0  3.4 5 0  3.3 5 0  3.2 5 0  3.1 5 0  3 5 0  2.9 5 0  2.8 5 0  2.7 5 0  2.6 5 0  2.5 5 0  2.4 5 0  2.3 5 0  2.2 5 0  2.1 5 0  2 5 0  1.9 5 0  1.8 5 0  1.7 5 0  1.6 5 0  1.5 5 0  1.4 5 0  1.3 5 0  1.2 5 0  1.1 5 0  1 5 0  0.9000000000000004 5 0  0.7999999999999998 5 0  0.7000000000000002 5 0  0.5999999999999996 5 0  0.5 5 0  0.4000000000000004 5 0  0.2999999999999998 5 0  0.2000000000000002 5 0  0.09999999999999964 5 0  0 5 0  -0.09999999999999964 5 0  -0.2000000000000002 5 0  -0.2999999999999998 5 0  -0.4000000000000004 5 0  -0.5 5 0  -0.5999999999999996 5 0  -0.7000000000000002 5 0  -0.7999999999999998 5 0  -0.9000000000000004 5 0  -1 5 0  -1.1 5 0  -1.2 5 0  -1.3 5 0  -1.4 5 0  -1.5 5 0  -1.6 5 0  -1.7 5 0  -1.8 5 0  -1.9 5 0  -2 5 0  -2.1 5 0  -2.2 5 0  -2.3 5 0  -2.4 5 0  -2.5 5 0  -2.6 5 0  -2.7 5 0  -2.8 5 0  -2.9 5 0  -3 5 0  -3.1 5 0  -3.199999999999999 5 0  -3.300000000000001 5 0  -3.4 5 0  -3.5 5 0  -3.6 5 0  -3.699999999999999 5 0  -3.800000000000001 5 0  -3.9 5 0  -4 5 0  -4.1 5 0  -4.199999999999999 5 0  -4.300000000000001 5 0  -4.4 5 0  -4.5 5 0  -4.6 5 0  -4.699999999999999 5 0  -4.800000000000001 5 0  -4.9 5 0  -5 4.9 0  -5 4.8 0  -5 4.7 0  -5 4.6 0  -5 4.5 0  -5 4.4 0  -5 4.3 0  -5 4.2 0  -5 4.1 0  -5 4 0  -5 3.9 0  -5 3.8 0  -5 3.7 0  -5 3.6 0  -5 3.5 0  -5 3.4 0  -5 3.3 0  -5 3.2 0  -5 3.1 0  -5 3 0  -5 2.9 0  -5 2.8 0  -5 2.7 0  -5 2.6 0  -5 2.5 0  -5 2.4 0  -5 2.3 0  -5 2.2 0  -5 2.1 0  -5 2 0  -5 1.9 0  -5 1.8 0  -5 1.7 0  -5 1.6 0  -5 1.5 0  -5 1.4 0  -5 1.3 0  -5 1.2 0  -5 1.1 0  -5 1 0  -5 0.9000000000000004 0  -5 0.7999999999999998 0  -5 0.7000000000000002 0  -5 0.5999999999999996 0  -5 0.5 0  -5 0.4000000000000004 0  -5 0.2999999999999998 0  -5 0.2000000000000002 0  -5 0.09999999999999964 0  -5 0 0  -5 -0.09999999999999964 0  -5 -0.2000000000000002 0  -5 -0.2999999999999998 0  -5 -0.4000000000000004 0  -5 -0.5 0  -5 -0.5999999999999996 0  -5 -0.7000000000000002 0  -5 -0.7999999999999998 0  -5 -0.9000000000000004 0  -5 -1 0  -5 -1.1 0  -5 -1.2 0  -5 -1.3 0  -5 -1.4 0  -5 -1.5 0  -5 -1.6 0  -5 -1.7 0  -5 -1.8 0  -5 -1.9 0  -5 -2 0  -5 -2.1 0  -5 -2.2 0  -5 -2.3 0  -5 -2.4 0  -5 -2.5 0  -5 -2.6 0  -5 -2.7 0  -5 -2.8 0  -5 -2.9 0  -5 -3 0  -5 -3.1 0  -5 -3.199999999999999 0  -5 -3.300000000000001 0  -5 -3.4 0  -5 -3.5 0  -5 -3.6 0  -5 -3.699999999999999 0  -5 -3.800000000000001 0  -5 -3.9 0  -5 -4 0  -5 -4.1 0  -5 -4.199999999999999 0  -5 -4.300000000000001 0  -5 -4.4 0  -5 -4.5 0  -5 -4.6 0  -5 -4.699999999999999 0  -5 -4.800000000000001 0  -5 -4.9 0  1.200905203498507 0.09879193827108235 0  1.18191184165296 0.1967650983643795 0  1.150247095379804 0.2939003114224163 0  1.109347694973043 0.3851280342756815 0  1.056057881665261 0.4757437999268759 0  0.9934442745937359 0.5607782695509662 0  0.91979669758435 0.6405500591883716 0  0.8369364738770733 0.7134309532257517 0  0.7471004079829809 0.7790230428720446 0  0.6488351043602524 0.8374417730979051 0  0.5434082826679525 0.8884972470558538 0  0.4340576259030304 0.930551246166656 0  0.3224653845487506 0.9633995395141957 0  0.2048821092371873 0.9857551425240411 0  0.08879279020618082 1.000808037287457 0  -0.02772124055125772 1.003619399487229 0  -0.1444976233037554 0.9934658917044128 0  -0.2632907846249082 0.9756698058156957 0  -0.378446294887293 0.9496666613153456 0  -0.488201126870646 0.9131888367098563 0  -0.59340183433394 0.8675042749467634 0  -0.6934651837500001 0.8128007630492938 0  -0.7862818503614873 0.7497085703018551 0  -0.8728269752675405 0.6789419206931762 0  -0.9522095807663514 0.600743836341232 0  -1.021080902394778 0.5184826784884549 0  -1.080287480812454 0.4316998612656381 0  -1.128203074564915 0.3397275482938096 0  -1.164084542681193 0.2459797886344326 0  -1.18812284969984 0.1497027868178566 0  -1.20027780300325 0.05075132633220466 0  -1.200264565653056 -0.04891273713684433 0  -1.188034358191421 -0.1474993205016074 0  -1.164762643558939 -0.2437527315029946 0  -1.127549528986176 -0.3394186242616705 0  -1.080627460975134 -0.4305594123675112 0  -1.022126259201048 -0.5176364793826281 0  -0.9538426412504349 -0.5994265638646187 0  -0.8748438580228626 -0.6764129939188569 0  -0.78797061948034 -0.746074866285577 0  -0.6937526745748661 -0.8072917826360846 0  -0.5935259169874338 -0.8615140961746928 0  -0.4852622057760647 -0.9086396082768895 0  -0.3748184725786975 -0.9468015995087906 0  -0.2603042101766522 -0.9744177531163951 0  -0.1431057818806112 -0.9926171683323295 0  -0.02744527083638527 -1.002713012551106 0  0.08938588280304391 -0.9980020671658438 0  0.2080255558693092 -0.9833538519975819 0  0.3242169116758905 -0.9617283028551608 0  0.4375952967623377 -0.9291291899562253 0  0.5451867254423324 -0.8875506400274 0  0.6495903413377959 -0.8371124120721012 0  0.747251107135888 -0.7800563037770661 0  0.8369879743766183 -0.7141924989693041 0  0.9192753218620824 -0.6400245714375963 0  0.9918942041052755 -0.5601335572769821 0  1.055886888907591 -0.4751418669891944 0  1.110359654490017 -0.3851840739187087 0  1.151718999265045 -0.2923451669824949 0  1.18220969741072 -0.1959104871944974 0  1.200938920448252 -0.09832378393955683 0  -2.448749674097102 4.918460190067763 0  -2.448641015414729 -4.910869968858839 0  4.91080279655144 2.448162295890348 0  4.918894172641163 -2.449599598681979 0  2.446404066111989 -4.896166735522224 0  2.440829925794146 4.899915385720681 0  -4.910826869028711 -2.4481858694591 0  -4.91082497123644 2.448189752905261 0  -1.748711242383576 4.91150221898868 0  -1.744489636981423 -4.914924174659104 0  4.921080802198254 1.744311933036808 0  4.90967747051931 -1.74810845576973 0  -4.909965898429142 -1.74783869250123 0  -4.910784441298125 1.747580718811534 0  1.745996351411931 4.90539559694098 0  1.747434245813316 -4.893603586557754 0  -1.148982671863974 4.909390143440293 0  -1.129824354526956 -4.917257037041969 0  -4.90981389828215 -1.148119058734099 0  -4.909634202861145 1.147919255110788 0  1.143968040166052 -4.913465013152031 0  1.148990624048844 4.90937833971117 0  4.909959058246546 1.146395978855594 0  4.920714665058224 -1.152155702695795 0  -0.5467429542457276 -4.910630998083559 0  -0.5465172300615452 4.919258821575641 0  -4.908651441371202 -0.5488148823832583 0  -4.908675784060765 0.5473713967717773 0  4.907982835084189 -0.5491351733335705 0  4.919549024551151 0.5458780915599313 0  0.5425319487379359 -4.897598216848595 0  0.5512474513725008 4.916102990591293 0  -4.9121323279399 -3.048498074419377 0  4.918687532587204 3.046500898440126 0  4.911642746663206 -3.048476988028342 0  -4.912978971699917 3.045587922790335 0  3.055455969667247 -4.917621973842224 0  -3.048798049127383 -4.911574264946458 0  3.052361853377952 4.913647343426024 0  -3.048242995558926 4.912461690540296 0  -4.907798818552955 -0.04991830690485934 0  0.04512466335604448 -4.912586377991256 0  0.04957240959621704 4.919566599505712 0  4.914803643361392 -0.05129975023785487 0  3.545741197348528 -4.919193868439389 0  -3.549032851627211 4.912106794
[...]
<PointData  Vectors="f_2498"> 
<DataArray  type="Float64"  Name="f_2498"  NumberOfComponents="3" format="ascii">-4.5503725794845845e-07 -4.5505597523249218e-07 0.0000000000000000e+00  4.5503482840257137e-07 -4.5505412675242183e-07 0.0000000000000000e+00  5.0299057829665583e-07 5.0300425573656648e-07 0.0000000000000000e+00  -4.5503668836432526e-07 4.5505517029692825e-07 0.0000000000000000e+00  -3.7063155588248364e-01 -7.0620401933258106e-03 0.0000000000000000e+00  9.1241891145073496e-08 -9.0580201334472194e-07 0.0000000000000000e+00  -1.0650233631125873e-07 -8.5964647299408741e-07 0.0000000000000000e+00  1.0483066527916051e-07 -8.7262890870499755e-07 0.0000000000000000e+00  -9.1302028695226089e-08 -8.7995721829505489e-07 0.0000000000000000e+00  -2.1136141904111923e-08 -9.0384317182966892e-07 0.0000000000000000e+00  3.5958886947099826e-08 -1.0605980336638075e-06 0.0000000000000000e+00  6.1291239668130519e-09 -9.3558621636188780e-07 0.0000000000000000e+00  7.3532815414932316e-08 -7.7825873804775176e-07 0.0000000000000000e+00  -1.0495737664596947e-07 -8.4366705985345537e-07 0.0000000000000000e+00  1.2033626773033615e-07 -8.2427598451767976e-07 0.0000000000000000e+00  -2.6524635447634923e-08 -6.7905668745300094e-07 0.0000000000000000e+00  -5.2891235917822798e-09 -7.5080428039380101e-07 0.0000000000000000e+00  -1.2913277131847987e-08 -7.6498965214822879e-07 0.0000000000000000e+00  1.0454411498660794e-08 -7.7371064141567576e-07 0.0000000000000000e+00  3.8767806696924367e-10 -7.5787999621009767e-07 0.0000000000000000e+00  3.9882283132894844e-10 -7.5699833987874546e-07 0.0000000000000000e+00  5.0609454384396819e-08 -7.2297872791035948e-07 0.0000000000000000e+00  -4.4455434161070220e-08 -6.8426952770663666e-07 0.0000000000000000e+00  4.1995029154559425e-10 -7.5425700498202937e-07 0.0000000000000000e+00  4.0012060476785218e-08 -6.5754812079859507e-07 0.0000000000000000e+00  -1.2838451192059622e-07 -8.0173660147121034e-07 0.0000000000000000e+00  9.7437507329377987e-08 -8.4423991737783849e-07 0.0000000000000000e+00  -9.4164902539388184e-08 -8.4302210762814942e-07 0.0000000000000000e+00  1.2514550215897349e-07 -7.9397838074230184e-07 0.0000000000000000e+00  -3.7785534625705483e-08 -6.4190535161533913e-07 0.0000000000000000e+00  4.4763476801173572e-10 -7.4743885743880209e-07 0.0000000000000000e+00  3.5704960802513877e-08 -6.7954374363289940e-07 0.0000000000000000e+00  -1.2109563063861390e-07 -8.0346219107108933e-07 0.0000000000000000e+00  1.0038109292286785e-07 -8.3819596586888868e-07 0.0000000000000000e+00  -9.4845273011135185e-08 -8.5796687180243188e-07 0.0000000000000000e+00  1.1699566978549893e-09 -8.5943202406659341e-07 0.0000000000000000e+00  6.7947241531215410e-08 -9.6474288870660652e-07 0.0000000000000000e+00  1.1572655688618291e-08 -7.8281952488839445e-07 0.0000000000000000e+00  8.0368774173726375e-09 -7.5412526570894452e-07 0.0000000000000000e+00  7.2168619679746174e-10 -7.3931399910953928e-07 0.0000000000000000e+00  1.0035114859365760e-08 -7.1703521027881975e-07 0.0000000000000000e+00  4.0693460790436886e-08 -6.2893306478364937e-07 0.0000000000000000e+00  -7.9908522767368034e-08 -6.6931272832946543e-07 0.0000000000000000e+00  -8.9107840879777687e-08 -9.5162904554542562e-07 0.0000000000000000e+00  9.8043887285116122e-08 -9.4859089486673802e-07 0.0000000000000000e+00  5.2343061390874991e-08 -6.9145199330913282e-07 0.0000000000000000e+00  -9.5525155556694256e-08 -8.1441503024300293e-07 0.0000000000000000e+00  -1.0640102845247925e-08 -7.4176087151053807e-07 0.0000000000000000e+00  5.8136682527348470e-08 -9.0179284514052613e-07 0.0000000000000000e+00  1.8958685468635589e-09 -7.4723612441502770e-07 0.0000000000000000e+00  4.6070203158518388e-09 -7.4437975644304446e-07 0.0000000000000000e+00  1.0605313507348018e-10 -7.3202174854917249e-07 0.0000000000000000e+00  -3.4960597336057554e-10 -7.3283314472685364e-07 0.0000000000000000e+00  -1.8519929545524572e-09 -7.3717999796565957e-07 0.0000000000000000e+00  -1.2200530425617943e-08 -7.6564766544943105e-07 0.0000000000000000e+00  -7.2724119872692796e-08 -9.4796260269972083e-07 0.0000000000000000e+00  7.7299080698611740e-09 -8.2178726333043811e-07 0.0000000000000000e+00  9.1606495007750883e-08 -8.1331491520384452e-07 0.0000000000000000e+00  -1.0604346615690824e-07 -8.0605971299538290e-07 0.0000000000000000e+00  1.1977457371687997e-07 -7.8877618258831761e-07 0.0000000000000000e+00  -2.8000590263841984e-08 -6.5387293111133376e-07 0.0000000000000000e+00  -9.4650142448860761e-09 -7.2969627364699416e-07 0.0000000000000000e+00  -6.7362228525978738e-09 -7.4105795933304473e-07 0.0000000000000000e+00  5.1492751122003999e-09 -7.4271026325847376e-07 0.0000000000000000e+00  -5.2083772742080376e-09 -7.4598376631439091e-07 0.0000000000000000e+00  -1.0173068425300222e-08 -7.7633615981574722e-07 0.0000000000000000e+00  4.7510532415555533e-08 -7.0489414928941355e-07 0.0000000000000000e+00  -8.6972679226174176e-08 -7.5382756279380827e-07 0.0000000000000000e+00  1.2945157471373969e-08 -8.6443584657084022e-07 0.0000000000000000e+00  5.7921093286759695e-09 -8.2842564722456754e-07 0.0000000000000000e+00  1.5546725072701138e-08 -8.2142460430902322e-07 0.0000000000000000e+00  7.2543151250189692e-08 -6.8117588752659088e-07 0.0000000000000000e+00  -6.8429197800779585e-08 -6.7924832074712133e-07 0.0000000000000000e+00  -1.4752677848229824e-08 -8.0337741744502300e-07 0.0000000000000000e+00  2.7482193692609464e-08 -7.8478211521276400e-07 0.0000000000000000e+00  1.6888931726621259e-09 -7.5118218473051728e-07 0.0000000000000000e+00  -2.4353971021137848e-11 -7.4647877048932123e-07 0.0000000000000000e+00  -5.7247216918710701e-09 -7.7012189118882031e-07 0.0000000000000000e+00  5.3475277797464625e-08 -6.8340552494576556e-07 0.0000000000000000e+00  -3.3529190525582921e-08 -6.5591878439282963e-07 0.0000000000000000e+00  -1.6699990252590043e-08 -7.4283265454649770e-07 0.0000000000000000e+00  -4.3811948688968068e-08 -8.0276140755662753e-07 0.0000000000000000e+00  -6.3844078391113696e-09 -8.7457922617805044e-07 0.0000000000000000e+00  8.5696086016801556e-08 -7.4213818536796920e-07 0.0000000000000000e+00  -6.2487761375539684e-08 -7.1382711203177616e-07 0.0000000000000000e+00  -4.8901196031280575e-09 -8.2561581407286512e-07 0.0000000000000000e+00  4.1373071163202843e-08 -7.8350778998844180e-07 0.0000000000000000e+00  -1.9122325386741577e-08 -7.5414049529040858e-07 0.0000000000000000e+00  -2.5441463909378233e-08 -7.9276606272980590e-07 0.0000000000000000e+00  2.8867700623395908e-09 -8.4870011345940008e-07 0.0000000000000000e+00  7.4925528626652048e-08 -7.1331927188224658e-07 0.0000000000000000e+00  -7.3188654436794321e-08 -7.1174187110058141e-07 0.0000000000000000e+00  -8.2470646365326353e-09 -8.4239710018347648e-07 0.0000000000000000e+00  3.3221737349971174e-08 -8.0786389444912400e-07 0.0000000000000000e+00  1.5924845209233125e-08 -7.4384430848607862e-07 0.0000000000000000e+00  -1.2484308021448436e-08 -7.3880894315905390e-07 0.0000000000000000e+00  -7.0063720508518111e-09 -7.7606714761037577e-07 0.0000000000000000e+00  5.2153915298535506e-08 -6.9491426868703413e-07 0.0000000000000000e+00  -6.5878632799531676e-08 -7.0769783121753435e-07 0.0000000000000000e+00  -1.8761017088208450e-08 -8.3929618833431003e-07 0.0000000000000000e+00  2.8337027542281626e-08 -8.1741460651224788e-07 0.0000000000000000e+00  3.2494154321896425e-09 -7.7963811358196192e-07 0.0000000000000000e+00  -6.8048010116949109e-09 -7.9396804638415534e-07 0.0000000000000000e+00  -6.0276857354471471e-08 -9.4788899801438640e-07 0.0000000000000000e+00  8.9086483593616288e-07 8.8274674222080230e-08 0.0000000000000000e+00  8.8488368912545025e-07 -1.2414282874329136e-07 0.0000000000000000e+00  9.1647629687092279e-07 1.1037327762311172e-07 0.0000000000000000e+00  7.5605534651742031e-07 -2.4986079795564663e-08 0.0000000000000000e+00  8.0096099337868831e-07 1.6852890999644088e-08 0.0000000000000000e+00  7.7904232760234926e-07 5.5000545206509036e-10 0.0000000000000000e+00  7.7833820089936868e-07 -1.8230710866574745e-10 0.0000000000000000e+00  7.7797581853291348e-07 8.1155593238051114e-10 0.0000000000000000e+00  7.8193239340132544e-07 -6.3711091627917614e-09 0.0000000000000000e+00  7.9038084326482872e-07 3.8452561591489886e-09 0.0000000000000000e+00  7.9326151611927922e-07 -6.7293718452078586e-09 0.0000000000000000e+00  7.9146831653239939e-07 1.1944286003230871e-08 0.0000000000000000e+00  7.8374994034570454e-07 -1.2796403589409501e-08 0.0000000000000000e+00  7.8385122672315715e-07 9.1682384707219734e-09 0.0000000000000000e+00  7.9793538748318958e-07 -1.4161655056061124e-08 0.0000000000000000e+00  7.8646059831644517e-07 2.2977669560235982e-08 0.0000000000000000e+00  7.6925819062414813e-07 -3.4028657352381581e-09 0.0000000000000000e+00  7.7801600832118902e-07 -1.1139531883391120e-08 0.0000000000000000e+00  7.6738110498488959e-07 1.6353424839831675e-08 0.0000000000000000e+00  7.7237310773206736e-07 -1.8012865792856036e-08 0.0000000000000000e+00  7.9164621755232796e-07 6.1864038411512094e-09 0.0000000000000000e+00  7.6655254813048375e-07 1.3456764592622449e-08 0.0000000000000000e+00  7.9848791926443148e-07 -3.1908057320280169e-08 0.0000000000000000e+00  8.3168990154211423e-07 -8.1310387258833210e-09 0.0000000000000000e+00  8.2931130721061801e-07 9.0600343027263665e-09 0.0000000000000000e+00  7.8993343473578342e-07 2.1588446318456487e-08 0.0000000000000000e+00  7.5780315065994853e-07 1.0918909710151530e-08 0.0000000000000000e+00  7.4420449593064368e-07 5.9268171635499872e-10 0.0000000000000000e+00  7.4287338088899370e-07 6.1243613203925367e-10 0.0000000000000000e+00  7.4153080613037251e-07 6.1508341287977057e-10 0.0000000000000000e+00  7.4022414611348531e-07 6.1307865528993882e-10 0.0000000000000000e+00  7.3888643046207038e-07 6.2610480794304032e-10 0.0000000000000000e+00  7.4833188503404272e-07 -1.1157181710206785e-08 0.0000000000000000e+00  7.6180889248759718e-07 1.7466135755955431e-09 0.0000000000000000e+00  7.4892809022762971e-07 1.1373948373298011e-08 0.0000000000000000e+00  7.7986599166472596e-07 -3.0621099702682765e-08 0.0000000000000000e+00  8.1177376818343560e-07 -9.7146196599057658e-09 0.0000000000000000e+00  8.3919292135595394e-07 -5.9433976436701832e-09 0.0000000000000000e+00  8.3733340992261536e-07 1.8088065737061542e-08 0.0000000000000000e+00  7.2136337760187135e-07 6.6313468220318825e-10 0.0000000000000000e+00  8.0708843177700242e-07 3.4357840603533207e-08 0.0000000000000000e+00  7.3006950926858117e-07 -9.1533849072145779e-10 0.0000000000000000e+00  7.2595887612970237e-07 1.7024312330871081e-09 0.0000000000000000e+00  7.2539183953284928e-07 3.4534182410330244e-10 0.0000000000000000e+00  7.7890978931647174e-07 -3.0134873807518610e-08 0.0000000000000000e+00  7.8845096259215411e-07 -9.1274004548268560e-09 0.0000000000000000e+00  8.1010277456327690e-07 -1.5732610464585965e-09 0.0000000000000000e+00  8.0099562397347309e-07 7.0441924497603619e-09 0.0000000000000000e+00  7.9715223976339028e-07 6.6726241500042763e-09 0.0000000000000000e+00  7.9579837293005498e-07 -1.4670644182423387e-08 0.0000000000000000e+00  8.2581225885188242e-07 -2.0928367279362552e-09 0.0000000000000000e+00  8.3497592399676165e-07 -1.7594706810898428e-09 0.0000000000000000e+00  8.1534154392292062e-07 5.0661571454296420e-10 0.0000000000000000e+00  8.2958485877035020e-07 4.4944399319597178e-10 0.0000000000000000e+00  8.3611785158771623e-07 -1.4809523264391357e-09 0.0000000000000000e+00  8.1672859630430053e-07 3.4636762975452041e-10 0.0000000000000000e+00  8.2833380793345932e-07 1.3302125038801017e-09 0.0000000000000000e+00  8.2344469873726337e-07 2.5925680545684797e-09 0.0000000000000000e+00  7.8175629807920631e-07 2.4576896782508084e-08 0.0000000000000000e+00  7.6048459738210354e-07 -1.5975932843823832e-10 0.0000000000000000e+00  7.5761229065029500e-07 8.6730307037493475e-09 0.0000000000000000e+00  7.5551351756854219e-07 -1.2104300687663635e-08 0.0000000000000000e+00  7.6191447283591209e-07 -3.7698506626860451e-10 0.0000000000000000e+00  7.7506427159585506e-07 -1.8408983695214554e-10 0.0000000000000000e+00  7.9452816277776922e-07 -2.4142835338825848e-08 0.0000000000000000e+00  8.3645911972250936e-07 -4.0194988874807667e-09 0.0000000000000000e+00  8.5089842953173816e-07 -3.0003472971721411e-09 0.0000000000000000e+00  8.3308432685639617e-07 -2.2066841208679551e-10 0.0000000000000000e+00  8.4513459953488204e-07 3.2320001169359279e-09 0.0000000000000000e+00  8.2069709356258973e-07 1.2147926378456181e-08 0.0000000000000000e+00  7.7229971474049613e-07 2.2470143146381592e-08 0.0000000000000000e+00  7.4786392961601465e-07 3.9006168156266990e-09 0.0000000000000000e+00  7.4546466992086368e-07 -5.7945510250073168e-10 0.0000000000000000e+00  7.4670018209429764e-07 -5.5066402610006448e-10 0.0000000000000000e+00  7.5041818954456115e-07 -1.6014505213769761e-09 0.0000000000000000e+00  7.5833013544955157e-07 -4.9293228206933534e-09 0.0000000000000000e+00  7.7954427699159966e-07 -1.0617232067882004e-08 0.0000000000000000e+00  8.1217641033321028e-07 -2.3816135331637876e-08 0.0000000000000000e+00  8.5186987048070160e-07 -1.1515007154804939e-09 0.0000000000000000e+00  8.3223845544370857e-07 1.1308036345349609e-08 0.0000000000000000e+00  8.0483517049355816e-07 1.4791430628011444e-08 0.0000000000000000e+00  7.9889025410299402e-07 -8.1414915450475177e-09 0.0000000000000000e+00  8.1808551104063377e-07 -1.9236562722759054e-08 0.0000000000000000e+00  8.5292504821392763e-07 9.9775980145589704e-11 0.0000000000000000e+00  8.3780550663431387e-07 1.0632379571547482e-08 0.0000000000000000e+00  8.1028129613894963e-07 8.6826182137182344e-09 0.0000000000000000e+00  7.7981254498821599e-07 1.8309241532357252e-08 0.0000000000000000e+00  7.7080712839824579e-07 -8.1198112468521868e-09 0.0000000000000000e+00  7.7015654914270630e-07 7.3985385316352701e-09 0.0000000000000000e+00  7.6272078326466500e-07 -3.3060761056303564e-10 0.0000000000000000e+00  7.6346362573393060e-07 -3.2059407761037613e-10 0.0000000000000000e+00  7.7718157461387635e-07 -1.1466719447221318e-08 0.0000000000000000e+00  7.7773899402927810e-07 1.0852064366418556e-08 0.0000000000000000e+00  7.6832462818210234e-07 -2.5897775538853366e-09 0.0000000000000000e+00  7.9924555674202435e-07 -1.2125926888949360e-08 0.0000000000000000e+00  8.1361620387086077e-07 -7.0602127522312064e-09 0.0000000000000000e+00  8.2256600730732368e-07 -1.7279102581553583e-08 0.0000000000000000e+00  8.4589710973067330e-07 -3.8162125847089749e-09 0.0000000000000000e+00  1.0389375900272301e-06 -6.0249372935484070e-08 0.0000000000000000e+00  -1.0915290698194195e-07 9.7248285025670228e-07 0.0000000000000000e+00  5.6919198912759804e-08 8.2941786264164212e-07 0.0000000000000000e+00  9.6153380839594201e-10 9.4550209831192621e-07 0.0000000000000000e+00  3.4418935148776428e-08 1.0608576579468286e-06 0.0000000000000000e+00  -1.8740868294011905e-08 9.0005309597441682e-07 0.0000000000000000e+00  -8.8606477849928611e-08 8.9347467989715586e-07 0.0000000000000000e+00  1.3323465552629263e-07 9.1799067026974524e-07 0.0000000000000000e+00  -1.4574403334208622e-07 9.2372090937111571e-07 0.0000000000000000e+00  1.1861362008211262e-08 7.0526523824615852e-07 0.0000000000000000e+00  7.6450362844916704e-09 7.6025010908743987e-07 0.0000000000000000e+00  -1.2306594060174242e-08 7.7614201084558664e-07 0.0000000000000000e+00  -1.1718058720604331e-08 7.5006477988039890e-07 0.0000000000000000e+00  -3.3910761205339446e-08 6.6027500506817421e-07 0.0000000000000000e+00  5.6594322099233947e-08 6.9311955929473982e-07 0.0000000000000000e+00  9.4752829797041291e-10 7.8868018448739374e-07 0.0000000000000000e+00  -1.9329556812149092e-09 7.7852696941312755e-07 0.0000000000000000e+00  -1.5778173594539562e-09 7.7218681815245643e-07 0.0000000000000000e+00  2.0317421381024140e-09 7.7496211901659974e-07 0.0000000000000000e+00  -1.4099771352886648e-09 7.8482852337793595e-07 0.0000000000000000e+00  -5.6597471161530138e-08 6.9218367955886948e-07 0.0000000000000000e+00  4.2209634864415600e-08 6.7291347128412863e-07 0.0000000000000000e+00  -3.9413333392335577e-09 7.4302998283729709e-07 0.0000000000000000e+00  9.0399546437636999e-09 7.4806082354123093e-07 0.0000000000000000e+00  -9.1548990014144747e-09 7.4467937941257375e-07 0.0000000000000000e+00  -2.7968155501386789e-08 6.6811740061293424e-07 0.0000000000000000e+00  1.1952926349894940e-07 8.0393505746709256e-07 0.0000000000000000e+00  -1.0529129323640609e-07 8.2791394291260347e-07 0.0000000000000000e+00  7.3641683885086200e-08 7.5987643929226162e-07 0.0000000000000000e+00  4.1784321399269360e-09 9.1400924707179857e-07 0.0000000000000000e+00  3.5067441716380488e-08 1.0296592729467913e-06 0.0000000000000000e+00  -2.3514906345761641e-08 8.7583716946457924e-07 0.0000000000000000e+00  -9.2664297468268249e-08 8.4883113635671194e-07 0.0000000000000000e+00  9.5857543938046737e-08 8.2981245728653500e-07 0.0000000000000000e+00  -1.2897701445512933e-07 7.8621821479002995e-07 0.0000000000000000e+00  4.1987812055813037e-08 6.5204462288189899e-07 0.0000000000000000e+00  -1.0594579576343060e-08 7.2257102229388241e-07 0.0000000000000000e+00  1.3420599992528670e-08 7.3134066657386336e-07 0.0000000000000000e+00  -3.7278106812487912e-09 7.4190242164251942e-07 0.0000000000000000e+00  -3.1689342436556900e-10 7.3557173963362381e-07 0.0000000000000000e+00  -2.9911693777144982e-10 7.3490841446625243e-07 0.0000000000000000e+00  -5.1373553875611508e-08 7.0522904365999912e-07 0.0000000000000000e+00  4.4403292593549051e-08 6.6133241683461881e-07 0.0000000000000000e+00  -1.5690285236169758e-09 7.4021077024002216e-07 0.0000000000000000e+00  2.8264616275171073e-08 7.6078365811912904e-07 0.0000000000000000e+00  -9.9537769193138080e-09 8.0242679468630774e-07 0.0000000000000000e+00  -7.1048246945891785e-08 6.7089856496725264e-07 0.0000000000000000e+00  6.8360846133660856e-08 6.6745285209798544e-07 0.0000000000000000e+00  2.5218871086095596e-08 8.0598729576947095e-07 0.0000000000000000e+00  8.6028072469267560e-10 8.2891482588017259e-07 0.0000000000000000e+00  5.5237120349826505e-09 8.4687075969269509e-07 0.0000000000000000e+00  -8.5810610980122193e-08 7.1928378481458098e-07 0.0000000000000000e+00  6.3546608718061528e-08 6.9146953783028298e-07 0.0000000000000000e+00  2.2522237239409873e-08 8.2478581369436629e-07 0.0000000000000000e+00  6.8426667510892175e-09 8.5726592155114705e-07 0.0000000000000000e+00  -1.1785249998449668e-08 8.5091731914650792e-07 0.0000000000000000e+00  -5.8353312296859888e-08 7.0753695866142857e-07 0.0000000000000000e+00  1.1951916064715892e-07 8.1737704835008863e-07 0.0000000000000000e+00  -1.0424865540202914e-07 8.4041073030497463e-07 0.0000000000000000e+00  8.6731315934837060e-08 8.2873746105741745e-07 0.0000000000000000e+00  -1.2885648356929344e-07 7.6746712314659728e-07 0.0000000000000000e+00  4.4430889326397188e-08 6.3394731913033920e-07 0.0000000000000000e+00  5.4614828197737063e-09 7.4210014874917170e-07 0.0000000000000000e+00  1.2243843861121090e-09 7.4950682998079457e-07 0.0000000000000000e+00  -5.5905082671367502e-09 7.4451778237505767e-07 0.0000000000000000e+00  1.2590116339969729e-09 7.3930430803280857e-07 0.0000000000000000e+00  -4.7355311243909867e-10 7.4105459476518989e-07 0.0000000000000000e+00  5.9820828728162463e-09 7.4678966967195303e-07 0.0000000000000000e+00  2.5837789259523641e-08 7.8355484170496867e-07 0.0000000000000000e+00  -8.7921583438674850e-09 8.1351146406890698e-07 0.0000000000000000e+00  -7.0059933735511480e-08 6.9103147748174541e-07 0.0000000000000000e+00  5.4027940408376560e-08 6.9631575906755183e-07 0.0000000000000000e+00  4.5221114508716919e-10 7.4539875996037754e-07 0.0000000000000000e+00  3.1075675069876002e-08 7.7420880256562371e-07 0.0000000000000000e+00  -1.1687099799043904e-09 8.2712260312550554e-07 0.0000000000000000e+00  -1.9061067216153986e-08 7.9419878308027975e-07 0.0000000000000000e+00  -9.7166347914985318e-09 7.6075348859299118e-07 0.0000000000000000e+00  -4.0040685195501004e-08 6.9118133865145199e-07 0.0000000000000000e+00  1.0999080068167437e-07 7.9275259208953057e-07