<?xml version="1.0"?>
<VTKFile type="UnstructuredGrid"  version="0.1"  >
<UnstructuredGrid>
<Piece  NumberOfPoints="11902" NumberOfCells="23402">
<Points>
<DataArray  type="Float64"  NumberOfComponents="3"  format="ascii">-5 -5 0  5 -5 0  5 5 0  -5 5 0  1.114558233322134 0.0007677048187864728 0  -4.9 -5 0  -4.8 -5 0  -4.7 -5 0  -4.6 -5 0  -4.5 -5 0  -4.4 -5 0  -4.3 -5 0  -4.2 -5 0  -4.1 -5 0  -4 -5 0  -3.9 -5 0  -3.8 -5 0  -3.7 -5 0  -3.6 -5 0  -3.5 -5 0  -3.4 -5 0  -3.3 -5 0  -3.2 -5 0  -3.1 -5 0  -3 -5 0  -2.9 -5 0  -2.8 -5 0  -2.7 -5 0  -2.6 -5 0  -2.5 -5 0  -2.4 -5 0  -2.3 -5 0  -2.2 -5 0  -2.1 -5 0  -2 -5 0  -1.9 -5 0  -1.8 -5 0  -1.7 -5 0  -1.6 -5 0  -1.5 -5 0  -1.4 -5 0  -1.3 -5 0  -1.2 -5 0  -1.1 -5 0  -1 -5 0  -0.9000000000000004 -5 0  -0.7999999999999998 -5 0  -0.7000000000000002 -5 0  -0.5999999999999996 -5 0  -0.5 -5 0  -0.4000000000000004 -5 0  -0.2999999999999998 -5 0  -0.2000000000000002 -5 0  -0.09999999999999964 -5 0  0 -5 0  0.09999999999999964 -5 0  0.2000000000000002 -5 0  0.2999999999999998 -5 0  0.4000000000000004 -5 0  0.5 -5 0  0.5999999999999996 -5 0  0.7000000000000002 -5 0  0.7999999999999998 -5 0  0.9000000000000004 -5 0  1 -5 0  1.1 -5 0  1.2 -5 0  1.3 -5 0  1.4 -5 0  1.5 -5 0  1.6 -5 0  1.7 -5 0  1.8 -5 0  1.9 -5 0  2 -5 0  2.1 -5 0  2.2 -5 0  2.3 -5 0  2.4 -5 0  2.5 -5 0  2.6 -5 0  2.7 -5 0  2.8 -5 0  2.9 -5 0  3 -5 0  3.1 -5 0  3.199999999999999 -5 0  3.300000000000001 -5 0  3.4 -5 0  3.5 -5 0  3.6 -5 0  3.699999999999999 -5 0  3.800000000000001 -5 0  3.9 -5 0  4 -5 0  4.1 -5 0  4.199999999999999 -5 0  4.300000000000001 -5 0  4.4 -5 0  4.5 -5 0  4.6 -5 0  4.699999999999999 -5 0  4.800000000000001 -5 0  4.9 -5 0  5 -4.9 0  5 -4.8 0  5 -4.7 0  5 -4.6 0  5 -4.5 0  5 -4.4 0  5 -4.3 0  5 -4.2 0  5 -4.1 0  5 -4 0  5 -3.9 0  5 -3.8 0  5 -3.7 0  5 -3.6 0  5 -3.5 0  5 -3.4 0  5 -3.3 0  5 -3.2 0  5 -3.1 0  5 -3 0  5 -2.9 0  5 -2.8 0  5 -2.7 0  5 -2.6 0  5 -2.5 0  5 -2.4 0  5 -2.3 0  5 -2.2 0  5 -2.1 0  5 -2 0  5 -1.9 0  5 -1.8 0  5 -1.7 0  5 -1.6 0  5 -1.5 0  5 -1.4 0  5 -1.3 0  5 -1.2 0  5 -1.1 0  5 -1 0  5 -0.9000000000000004 0  5 -0.7999999999999998 0  5 -0.7000000000000002 0  5 -0.5999999999999996 0  5 -0.5 0  5 -0.4000000000000004 0  5 -0.2999999999999998 0  5 -0.2000000000000002 0  5 -0.09999999999999964 0  5 0 0  5 0.09999999999999964 0  5 0.2000000000000002 0  5 0.2999999999999998 0  5 0.4000000000000004 0  5 0.5 0  5 0.5999999999999996 0  5 0.7000000000000002 0  5 0.7999999999999998 0  5 0.9000000000000004 0  5 1 0  5 1.1 0  5 1.2 0  5 1.3 0  5 1.4 0  5 1.5 0  5 1.6 0  5 1.7 0  5 1.8 0  5 1.9 0  5 2 0  5 2.1 0  5 2.2 0  5 2.3 0  5 2.4 0  5 2.5 0  5 2.6 0  5 2.7 0  5 2.8 0  5 2.9 0  5 3 0  5 3.1 0  5 3.199999999999999 0  5 3.300000000000001 0  5 3.4 0  5 3.5 0  5 3.6 0  5 3.699999999999999 0  5 3.800000000000001 0  5 3.9 0  5 4 0  5 4.1 0  5 4.199999999999999 0  5 4.300000000000001 0  5 4.4 0  5 4.5 0  5 4.6 0  5 4.699999999999999 0  5 4.800000000000001 0  5 4.9 0  4.9 5 0  4.8 5 0  4.7 5 0  4.6 5 0  4.5 5 0  4.4 5 0  4.3 5 0  4.2 5 0  4.1 5 0  4 5 0  3.9 5 0  3.8 5 0  3.7 5 0  3.6 5 0  3.5 5 0  3.4 5 0  3.3 5 0  3.2 5 0  3.1 5 0  3 5 0  2.9 5 0  2.8 5 0  2.7 5 0  2.6 5 0  2.5 5 0  2.4 5 0  2.3 5 0  2.2 5 0  2.1 5 0  2 5 0  1.9 5 0  1.8 5 0  1.7 5 0  1.6 5 0  1.5 5 0  1.4 5 0  1.3 5 0  1.2 5 0  1.1 5 0  1 5 0  0.9000000000000004 5 0  0.7999999999999998 5 0  0.7000000000000002 5 0  0.5999999999999996 5 0  0.5 5 0  0.4000000000000004 5 0  0.2999999999999998 5 0  0.2000000000000002 5 0  0.09999999999999964 5 0  0 5 0  -0.09999999999999964 5 0  -0.2000000000000002 5 0  -0.2999999999999998 5 0  -0.4000000000000004 5 0  -0.5 5 0  -0.5999999999999996 5 0  -0.7000000000000002 5 0  -0.7999999999999998 5 0  -0.9000000000000004 5 0  -1 5 0  -1.1 5 0  -1.2 5 0  -1.3 5 0  -1.4 5 0  -1.5 5 0  -1.6 5 0  -1.7 5 0  -1.8 5 0  -1.9 5 0  -2 5 0  -2.1 5 0  -2.2 5 0  -2.3 5 0  -2.4 5 0  -2.5 5 0  -2.6 5 0  -2.7 5 0  -2.8 5 0  -2.9 5 0  -3 5 0  -3.1 5 0  -3.199999999999999 5 0  -3.300000000000001 5 0  -3.4 5 0  -3.5 5 0  -3.6 5 0  -3.699999999999999 5 0  -3.800000000000001 5 0  -3.9 5 0  -4 5 0  -4.1 5 0  -4.199999999999999 5 0  -4.300000000000001 5 0  -4.4 5 0  -4.5 5 0  -4.6 5 0  -4.699999999999999 5 0  -4.800000000000001 5 0  -4.9 5 0  -5 4.9 0  -5 4.8 0  -5 4.7 0  -5 4.6 0  -5 4.5 0  -5 4.4 0  -5 4.3 0  -5 4.2 0  -5 4.1 0  -5 4 0  -5 3.9 0  -5 3.8 0  -5 3.7 0  -5 3.6 0  -5 3.5 0  -5 3.4 0  -5 3.3 0  -5 3.2 0  -5 3.1 0  -5 3 0  -5 2.9 0  -5 2.8 0  -5 2.7 0  -5 2.6 0  -5 2.5 0  -5 2.4 0  -5 2.3 0  -5 2.2 0  -5 2.1 0  -5 2 0  -5 1.9 0  -5 1.8 0  -5 1.7 0  -5 1.6 0  -5 1.5 0  -5 1.4 0  -5 1.3 0  -5 1.2 0  -5 1.1 0  -5 1 0  -5 0.9000000000000004 0  -5 0.7999999999999998 0  -5 0.7000000000000002 0  -5 0.5999999999999996 0  -5 0.5 0  -5 0.4000000000000004 0  -5 0.2999999999999998 0  -5 0.2000000000000002 0  -5 0.09999999999999964 0  -5 0 0  -5 -0.09999999999999964 0  -5 -0.2000000000000002 0  -5 -0.2999999999999998 0  -5 -0.4000000000000004 0  -5 -0.5 0  -5 -0.5999999999999996 0  -5 -0.7000000000000002 0  -5 -0.7999999999999998 0  -5 -0.9000000000000004 0  -5 -1 0  -5 -1.1 0  -5 -1.2 0  -5 -1.3 0  -5 -1.4 0  -5 -1.5 0  -5 -1.6 0  -5 -1.7 0  -5 -1.8 0  -5 -1.9 0  -5 -2 0  -5 -2.1 0  -5 -2.2 0  -5 -2.3 0  -5 -2.4 0  -5 -2.5 0  -5 -2.6 0  -5 -2.7 0  -5 -2.8 0  -5 -2.9 0  -5 -3 0  -5 -3.1 0  -5 -3.199999999999999 0  -5 -3.300000000000001 0  -5 -3.4 0  -5 -3.5 0  -5 -3.6 0  -5 -3.699999999999999 0  -5 -3.800000000000001 0  -5 -3.9 0  -5 -4 0  -5 -4.1 0  -5 -4.199999999999999 0  -5 -4.300000000000001 0  -5 -4.4 0  -5 -4.5 0  -5 -4.6 0  -5 -4.699999999999999 0  -5 -4.800000000000001 0  -5 -4.9 0  1.109156527723519 0.1003877393833533 0  1.092329004626716 0.1996634754898433 0  1.063951420092331 0.2973917156793491 0  1.026370646620596 0.3908001012647357 0  0.9781794394810748 0.4817544094700255 0  0.9207704667517869 0.5674552974551497 0  0.8535638616680348 0.6472786185934224 0  0.7772845368733323 0.7203885413800342 0  0.6941071421123045 0.7867033511942596 0  0.6039910820578128 0.8455451529838923 0  0.5073741999520833 0.8955898294703397 0  0.405742474765828 0.9368954959220783 0  0.3012818537235689 0.9693333397332452 0  0.1929298208009444 0.9914411101989575 0  0.08367096903107371 1.004295297768275 0  -0.02683392808344217 1.006878258599731 0  -0.1370929806418618 0.9988631430316899 0  -0.2462803585848505 0.9817855060478028 0  -0.3530303533069923 0.9548971285252359 0  -0.456016606939645 0.9181453607175173 0  -0.5542573877310576 0.8727465496542591 0  -0.6473107220254826 0.818193219991996 0  -0.7339313977018255 0.755751491682964 0  -0.8134331429600041 0.6859338243097002 0  -0.8851639615750934 0.6084047286520319 0  -0.9476576025761848 0.5252683977442226 0  -1.001385418689797 0.4374075076542857 0  -1.044593995121511 0.3446300562620622 0  -1.077165568162232 0.2489689287026482 0  -1.099298933524113 0.1508682389563463 0  -1.110551955340022 0.0508014766898202 0  -1.110578537623662 -0.04983973534990017 0  -1.099349101446193 -0.1497489304196897 0  -1.078336252936521 -0.2478285587168204 0  -1.044529923508328 -0.3441258543534077 0  -1.001640238805311 -0.4363448645040169 0  -0.9481714942594196 -0.524406185036116 0  -0.8858154874615087 -0.6072630298447279 0  -0.8140646735997876 -0.6841402955371645 0  -0.7341262872295518 -0.753687138779081 0  -0.6469544320903582 -0.8155217019037804 0  -0.5545899056012201 -0.870325364187994 0  -0.4548258996377526 -0.9159034250660933 0  -0.3517384461034606 -0.953170836568054 0  -0.2448061277987232 -0.9804613032724426 0  -0.1360262289625646 -0.9979365245506886 0  -0.02613738048866762 -1.006435547016675 0  0.0840337938787173 -1.003365140869634 0  0.1941113428987357 -0.9902374686820643 0  0.3018489485060483 -0.9681126271804378 0  0.407551271662632 -0.9357938147332656 0  0.5080844296109961 -0.8946711469634958 0  0.6044178486575982 -0.8447856237932053 0  0.6943475246901967 -0.7870982950396586 0  0.7774685079308638 -0.7207217788491473 0  0.8532445899502383 -0.6468313039210145 0  0.9200742713650362 -0.5667634785637771 0  0.9783417625995423 -0.4813205328218665 0  1.027367600999945 -0.3908838468229754 0  1.064878677198346 -0.2968173693585519 0  1.092410581184162 -0.1991745904174342 0  1.109187294302027 -0.1001323945242564 0  -2.449201045167875 4.919294892945127 0  -2.44913215243894 -4.911780049233652 0  4.911734493223355 2.448818418435691 0  4.91973947285569 -2.45019621965215 0  2.446975698921951 -4.897236300337259 0  2.441382894628302 4.900949855588135 0  -4.911750694760839 -2.448834682219084 0  -4.911751226489176 2.448838427077684 0  -1.749176799506039 4.912702992902906 0  -1.744934763418585 -4.916076427490757 0  4.922257434807079 1.744905562423539 0  4.91102115116438 -1.748788987523597 0  -4.911294445350739 -1.748508974588787 0  -4.912103619848306 1.748243870306411 0  1.746490576436419 4.906685693879227 0  1.747987982360152 -4.89505220275753 0  -1.149352792549738 4.910843027589164 0  -1.130157268127158 -4.918584780886305 0  -4.911476835107505 -1.148670463486192 0  -4.911302758431576 1.148469789168918 0  1.144313948865815 -4.914855358623432 0  1.14935642289717 4.910835719696165 0  4.911636076857778 1.146951717192208 0  4.922187687769078 -1.15264734359094 0  -0.5469353290681238 -4.91220764250736 0  -0.5466916740407255 4.920687758391739 0  -4.91058323402216 -0.5491213873393549 0  -4.910608695362067 0.5476744560444599 0  4.909947216406652 -0.5494476493098627 0  4.921267285963573 0.5461485871363598 0  0.5427427956910309 -4.899409574123223 0  0.5514248095059411 4.917589325206089 0  -4.912755556234135 -3.04903434140651 0  4.919269235952411 3.047002921657396 0  4.912273172203649 -3.049022131529647 0  -4.913599309838311 3.046119962176768 0  3.055858514988842 -4.918234297851799 0  -3.049230929423997 -4.912228540166426 0  3.052785614230239 4.914291029860345 0  -3.048673148918025 4.913111275638849 0  -4.909831273960316 -0.04994895543092776 0  0.0451363050363883 -4.914174665711552 0  0.0495858081807091 4.92103231301053 0  4.916699265941587 -0.05132843854989886 0  3.546060928347166 -4.91962282304191 0  -3.549380257086817 4.
[...]
<PointData  Vectors="f_1156"> 
<DataArray  type="Float64"  Name="f_1156"  NumberOfComponents="3" format="ascii">-1.6058018841380333e-40 -1.6525330356145154e-40 0.0000000000000000e+00  2.0386922082571708e-40 -2.0464568486573309e-40 0.0000000000000000e+00  -2.4526498778466227e-40 -2.4782031471346796e-40 0.0000000000000000e+00  -3.0735281776134537e-40 3.2170182270315982e-40 0.0000000000000000e+00  1.3926025473120028e+01 -5.6973751257543903e-01 0.0000000000000000e+00  3.5881132178936938e-40 3.6784188754353075e-40 0.0000000000000000e+00  8.1283847960060342e-40 9.0401622351036544e-40 0.0000000000000000e+00  -1.8031450569115227e-39 -2.1216590104470191e-39 0.0000000000000000e+00  1.8587316490133682e-38 2.0808067526784329e-38 0.0000000000000000e+00  -5.9834537581347707e-38 -6.5091434402549455e-38 0.0000000000000000e+00  2.3057360501950601e-37 2.4781957059732262e-37 0.0000000000000000e+00  -8.3747810414460648e-37 -9.1780246095029099e-37 0.0000000000000000e+00  4.9357422031421112e-36 5.9580207094234720e-36 0.0000000000000000e+00  -3.0116216403579462e-35 -3.8492863840895174e-35 0.0000000000000000e+00  1.2132243030852165e-34 1.5780366939032170e-34 0.0000000000000000e+00  -2.5676108235143402e-34 -3.4807455771064515e-34 0.0000000000000000e+00  5.0113979615746772e-34 7.0699910942619624e-34 0.0000000000000000e+00  1.7968143530154249e-33 2.5896427845142538e-33 0.0000000000000000e+00  -8.1959834271965261e-33 -1.1893908864398957e-32 0.0000000000000000e+00  2.4010607232879789e-32 3.5531389775252424e-32 0.0000000000000000e+00  -1.3461847882446666e-31 -2.0490856340129452e-31 0.0000000000000000e+00  3.5331776670648241e-31 5.4180449513367212e-31 0.0000000000000000e+00  1.8788883172853221e-31 3.4292023169468861e-31 0.0000000000000000e+00  -1.6042125429692808e-30 -2.7990184362885579e-30 0.0000000000000000e+00  -8.6018559821418385e-31 -1.3559652166196044e-30 0.0000000000000000e+00  -2.2856535325339225e-30 -3.6566847263677987e-30 0.0000000000000000e+00  5.4604717522455367e-30 9.5985705692175611e-30 0.0000000000000000e+00  -1.3677264670577381e-29 -2.2341651340855274e-29 0.0000000000000000e+00  4.5522812742286989e-29 8.0626744219511320e-29 0.0000000000000000e+00  2.7214193554346893e-29 5.1561330441379299e-29 0.0000000000000000e+00  -2.2525315920147506e-28 -4.3928640270493774e-28 0.0000000000000000e+00  -7.4698604396482921e-29 -1.5527613381706985e-28 0.0000000000000000e+00  -1.2498908867771385e-28 -2.5934883950736544e-28 0.0000000000000000e+00  2.1924788439241845e-28 4.6156504532710418e-28 0.0000000000000000e+00  6.6299019895303904e-28 1.4933608362645545e-27 0.0000000000000000e+00  -7.6792458820941926e-29 -1.1997145457179699e-28 0.0000000000000000e+00  1.3569395209032134e-28 4.0087626186180192e-28 0.0000000000000000e+00  -1.1294612338062019e-28 -2.6814585568173530e-28 0.0000000000000000e+00  -4.8786816154449055e-28 -1.4276199395875998e-27 0.0000000000000000e+00  -4.4099741900354942e-28 -1.4344432495311813e-27 0.0000000000000000e+00  -3.2420482873404003e-29 -1.8371449565744271e-28 0.0000000000000000e+00  4.7753494961238106e-28 1.7211566584045546e-27 0.0000000000000000e+00  2.5660323499929903e-28 1.0510329766991092e-27 0.0000000000000000e+00  -5.6532810705043368e-29 -1.9563471141410120e-28 0.0000000000000000e+00  8.2940332415841169e-29 4.2907455932131265e-28 0.0000000000000000e+00  3.1516383755991170e-28 1.1322421553087960e-27 0.0000000000000000e+00  4.1605734995111971e-28 1.8995060785574366e-27 0.0000000000000000e+00  -2.1786522642020914e-28 -1.0764047540683733e-27 0.0000000000000000e+00  8.6541308382529773e-28 6.1258170242266213e-27 0.0000000000000000e+00  -5.8241249460018580e-30 -4.4539204201957033e-29 0.0000000000000000e+00  -4.5089434865750171e-28 -5.3291292423647828e-27 0.0000000000000000e+00  -1.0579134553615598e-28 -3.1460653573154423e-27 0.0000000000000000e+00  -1.7889219892381478e-28 -4.4640698181249287e-27 0.0000000000000000e+00  -3.7941457873863816e-28 -1.1045734553797840e-26 0.0000000000000000e+00  -1.9582242755142776e-28 -1.2658990492450966e-26 0.0000000000000000e+00  1.5255675375302661e-29 -2.2028875190678729e-27 0.0000000000000000e+00  1.7472018893423229e-28 -6.9572232557370920e-27 0.0000000000000000e+00  2.1102850454716865e-28 -2.5601602753102640e-27 0.0000000000000000e+00  4.3641506412670300e-28 -4.5292898887518906e-27 0.0000000000000000e+00  -2.4641875342041476e-28 1.9662194317586168e-27 0.0000000000000000e+00  7.6291699698020596e-28 -6.1165999648255947e-27 0.0000000000000000e+00  8.4379267241252447e-28 -5.5430339099222369e-27 0.0000000000000000e+00  -1.8087609153368645e-28 1.0813505102777111e-27 0.0000000000000000e+00  -1.6740007009791258e-27 8.1067047635058249e-27 0.0000000000000000e+00  -7.3860737815879276e-28 3.2152189206453783e-27 0.0000000000000000e+00  -4.0353241341121947e-28 1.9156846166656278e-27 0.0000000000000000e+00  -1.2086173681769600e-27 4.6324825680564131e-27 0.0000000000000000e+00  -7.1505259408195910e-28 2.4453915894456123e-27 0.0000000000000000e+00  8.3915964016104582e-28 -2.7218513983601083e-27 0.0000000000000000e+00  4.1831306310628819e-28 -1.2796042678052248e-27 0.0000000000000000e+00  8.6840650739080779e-29 -2.8755735525486122e-28 0.0000000000000000e+00  3.3966732102103603e-28 -9.8632148221054093e-28 0.0000000000000000e+00  3.0328856189512906e-28 -7.7081702536172086e-28 0.0000000000000000e+00  -2.5808453740758786e-28 6.3747318527193093e-28 0.0000000000000000e+00  -2.1003066718865032e-28 4.7640968610875879e-28 0.0000000000000000e+00  -1.5111497069573710e-28 3.2772321644048998e-28 0.0000000000000000e+00  1.9233442616831412e-29 -4.5488412439637387e-29 0.0000000000000000e+00  1.0844991021309278e-28 -2.2367312775169527e-28 0.0000000000000000e+00  1.5357783773725325e-28 -2.9311146836422660e-28 0.0000000000000000e+00  -5.2396846135027695e-30 1.5156034060451722e-29 0.0000000000000000e+00  -1.0559755511509860e-28 1.8988493955041577e-28 0.0000000000000000e+00  1.7250231163250515e-29 -3.1413729841594312e-29 0.0000000000000000e+00  5.7800803139191394e-30 -9.3725943349890360e-30 0.0000000000000000e+00  -1.4769911341326797e-29 2.5576199452263402e-29 0.0000000000000000e+00  -1.0617038517301506e-30 1.7575880705339234e-30 0.0000000000000000e+00  1.6446493672777959e-30 -2.7281906017455332e-30 0.0000000000000000e+00  -8.5373462639220551e-31 1.3914149625328903e-30 0.0000000000000000e+00  1.0674455652470428e-31 -1.7110621013050017e-31 0.0000000000000000e+00  -1.2939743410944064e-32 1.9652574888470797e-32 0.0000000000000000e+00  -4.5871491279101003e-34 8.3651346472796527e-34 0.0000000000000000e+00  6.9176871543461796e-33 -1.0155088909039663e-32 0.0000000000000000e+00  3.8987914498691071e-34 -4.8137165370374152e-34 0.0000000000000000e+00  -4.5879179170602271e-34 6.3223935139214603e-34 0.0000000000000000e+00  5.1190734750234447e-35 -7.4476283917015456e-35 0.0000000000000000e+00  -2.0401483650156893e-35 2.6788726985161379e-35 0.0000000000000000e+00  4.7164067187228697e-36 -5.9604733317528889e-36 0.0000000000000000e+00  -1.5626220687097285e-36 1.9256967931836165e-36 0.0000000000000000e+00  5.0923764044621297e-37 -6.0222375750069791e-37 0.0000000000000000e+00  -2.5392309539663621e-37 2.9606581623364399e-37 0.0000000000000000e+00  8.5789560909077427e-38 -9.8842248409583943e-38 0.0000000000000000e+00  -1.7686926669768179e-38 1.9826866091151679e-38 0.0000000000000000e+00  7.1761985002740234e-39 -7.8712388725750706e-39 0.0000000000000000e+00  -4.3051482386697942e-40 4.8965089555600183e-40 0.0000000000000000e+00  -3.4856117393048849e-40 3.5460161362853210e-40 0.0000000000000000e+00  -1.3204206032234338e-41 6.9972847621038923e-42 0.0000000000000000e+00  4.0231666075652575e-40 -3.9941108084089140e-40 0.0000000000000000e+00  -9.3305519093146653e-40 8.8695425338930281e-40 0.0000000000000000e+00  3.6038129296141316e-39 -3.3222250554224943e-39 0.0000000000000000e+00  -2.4348794374543697e-39 2.1557291009937922e-39 0.0000000000000000e+00  -1.5754385819429447e-38 1.3976112495911047e-38 0.0000000000000000e+00  6.3294609646383294e-38 -5.4569921756102040e-38 0.0000000000000000e+00  -8.8480043095556627e-38 7.4310065699024668e-38 0.0000000000000000e+00  -1.4332632988610036e-37 1.1780651561011353e-37 0.0000000000000000e+00  9.6497676638033306e-37 -7.7261557530022742e-37 0.0000000000000000e+00  -1.7192758745318634e-36 1.3484640810541932e-36 0.0000000000000000e+00  -1.3298815633519405e-36 9.8512135086073124e-37 0.0000000000000000e+00  1.3300870950990364e-35 -9.8246400766426811e-36 0.0000000000000000e+00  -2.6155183610026932e-35 1.8898065892879673e-35 0.0000000000000000e+00  -1.7560297923415136e-35 1.1767318547696394e-35 0.0000000000000000e+00  1.9264760266635124e-34 -1.3005959241701210e-34 0.0000000000000000e+00  -3.1365970049077669e-34 2.0955918362965046e-34 0.0000000000000000e+00  -4.0874412295429788e-34 2.5233290301036646e-34 0.0000000000000000e+00  2.6092099209093577e-33 -1.6013973015813844e-33 0.0000000000000000e+00  -2.6322830626406318e-33 1.6155148758752255e-33 0.0000000000000000e+00  -9.3311446435410985e-33 5.2428595929254484e-33 0.0000000000000000e+00  2.9873477900515010e-32 -1.6712416827421404e-32 0.0000000000000000e+00  1.9769940050182536e-33 -8.9456727260303550e-35 0.0000000000000000e+00  -1.6067295363275658e-31 8.1389991089394962e-32 0.0000000000000000e+00  2.1583240426712898e-31 -1.0902600233618764e-31 0.0000000000000000e+00  5.2973329923708298e-31 -2.3902204165977517e-31 0.0000000000000000e+00  -1.5932273725204026e-30 7.2249748481982894e-31 0.0000000000000000e+00  -8.7968026497540188e-31 3.2210386883027205e-31 0.0000000000000000e+00  8.3950769014430948e-30 -3.4140820695998701e-30 0.0000000000000000e+00  -2.5932002897920410e-30 1.2738278931958874e-30 0.0000000000000000e+00  -3.6627595785577285e-29 1.3191723252060574e-29 0.0000000000000000e+00  3.0508968011439206e-29 -1.1665690221590218e-29 0.0000000000000000e+00  1.4751113730562909e-28 -4.6783408944862545e-29 0.0000000000000000e+00  -1.6690386619441933e-28 5.5560158206740769e-29 0.0000000000000000e+00  -6.0779876069323824e-28 1.6790625740085459e-28 0.0000000000000000e+00  6.4107324983066091e-28 -1.9638148677276916e-28 0.0000000000000000e+00  2.5101377896773334e-27 -6.0120242146333078e-28 0.0000000000000000e+00  -1.8954376365818509e-27 5.2248583161534327e-28 0.0000000000000000e+00  -9.6134603234435070e-27 1.9390081937999057e-27 0.0000000000000000e+00  2.4310306842336707e-27 -6.9625236047742132e-28 0.0000000000000000e+00  2.9896089071304973e-26 -5.0765169817554368e-27 0.0000000000000000e+00  1.4532910248562573e-26 -1.5804568368514630e-27 0.0000000000000000e+00  -8.5104006081948261e-26 1.2079967508182175e-26 0.0000000000000000e+00  -1.2894773161247080e-25 1.4966065604678410e-26 0.0000000000000000e+00  1.4611594553764830e-25 -1.3261971148796809e-26 0.0000000000000000e+00  8.5024621135782808e-25 -5.3093038001454488e-26 0.0000000000000000e+00  1.5526479363448607e-24 -5.9204071510084195e-26 0.0000000000000000e+00  1.8939100436102088e-24 -3.3770921992102944e-26 0.0000000000000000e+00  1.8517502800784932e-24 -9.2100127251756959e-27 0.0000000000000000e+00  1.8731405239444548e-24 -2.1936591669227150e-27 0.0000000000000000e+00  2.0071223643076231e-24 1.2512643866806044e-26 0.0000000000000000e+00  1.8619368438048186e-24 4.0685957527475507e-26 0.0000000000000000e+00  1.2186661268468678e-24 5.1164173045063277e-26 0.0000000000000000e+00  3.5934317566975700e-25 2.4908032997628776e-26 0.0000000000000000e+00  -1.6566601675141911e-25 -1.0966278763089273e-26 0.0000000000000000e+00  -2.1626277099982189e-25 -2.1674673757431565e-26 0.0000000000000000e+00  -3.8584920064503426e-26 -5.6989620753630975e-27 0.0000000000000000e+00  6.0105266972624167e-26 7.8914823494612308e-27 0.0000000000000000e+00  3.6759608680367481e-26 6.0223881315833649e-27 0.0000000000000000e+00  -5.1495958651708694e-27 -8.0008699155482433e-28 0.0000000000000000e+00  -1.0773536913898818e-26 -2.1898243087382266e-27 0.0000000000000000e+00  -7.4213640306873019e-28 -2.0182313700689234e-28 0.0000000000000000e+00  2.6807099110298232e-27 6.4736845972309312e-28 0.0000000000000000e+00  3.8747681097807980e-28 1.1084277439189928e-28 0.0000000000000000e+00  -6.3471170041685363e-28 -1.7955259673525165e-28 0.0000000000000000e+00  -8.7909403991739435e-29 -2.9188837117648888e-29 0.0000000000000000e+00  1.4744604958290974e-28 4.8648875400688887e-29 0.0000000000000000e+00  6.7279322777527404e-30 3.0912845278205310e-30 0.0000000000000000e+00  -3.3046754278980104e-29 -1.2428287573850437e-29 0.0000000000000000e+00  2.7916806144080498e-30 9.3177722652704518e-31 0.0000000000000000e+00  6.3085476959270041e-30 2.7068016246793196e-30 0.0000000000000000e+00  -1.8464688945315849e-30 -7.6754020972382068e-31 0.0000000000000000e+00  -9.3263527892959410e-31 -4.4986095790368632e-31 0.0000000000000000e+00  6.0027871355714710e-31 2.8430780046151467e-31 0.0000000000000000e+00  3.3290129288269390e-32 2.2629483938089932e-32 0.0000000000000000e+00  -1.3258418901384737e-31 -6.9008165854131261e-32 0.0000000000000000e+00  2.9892019491108527e-32 1.4841249885280748e-32 0.0000000000000000e+00  1.9054833021313371e-32 1.0980560588264817e-32 0.0000000000000000e+00  -1.2214795944228969e-32 -6.9107750731598588e-33 0.0000000000000000e+00  1.8567638227804151e-34 3.8186204673876289e-36 0.0000000000000000e+00  2.2003857209518972e-33 1.3770336250323968e-33 0.0000000000000000e+00  -8.3576008993409687e-34 -5.1622832336107258e-34 0.0000000000000000e+00  -1.1637943608056637e-34 -8.4676201967391964e-35 0.0000000000000000e+00  2.0119450921249372e-34 1.3601038784328876e-34 0.0000000000000000e+00  -5.6706272318496369e-35 -3.8411628193644422e-35 0.0000000000000000e+00  -1.3163340621275601e-35 -9.8057941272124087e-36 0.0000000000000000e+00  1.4926436098143167e-35 1.0953185102597557e-35 0.0000000000000000e+00  -3.8868622701142533e-36 -2.8689330829525532e-36 0.0000000000000000e+00  -9.2208291488662384e-37 -7.3258983091071414e-37 0.0000000000000000e+00  1.0480835714543762e-36 8.3035938205134096e-37 0.0000000000000000e+00  -3.0278035468071761e-37 -2.4408267856942877e-37 0.0000000000000000e+00  -3.7684315686411540e-38 -3.1787741909412991e-38 0.0000000000000000e+00  6.5906699733958364e-38 5.6180435048650054e-38 0.0000000000000000e+00  -2.5044387149747675e-38 -2.1796227385330407e-38 0.0000000000000000e+00  8.7075875233232600e-40 7.7928890079993213e-40 0.0000000000000000e+00  3.5299909595279561e-39 3.2001560529149863e-39 0.0000000000000000e+00  -1.8390507118171541e-39 -1.7047220335996845e-39 0.0000000000000000e+00  3.9553011979776798e-40 3.7564320458350721e-40 0.0000000000000000e+00  1.9169492292238494e-40 1.8450646880091860e-40 0.0000000000000000e+00  3.6378918974862742e-40 3.8800262573302006e-40 0.0000000000000000e+00  -1.0696158273115862e-39 -1.1311898621787551e-39 0.0000000000000000e+00  2.1015836588148629e-39 2.2891138535533290e-39 0.0000000000000000e+00  -1.4244279810077336e-38 -1.5464585576507374e-38 0.0000000000000000e+00  1.0164918585649287e-37 1.1167055384374285e-37 0.0000000000000000e+00  -2.3356823544493746e-37 -2.6222208968284843e-37 0.0000000000000000e+00  2.6905357842572564e-37 3.1518189756865383e-37 0.0000000000000000e+00  -4.2301426268110924e-36 -5.0731158165202972e-36 0.0000000000000000e+00  1.3500937194624666e-35 1.6322667482949674e-35 0.0000000000000000e+00  -5.8929976468437467e-35 -7.2435521425946012e-35 0.0000000000000000e+00  1.3124591063946273e-34 1.6769367451041421e-34 0.0000000000000000e+00  -2.7440744355467225e-34 -3.6833078588743352e-34 0.0000000000000000e+00  1.4084756241388507e-33 1.8974139827174492e-33 0.0000000000000000e+00  -1.0931942574278973e-33 -1.4731236115780412e-33 0.0000000000000000e+00  5.7813857175258043e-33 7.5951546070263452e-33 0.0000000000000000e+00  4.3083223736755614e-32 6.6609087572984078e-32 0.0000000000000000e+00  -2.0396547552721152e-31 -3.0859830006732390e-31 0.0000000000000000e+00  -5.5787717152818014e-31 -9.1618342166832263e-31 0.0000000000000000e+00  1.0649716675766964e-30 1.7892333223796154e-30 0.0000000000000000e+00  -9.8093442035216179e-32 -1.5774142118922950e-31 0.0000000000000000e+00  -3.3065248666162881e-30 -5.6624785248763214e-30 0.0000000000000000e+00  9.7797021671964327e-30 1.6334131607512139e-29 0.0000000000000000e+00  1.4849109331659795e-29 2.7536891284643717e-29 0.0000000000000000e+00  -9.7235185947807302e-29 -1.7918547016122060e-28 0.0000000000000000e+00  3.1530133089134888e-29 5.9742554915140093e-29 0.0000000000000000e+00  1.0021915972134866e-28 2.1036657243671327e-28 0.0000000000000000e+00  3.9671365548349666e-29 7.4290253953993099e-29 0.0000000000000000e+00  3.4072987349691299e-28 6.9745876497895262e-28 0.0000000000000000e+00  1.4500556665508161e-28 3.3619340402724438e-28 0.0000000000000000e+00  -4.1576401969568371e-28 -8.8142591005191714e-28 0.0000000000000000e+00  -4.0215861313891338e-28 -1.0577160045538582e-27 0.0000000000000000e+00  4.0996952261559689e-28 9.9260906552447910e-28 0.0000000000000000e+00  7.4856470362322590e-28 1.9199028901203523e-27 0.0000000000000000e+00  3.8932685517650647e-28 1.1810942413478466e-27 0.0000000000000000e+00  7.6388748245606311e-29 4.5307266836930268e-28 0.0000000000000000e+00  -8.5698852023401026e-28 -2.6133117697849980e-27 0.0000000000000000e+00  -3.1612367622632663e-28 -9.1087001107437052e-28 0.0000000000000000e+00  -1.4687461224392453e-28 -4.1901537017407389e-28 0.0000000000000000e+00  -4.2079384151728610e-28 -1.6627008057620872e-27 0.0000000000000000e+00  -3.7330324040833811e-28 -1.5945996677588015e-27 0.0000000000000000e+00  -3.2906658658078040e-28 -1.9907242227719420e-27 0.0000000000000000e+00  4.8258098852717210e-29 -2.9803880925295027e-28 0.0000000000000000e+00  3.9867327383272579e-28 2.1336706349286322e-27 0.0000000000000000e+00  5.4387764146597212e-29 1.7759134567548961e-28 0.0000000000000000e+00  -2.7388017687371574e-28 -2.5201094275540560e-27 0.0000000000000000e+00  1.5993042253474142e-28 1.3355811841554836e-27 0.0000000000000000e+00  9.5864168463527559e-29 1.1929423826370594e-27 0.0000000000000000e+00  -6.7825581240742477e-29 -1.3970532686140476e-27 0.0000000000000000e+00  -9.1468060754700677e-30 -1.8601976293817720e-28 0.0000000000000000e+00  -1.9053856089271887e-29 -1.4788049427749212e-27 0.0000000000000000e+00  -4.4602228695496512e-29 2.4559873235612092e-27 0.0000000000000000e+00  -1.2205665453363391e-28 2.2975548889979751e-27 0.0000000000000000e+00  4.9224101777059652e-29 -1.6772178370685748e-27 0.0000000000000000e+00  -3.5766282088166213e-29 -1.6090493170595911e-28 0.0000000000000000e+00  2.3092666009713726e-28 -2.3683284866341535e-27 0.0000000000000000e+00  -3.1798403356071879e-28 1.8021871343934987e-27 0.0000000000000000e+00  -1.9806890957055858e-28 8.1754189168337985e-28 0.0000000000000000e+00  1.9804441918250427e-29 -7.0181983515055326e-28 0.0000000000000000e+00  -4.9741125797003617e-29 -2.0092690878750757e-28 0.0000000000000000e+00  5.8735593603906049e-28 -2.8311169713094288e-27 0.0000000000000000e+00  7.2993796098591934e-28 -3.3884041598013495e-27 0.0000000000000000e+00  1.2354157807021527e-27 -4.7082512326234022e-27 0.0000000000000000e+00  4.0579842785876307e-28 -1.3023512994443741e-27 0.0000000000000000e+00  -3.1756933314793404e-28 1.2278104644652461e-27 0.0000000000000000e+00  -8.2610207353733378e-28 2.5054829946987344e-27 0.0000000000000000e+00  -9.8335693033918624e-28 2.7410517700919715e-27 0.0000000000000000e+00  -2.8566412526517326e-28 6.9998250260076144e-28 0.0000000000000000e+00  1.6247909279566638e-28 -4.4694636634767374e-28 0.0000000000000000e+00  2.1271826338670384e-28 -5.2553331020410612e-28 0.0000000000000000e+00  8.7128298431290390e-28 -1.9168611839704962e-27 0.0000000000000000e+00  3.5975872275364175e-28 -7.4793313179800241e-28 0.0000000000000000e+00  -2.9649538658279807e-28 6.0367804728337332e-28 0.0000000000000000e+00  -1.0868078526986828e-29 2.9889815454486075e-29 0.0000000000000000e+00  3.2417072342705313e-29 -6.7701176903817537e-29 0.0000000000000000e+00  8.1062778521534194e-29 -1.5306409018935292e-28 0.0000000000000000e+00  -1.6423776361033670e-29 3.1199610732984306e-29 0.0000000000000000e+00  -2.4072919211196626e-29 4.2210720332175394e-29 0.0000000000000000e+00  2.35