<?xml version="1.0"?>
<VTKFile type="UnstructuredGrid"  version="0.1"  >
<UnstructuredGrid>
<Piece  NumberOfPoints="11902" NumberOfCells="23402">
<Points>
<DataArray  type="Float64"  NumberOfComponents="3"  format="ascii">-5 -5 0  5 -5 0  5 5 0  -5 5 0  1.043457053570584 0.0002828768954929816 0  -4.9 -5 0  -4.8 -5 0  -4.7 -5 0  -4.6 -5 0  -4.5 -5 0  -4.4 -5 0  -4.3 -5 0  -4.2 -5 0  -4.1 -5 0  -4 -5 0  -3.9 -5 0  -3.8 -5 0  -3.7 -5 0  -3.6 -5 0  -3.5 -5 0  -3.4 -5 0  -3.3 -5 0  -3.2 -5 0  -3.1 -5 0  -3 -5 0  -2.9 -5 0  -2.8 -5 0  -2.7 -5 0  -2.6 -5 0  -2.5 -5 0  -2.4 -5 0  -2.3 -5 0  -2.2 -5 0  -2.1 -5 0  -2 -5 0  -1.9 -5 0  -1.8 -5 0  -1.7 -5 0  -1.6 -5 0  -1.5 -5 0  -1.4 -5 0  -1.3 -5 0  -1.2 -5 0  -1.1 -5 0  -1 -5 0  -0.9000000000000004 -5 0  -0.7999999999999998 -5 0  -0.7000000000000002 -5 0  -0.5999999999999996 -5 0  -0.5 -5 0  -0.4000000000000004 -5 0  -0.2999999999999998 -5 0  -0.2000000000000002 -5 0  -0.09999999999999964 -5 0  0 -5 0  0.09999999999999964 -5 0  0.2000000000000002 -5 0  0.2999999999999998 -5 0  0.4000000000000004 -5 0  0.5 -5 0  0.5999999999999996 -5 0  0.7000000000000002 -5 0  0.7999999999999998 -5 0  0.9000000000000004 -5 0  1 -5 0  1.1 -5 0  1.2 -5 0  1.3 -5 0  1.4 -5 0  1.5 -5 0  1.6 -5 0  1.7 -5 0  1.8 -5 0  1.9 -5 0  2 -5 0  2.1 -5 0  2.2 -5 0  2.3 -5 0  2.4 -5 0  2.5 -5 0  2.6 -5 0  2.7 -5 0  2.8 -5 0  2.9 -5 0  3 -5 0  3.1 -5 0  3.199999999999999 -5 0  3.300000000000001 -5 0  3.4 -5 0  3.5 -5 0  3.6 -5 0  3.699999999999999 -5 0  3.800000000000001 -5 0  3.9 -5 0  4 -5 0  4.1 -5 0  4.199999999999999 -5 0  4.300000000000001 -5 0  4.4 -5 0  4.5 -5 0  4.6 -5 0  4.699999999999999 -5 0  4.800000000000001 -5 0  4.9 -5 0  5 -4.9 0  5 -4.8 0  5 -4.7 0  5 -4.6 0  5 -4.5 0  5 -4.4 0  5 -4.3 0  5 -4.2 0  5 -4.1 0  5 -4 0  5 -3.9 0  5 -3.8 0  5 -3.7 0  5 -3.6 0  5 -3.5 0  5 -3.4 0  5 -3.3 0  5 -3.2 0  5 -3.1 0  5 -3 0  5 -2.9 0  5 -2.8 0  5 -2.7 0  5 -2.6 0  5 -2.5 0  5 -2.4 0  5 -2.3 0  5 -2.2 0  5 -2.1 0  5 -2 0  5 -1.9 0  5 -1.8 0  5 -1.7 0  5 -1.6 0  5 -1.5 0  5 -1.4 0  5 -1.3 0  5 -1.2 0  5 -1.1 0  5 -1 0  5 -0.9000000000000004 0  5 -0.7999999999999998 0  5 -0.7000000000000002 0  5 -0.5999999999999996 0  5 -0.5 0  5 -0.4000000000000004 0  5 -0.2999999999999998 0  5 -0.2000000000000002 0  5 -0.09999999999999964 0  5 0 0  5 0.09999999999999964 0  5 0.2000000000000002 0  5 0.2999999999999998 0  5 0.4000000000000004 0  5 0.5 0  5 0.5999999999999996 0  5 0.7000000000000002 0  5 0.7999999999999998 0  5 0.9000000000000004 0  5 1 0  5 1.1 0  5 1.2 0  5 1.3 0  5 1.4 0  5 1.5 0  5 1.6 0  5 1.7 0  5 1.8 0  5 1.9 0  5 2 0  5 2.1 0  5 2.2 0  5 2.3 0  5 2.4 0  5 2.5 0  5 2.6 0  5 2.7 0  5 2.8 0  5 2.9 0  5 3 0  5 3.1 0  5 3.199999999999999 0  5 3.300000000000001 0  5 3.4 0  5 3.5 0  5 3.6 0  5 3.699999999999999 0  5 3.800000000000001 0  5 3.9 0  5 4 0  5 4.1 0  5 4.199999999999999 0  5 4.300000000000001 0  5 4.4 0  5 4.5 0  5 4.6 0  5 4.699999999999999 0  5 4.800000000000001 0  5 4.9 0  4.9 5 0  4.8 5 0  4.7 5 0  4.6 5 0  4.5 5 0  4.4 5 0  4.3 5 0  4.2 5 0  4.1 5 0  4 5 0  3.9 5 0  3.8 5 0  3.7 5 0  3.6 5 0  3.5 5 0  3.4 5 0  3.3 5 0  3.2 5 0  3.1 5 0  3 5 0  2.9 5 0  2.8 5 0  2.7 5 0  2.6 5 0  2.5 5 0  2.4 5 0  2.3 5 0  2.2 5 0  2.1 5 0  2 5 0  1.9 5 0  1.8 5 0  1.7 5 0  1.6 5 0  1.5 5 0  1.4 5 0  1.3 5 0  1.2 5 0  1.1 5 0  1 5 0  0.9000000000000004 5 0  0.7999999999999998 5 0  0.7000000000000002 5 0  0.5999999999999996 5 0  0.5 5 0  0.4000000000000004 5 0  0.2999999999999998 5 0  0.2000000000000002 5 0  0.09999999999999964 5 0  0 5 0  -0.09999999999999964 5 0  -0.2000000000000002 5 0  -0.2999999999999998 5 0  -0.4000000000000004 5 0  -0.5 5 0  -0.5999999999999996 5 0  -0.7000000000000002 5 0  -0.7999999999999998 5 0  -0.9000000000000004 5 0  -1 5 0  -1.1 5 0  -1.2 5 0  -1.3 5 0  -1.4 5 0  -1.5 5 0  -1.6 5 0  -1.7 5 0  -1.8 5 0  -1.9 5 0  -2 5 0  -2.1 5 0  -2.2 5 0  -2.3 5 0  -2.4 5 0  -2.5 5 0  -2.6 5 0  -2.7 5 0  -2.8 5 0  -2.9 5 0  -3 5 0  -3.1 5 0  -3.199999999999999 5 0  -3.300000000000001 5 0  -3.4 5 0  -3.5 5 0  -3.6 5 0  -3.699999999999999 5 0  -3.800000000000001 5 0  -3.9 5 0  -4 5 0  -4.1 5 0  -4.199999999999999 5 0  -4.300000000000001 5 0  -4.4 5 0  -4.5 5 0  -4.6 5 0  -4.699999999999999 5 0  -4.800000000000001 5 0  -4.9 5 0  -5 4.9 0  -5 4.8 0  -5 4.7 0  -5 4.6 0  -5 4.5 0  -5 4.4 0  -5 4.3 0  -5 4.2 0  -5 4.1 0  -5 4 0  -5 3.9 0  -5 3.8 0  -5 3.7 0  -5 3.6 0  -5 3.5 0  -5 3.4 0  -5 3.3 0  -5 3.2 0  -5 3.1 0  -5 3 0  -5 2.9 0  -5 2.8 0  -5 2.7 0  -5 2.6 0  -5 2.5 0  -5 2.4 0  -5 2.3 0  -5 2.2 0  -5 2.1 0  -5 2 0  -5 1.9 0  -5 1.8 0  -5 1.7 0  -5 1.6 0  -5 1.5 0  -5 1.4 0  -5 1.3 0  -5 1.2 0  -5 1.1 0  -5 1 0  -5 0.9000000000000004 0  -5 0.7999999999999998 0  -5 0.7000000000000002 0  -5 0.5999999999999996 0  -5 0.5 0  -5 0.4000000000000004 0  -5 0.2999999999999998 0  -5 0.2000000000000002 0  -5 0.09999999999999964 0  -5 0 0  -5 -0.09999999999999964 0  -5 -0.2000000000000002 0  -5 -0.2999999999999998 0  -5 -0.4000000000000004 0  -5 -0.5 0  -5 -0.5999999999999996 0  -5 -0.7000000000000002 0  -5 -0.7999999999999998 0  -5 -0.9000000000000004 0  -5 -1 0  -5 -1.1 0  -5 -1.2 0  -5 -1.3 0  -5 -1.4 0  -5 -1.5 0  -5 -1.6 0  -5 -1.7 0  -5 -1.8 0  -5 -1.9 0  -5 -2 0  -5 -2.1 0  -5 -2.2 0  -5 -2.3 0  -5 -2.4 0  -5 -2.5 0  -5 -2.6 0  -5 -2.7 0  -5 -2.8 0  -5 -2.9 0  -5 -3 0  -5 -3.1 0  -5 -3.199999999999999 0  -5 -3.300000000000001 0  -5 -3.4 0  -5 -3.5 0  -5 -3.6 0  -5 -3.699999999999999 0  -5 -3.800000000000001 0  -5 -3.9 0  -5 -4 0  -5 -4.1 0  -5 -4.199999999999999 0  -5 -4.300000000000001 0  -5 -4.4 0  -5 -4.5 0  -5 -4.6 0  -5 -4.699999999999999 0  -5 -4.800000000000001 0  -5 -4.9 0  1.038326740315411 0.1001228681990381 0  1.022761726416639 0.1992107110811581 0  0.9967319067030048 0.2964484928208787 0  0.961320761924095 0.3903215283335054 0  0.9162759449204532 0.4807814005121208 0  0.8622892101500421 0.5663023521066408 0  0.7995133466417419 0.6460193094342083 0  0.7284767340086046 0.7192683509719261 0  0.6505486053550114 0.7855427347450255 0  0.5661752034610621 0.8441292070802001 0  0.4760070413927891 0.8940812230032632 0  0.3810066509843537 0.9352258280966348 0  0.282719052189508 0.9672578967181059 0  0.18126550273348 0.9893604059575292 0  0.07826843329766016 1.001882663672005 0  -0.02565371731688544 1.004407878557956 0  -0.1293373725546248 0.9967841129306599 0  -0.2317451921988878 0.979608546846939 0  -0.3318036524760581 0.9526047981503415 0  -0.4285225793577542 0.9159645189518125 0  -0.5209222342062898 0.8704446952026558 0  -0.6082144625857173 0.8161178173273261 0  -0.68947890045319 0.7537634242603309 0  -0.7638999952227573 0.6840104845059368 0  -0.8307988605152322 0.6070861846246949 0  -0.88927854645141 0.5242076596568228 0  -0.9392052124115481 0.4363299448735329 0  -0.9795525107689106 0.3439141736692732 0  -1.010086582526684 0.2482219343421821 0  -1.030746076342158 0.1500881911346466 0  -1.041184190381595 0.05032124196118071 0  -1.041194252703284 -0.04997450693722908 0  -1.030769500710155 -0.1496906085321317 0  -1.010636200289653 -0.2477914486667379 0  -0.9795560617749604 -0.3436530673131065 0  -0.9392842926796374 -0.435867995392323 0  -0.8894464051312666 -0.5238306344639814 0  -0.830988396828977 -0.6065939426246634 0  -0.7640666449851796 -0.6832874035353531 0  -0.6894646285109278 -0.7529878719687974 0  -0.6080114817110257 -0.8151234076271715 0  -0.5210564467523646 -0.8696855694512408 0  -0.4281554270788757 -0.9151745404501452 0  -0.3313984234706172 -0.9519460055844792 0  -0.2312313235545436 -0.9790357155514582 0  -0.1289042997739613 -0.9963750956626547 0  -0.02535650330058135 -1.004235026324481 0  0.07836044636868474 -1.001576661153776 0  0.1816099768333052 -0.988922803417719 0  0.2828353972024902 -0.9667621328101875 0  0.3816205050723047 -0.934746085129977 0  0.4761880135584793 -0.8936239289806571 0  0.5663440882944424 -0.8436907586322802 0  0.6506703812581596 -0.7856138494453612 0  0.7285840177849567 -0.7193646384436331 0  0.7993804842859706 -0.6458379323912625 0  0.8620587798507321 -0.5659487208982873 0  0.9164104464339278 -0.480550131551518 0  0.9617917151028508 -0.3903273569786905 0  0.9971116644171736 -0.2963047754213452 0  1.022789279711573 -0.1990331803035884 0  1.038356305014091 -0.1000507067271766 0  -2.449662480444185 4.920151964240295 0  -2.44963423225471 -4.912714469986852 0  4.912691139681334 2.449495058001848 0  4.920607475221968 -2.45081154276287 0  2.447559943858574 -4.898334197470688 0  2.441948180521137 4.902011884749587 0  -4.912699344518078 -2.449503886892073 0  -4.912702377540863 2.449507450335014 0  -1.749650713792174 4.913930315922532 0  -1.745387792301796 -4.917254140168334 0  4.923461569597655 1.745515687199254 0  4.912395952887851 -1.749488515874259 0  -4.912654068510993 -1.749198013140508 0  -4.913453635736024 1.748925537377434 0  1.746993618985727 4.908004374241816 0  1.748551442299487 -4.896532543718105 0  -1.149728267987274 4.912323009730999 0  -1.130494698445504 -4.919937125234823 0  -4.913173791090834 -1.149235705344502 0  -4.913005401458173 1.149034117207638 0  1.144664639817322 -4.916271346466807 0  1.149727369877616 4.912320111712914 0  4.91334711343843 1.147521314344857 0  4.923690732033845 -1.153151326918569 0  -0.547130134273924 -4.91380987251127 0  -0.546867956612926 4.9221400567837 0  -4.912550351356665 -0.5494349326281626 0  -4.912576926228352 0.5479844543906722 0  4.911947162785942 -0.5497672947983532 0  4.923016816100566 0.5464252296232541 0  0.5429560293814627 -4.901250253956368 0  0.551604114879176 4.919099798976041 0  -4.913397160527357 -3.049588848346175 0  4.91986817232095 3.047521921826573 0  4.912922100249478 -3.049585732079002 0  -4.914237977464271 3.046670032907157 0  3.056271818452567 -4.91886534580074 0  -3.049675239392744 -4.9129029126169 0  3.053220652013484 4.914954327567644 0  -3.049114870948303 4.913780683056034 0  -4.91189942426203 -0.04998028475789181 0  0.04514810080491664 -4.915787661527171 0  0.0495992936673391 4.922520910828786 0  4.918627964081163 -0.05135780291568615 0  3.546389861205015 -4.920066127461864 0  -3.54973791610465
[...]
<PointData  Vectors="f_520"> 
<DataArray  type="Float64"  Name="f_520"  NumberOfComponents="3" format="ascii">-1.6329376860166627e-40 -1.6743202053687505e-40 0.0000000000000000e+00  2.1654133031607087e-40 -2.1668634212578974e-40 0.0000000000000000e+00  -2.4909428647756984e-40 -2.5575061993315366e-40 0.0000000000000000e+00  -3.1769227733512114e-40 3.3813435632733133e-40 0.0000000000000000e+00  1.2259762482643092e+01 -7.1165680559081068e-01 0.0000000000000000e+00  3.6108539722290158e-40 3.7109772706434589e-40 0.0000000000000000e+00  8.1481243121560879e-40 9.2822744195756433e-40 0.0000000000000000e+00  -1.8112987591953263e-39 -2.1651954006835311e-39 0.0000000000000000e+00  1.8657825902185939e-38 2.1011345700523556e-38 0.0000000000000000e+00  -6.0211076781033537e-38 -6.5413479942925509e-38 0.0000000000000000e+00  2.3539226075786352e-37 2.4837551456067763e-37 0.0000000000000000e+00  -8.6747647278832660e-37 -9.3009571539077103e-37 0.0000000000000000e+00  5.0568743544561750e-36 6.1035895101450985e-36 0.0000000000000000e+00  -3.0357073841599573e-35 -3.9478315089975997e-35 0.0000000000000000e+00  1.2203710928889472e-34 1.6128809313527159e-34 0.0000000000000000e+00  -2.5456263221268969e-34 -3.5369693982307234e-34 0.0000000000000000e+00  4.8515289204739041e-34 7.1116449193145419e-34 0.0000000000000000e+00  1.7754238951356375e-33 2.6554711769321756e-33 0.0000000000000000e+00  -8.1735932609980047e-33 -1.2175376544310297e-32 0.0000000000000000e+00  2.4106335920006192e-32 3.6249473299257169e-32 0.0000000000000000e+00  -1.3436047109623172e-31 -2.0923690282635290e-31 0.0000000000000000e+00  3.5240209353403368e-31 5.5315221539319012e-31 0.0000000000000000e+00  1.8733086679972123e-31 3.6417018427491212e-31 0.0000000000000000e+00  -1.5964777811226079e-30 -2.9365404062859849e-30 0.0000000000000000e+00  -8.5317417341253757e-31 -1.3221088437635608e-30 0.0000000000000000e+00  -2.2330578533509653e-30 -3.5153596561681083e-30 0.0000000000000000e+00  5.4526611528583057e-30 9.6445407687546298e-30 0.0000000000000000e+00  -1.4402226525596373e-29 -2.1597527387698964e-29 0.0000000000000000e+00  4.6441930284789046e-29 7.9554955892377353e-29 0.0000000000000000e+00  2.8345693748537459e-29 5.2020473858340637e-29 0.0000000000000000e+00  -2.3041369370864376e-28 -4.4363640956575052e-28 0.0000000000000000e+00  -7.3383701412568326e-29 -1.4862804418184360e-28 0.0000000000000000e+00  -1.1674881455939865e-28 -2.2303140633462039e-28 0.0000000000000000e+00  2.1625945652079656e-28 4.3934784012282171e-28 0.0000000000000000e+00  6.6309719212657421e-28 1.4381260380718903e-27 0.0000000000000000e+00  -9.0504837314245578e-29 -1.2653177914219967e-28 0.0000000000000000e+00  1.1987639600648736e-28 3.7178559074735292e-28 0.0000000000000000e+00  -1.1302113246269193e-28 -2.5643878838440144e-28 0.0000000000000000e+00  -4.5104932273714564e-28 -1.3310798615994173e-27 0.0000000000000000e+00  -4.0814022679973088e-28 -1.3463751505603208e-27 0.0000000000000000e+00  -4.2865428260465326e-29 -1.9721705162298176e-28 0.0000000000000000e+00  4.4694971473954725e-28 1.6183245078181933e-27 0.0000000000000000e+00  2.3345250011032128e-28 9.9473650306033355e-28 0.0000000000000000e+00  -6.8550364158053161e-29 -1.9813945060164573e-28 0.0000000000000000e+00  6.8600555905292520e-29 4.0413345595302799e-28 0.0000000000000000e+00  3.8991634556918757e-28 1.1189929578453465e-27 0.0000000000000000e+00  4.7715847913334033e-28 1.8646661074809727e-27 0.0000000000000000e+00  -2.6079432827125159e-28 -1.0394255001858915e-27 0.0000000000000000e+00  9.4640635280533888e-28 6.0262047888492916e-27 0.0000000000000000e+00  2.9965050188913046e-29 -5.4993757833593227e-29 0.0000000000000000e+00  -4.1823624306260755e-28 -5.2757242041983850e-27 0.0000000000000000e+00  -3.2532982597152934e-29 -3.1371493602114282e-27 0.0000000000000000e+00  -1.4842298660086311e-28 -4.4572950979692122e-27 0.0000000000000000e+00  -4.3655081387058544e-28 -1.0943866846024088e-26 0.0000000000000000e+00  -2.5610397661052996e-28 -1.2540741328179032e-26 0.0000000000000000e+00  2.0905158388211893e-29 -2.1846024547546121e-27 0.0000000000000000e+00  1.8662770026875171e-28 -6.9368763308081693e-27 0.0000000000000000e+00  2.3033558317785088e-28 -2.5948114485929274e-27 0.0000000000000000e+00  4.6156064630629162e-28 -4.5405824992261422e-27 0.0000000000000000e+00  -2.6030163376934418e-28 1.9145951072994944e-27 0.0000000000000000e+00  7.7461617173987052e-28 -6.1636486292414861e-27 0.0000000000000000e+00  8.4181585250701276e-28 -5.5825533040304096e-27 0.0000000000000000e+00  -1.9693100904261591e-28 1.0493455500144700e-27 0.0000000000000000e+00  -1.7490921183304900e-27 8.0693493404769482e-27 0.0000000000000000e+00  -7.6215238459712203e-28 3.1947436154248012e-27 0.0000000000000000e+00  -3.9179929684080570e-28 1.9343674886249585e-27 0.0000000000000000e+00  -1.2317814661469285e-27 4.5970528939686756e-27 0.0000000000000000e+00  -7.2967429982811312e-28 2.4250324107358381e-27 0.0000000000000000e+00  8.6537807860366579e-28 -2.6670655043603230e-27 0.0000000000000000e+00  4.1461456418826448e-28 -1.2483735832674675e-27 0.0000000000000000e+00  8.7967071544219530e-29 -3.0397898034461327e-28 0.0000000000000000e+00  3.2126740940576671e-28 -9.6875147293435383e-28 0.0000000000000000e+00  3.0369341713431729e-28 -7.5935255948775627e-28 0.0000000000000000e+00  -2.5564312460239024e-28 6.1758934131992851e-28 0.0000000000000000e+00  -2.2384611262454684e-28 4.9022078307566417e-28 0.0000000000000000e+00  -1.5786054715660056e-28 3.3306020951207868e-28 0.0000000000000000e+00  1.6546530990724335e-29 -3.6665615144527451e-29 0.0000000000000000e+00  1.1525804478688674e-28 -2.3261199862372916e-28 0.0000000000000000e+00  1.6225194570783223e-28 -3.0176830661113376e-28 0.0000000000000000e+00  -4.7915803036132186e-30 1.5583526264239401e-29 0.0000000000000000e+00  -1.0985629005524888e-28 1.9305252282407567e-28 0.0000000000000000e+00  1.7936083921228866e-29 -3.2064751830745647e-29 0.0000000000000000e+00  6.0063127110000793e-30 -9.4335933090450971e-30 0.0000000000000000e+00  -1.4863281847124988e-29 2.5827437335732675e-29 0.0000000000000000e+00  -9.9855860649270255e-31 1.7549113521827643e-30 0.0000000000000000e+00  1.6224199757227214e-30 -2.7499205104413355e-30 0.0000000000000000e+00  -8.4672215220196333e-31 1.4113126787166293e-30 0.0000000000000000e+00  1.0540951417561137e-31 -1.7193222191264218e-31 0.0000000000000000e+00  -1.2969323310602979e-32 1.9889962304932990e-32 0.0000000000000000e+00  -2.9661057380562808e-34 7.1248590628887444e-34 0.0000000000000000e+00  6.8793717170084879e-33 -1.0491280660807682e-32 0.0000000000000000e+00  4.1849113546293760e-34 -5.3086302120028330e-34 0.0000000000000000e+00  -4.7110905953596317e-34 6.6986156053817730e-34 0.0000000000000000e+00  5.2932225104411979e-35 -8.0504826172525643e-35 0.0000000000000000e+00  -2.1801430674745772e-35 2.9193261536450085e-35 0.0000000000000000e+00  4.8716271005293499e-36 -6.2987060406623079e-36 0.0000000000000000e+00  -1.5045185517089106e-36 1.9204115544427745e-36 0.0000000000000000e+00  4.9977307314019635e-37 -6.0401300448181663e-37 0.0000000000000000e+00  -2.4883114654630031e-37 2.9764648562739505e-37 0.0000000000000000e+00  8.4275033490430117e-38 -9.9704917208799675e-38 0.0000000000000000e+00  -1.7704732035868089e-38 2.0214991741033449e-38 0.0000000000000000e+00  7.2085262144140540e-39 -8.0673844540490954e-39 0.0000000000000000e+00  -4.1009911764675763e-40 4.8781675872183609e-40 0.0000000000000000e+00  -3.6854242591703821e-40 3.7481121205922622e-40 0.0000000000000000e+00  -1.6626313472963050e-41 9.1297400449931731e-42 0.0000000000000000e+00  3.9063072999067526e-40 -4.0024939403069446e-40 0.0000000000000000e+00  -9.1413613854151377e-40 8.9107010334057372e-40 0.0000000000000000e+00  3.6709175772126328e-39 -3.4181803567388122e-39 0.0000000000000000e+00  -2.7167447553304142e-39 2.3621152350307054e-39 0.0000000000000000e+00  -1.5295868473246460e-38 1.3887011081210027e-38 0.0000000000000000e+00  6.3542096942012011e-38 -5.5390630168342419e-38 0.0000000000000000e+00  -9.1867975271716479e-38 7.7123978360503955e-38 0.0000000000000000e+00  -1.3491331202493278e-37 1.1409683074508660e-37 0.0000000000000000e+00  9.5962992411156641e-37 -7.7612240869057796e-37 0.0000000000000000e+00  -1.7520770884802621e-36 1.3766316338937827e-36 0.0000000000000000e+00  -1.2183618993960454e-36 9.2957570942235844e-37 0.0000000000000000e+00  1.3204861039586161e-35 -9.8208529236590560e-36 0.0000000000000000e+00  -2.6485329529918568e-35 1.9141804236437639e-35 0.0000000000000000e+00  -1.6329821748246379e-35 1.1130593629048966e-35 0.0000000000000000e+00  1.9175155138280340e-34 -1.2969309406815288e-34 0.0000000000000000e+00  -3.1794541457150866e-34 2.1195659914797982e-34 0.0000000000000000e+00  -3.9673825637464769e-34 2.4490545280123898e-34 0.0000000000000000e+00  2.6096922539117582e-33 -1.5955908956162198e-33 0.0000000000000000e+00  -2.6940320412205617e-33 1.6461261405723636e-33 0.0000000000000000e+00  -9.2337448520775081e-33 5.1351300765705858e-33 0.0000000000000000e+00  3.0047482126812529e-32 -1.6673366689726431e-32 0.0000000000000000e+00  1.2374731707677737e-33 4.9658928464981111e-34 0.0000000000000000e+00  -1.6041549695253991e-31 7.9899178647061011e-32 0.0000000000000000e+00  2.1911016465838062e-31 -1.0982832577937251e-31 0.0000000000000000e+00  5.2380347507632176e-31 -2.2845040515093345e-31 0.0000000000000000e+00  -1.5979395272042905e-30 7.1143379742585662e-31 0.0000000000000000e+00  -8.4650574411867443e-31 2.7696906170037085e-31 0.0000000000000000e+00  8.3504001003176613e-30 -3.2943234154173001e-30 0.0000000000000000e+00  -2.6709984024738194e-30 1.3964577083817434e-30 0.0000000000000000e+00  -3.6178152430356446e-29 1.2438265628079044e-29 0.0000000000000000e+00  3.0252831907516719e-29 -1.1794259901386225e-29 0.0000000000000000e+00  1.4477647419237193e-28 -4.2982142641854955e-29 0.0000000000000000e+00  -1.6301377016314225e-28 5.5008676335395340e-29 0.0000000000000000e+00  -5.9289179144415853e-28 1.5055230593009563e-28 0.0000000000000000e+00  6.1722531651458583e-28 -1.9627719708404431e-28 0.0000000000000000e+00  2.4373247731016219e-27 -5.3065466624629601e-28 0.0000000000000000e+00  -1.7934871348934447e-27 5.4420463172149681e-28 0.0000000000000000e+00  -9.2739336386394517e-27 1.7259617135804904e-27 0.0000000000000000e+00  2.0918140052798235e-27 -8.9333949949493241e-28 0.0000000000000000e+00  2.8449636915855017e-26 -4.6910710064847608e-27 0.0000000000000000e+00  1.4165112514062477e-26 -8.6255804461568947e-28 0.0000000000000000e+00  -8.0843164548079930e-26 1.1810445088024981e-26 0.0000000000000000e+00  -1.2246645028233696e-25 1.3927451804917244e-26 0.0000000000000000e+00  1.4390870885003751e-25 -1.0787609674795986e-26 0.0000000000000000e+00  8.2830510400765072e-25 -3.9590975467984021e-26 0.0000000000000000e+00  1.5138139527236116e-24 -3.3359073288997541e-26 0.0000000000000000e+00  1.8483348412092315e-24 -4.0702903000454470e-27 0.0000000000000000e+00  1.8087762131516004e-24 8.9735226965237211e-27 0.0000000000000000e+00  1.8351013998447334e-24 -4.9887561030260500e-27 0.0000000000000000e+00  1.9763120986785591e-24 -8.2238024789780887e-27 0.0000000000000000e+00  1.8394446637668106e-24 1.6365063880010676e-26 0.0000000000000000e+00  1.2024215298334753e-24 3.6379944048902320e-26 0.0000000000000000e+00  3.4745350727569420e-25 2.2626807766518138e-26 0.0000000000000000e+00  -1.7334718764919478e-25 -7.5026734337397478e-27 0.0000000000000000e+00  -2.1962826232886992e-25 -1.9427034210304951e-26 0.0000000000000000e+00  -3.9317050515167853e-26 -6.4233655948974014e-27 0.0000000000000000e+00  6.0126845010655582e-26 6.4172881214736278e-27 0.0000000000000000e+00  3.6792466133694498e-26 5.5140140892111026e-27 0.0000000000000000e+00  -5.1996679880096735e-27 -6.0973717454744515e-28 0.0000000000000000e+00  -1.0873912215712201e-26 -2.0355125143705285e-27 0.0000000000000000e+00  -8.1836519116474883e-28 -2.2801855846571944e-28 0.0000000000000000e+00  2.6750915968079527e-27 6.0577637156804221e-28 0.0000000000000000e+00  4.0918838023159943e-28 1.1613770854831995e-28 0.0000000000000000e+00  -6.2919071839443797e-28 -1.6979853232111481e-28 0.0000000000000000e+00  -9.2939034096821256e-29 -3.1064316813274392e-29 0.0000000000000000e+00  1.4623253632027405e-28 4.6777782482368950e-29 0.0000000000000000e+00  7.9374664364697303e-30 3.8453216540444685e-30 0.0000000000000000e+00  -3.2953042181156157e-29 -1.2171973166539036e-29 0.0000000000000000e+00  2.5503179801094986e-30 7.2133285439460318e-31 0.0000000000000000e+00  6.3385758414239031e-30 2.7083752511254239e-30 0.0000000000000000e+00  -1.8112547562464987e-30 -7.2257205477435280e-31 0.0000000000000000e+00  -9.4613860170511392e-31 -4.6116670485843352e-31 0.0000000000000000e+00  5.9836041899343963e-31 2.7869115028137254e-31 0.0000000000000000e+00  3.6008132256136772e-32 2.6405852212333353e-32 0.0000000000000000e+00  -1.3330078363375895e-31 -6.9005811838840700e-32 0.0000000000000000e+00  2.9747437444047183e-32 1.4164292663398443e-32 0.0000000000000000e+00  1.9266378529856874e-32 1.1202109654747059e-32 0.0000000000000000e+00  -1.2294497275292708e-32 -6.8800217897560458e-33 0.0000000000000000e+00  1.7927715000104952e-34 -3.9220612758647860e-35 0.0000000000000000e+00  2.2204790589672549e-33 1.3906093240122977e-33 0.0000000000000000e+00  -8.4409864293772395e-34 -5.1551857297459883e-34 0.0000000000000000e+00  -1.1714586033546220e-34 -8.7289596529406617e-35 0.0000000000000000e+00  2.0333879249990897e-34 1.3732402428565216e-34 0.0000000000000000e+00  -5.7441177443833813e-35 -3.8665111887302699e-35 0.0000000000000000e+00  -1.3280946120768587e-35 -9.9530318490923406e-36 0.0000000000000000e+00  1.5113239389759485e-35 1.1091323040320674e-35 0.0000000000000000e+00  -3.9426404410699757e-36 -2.9103346588925792e-36 0.0000000000000000e+00  -9.3338887777457632e-37 -7.4106220916257835e-37 0.0000000000000000e+00  1.0631132047409953e-36 8.4359895356474321e-37 0.0000000000000000e+00  -3.0724247481341041e-37 -2.4914031866932394e-37 0.0000000000000000e+00  -3.8399417859923176e-38 -3.1867596549950350e-38 0.0000000000000000e+00  6.7011291437027648e-38 5.7217738407431689e-38 0.0000000000000000e+00  -2.5445594822527726e-38 -2.2325303302060648e-38 0.0000000000000000e+00  8.6477058038134962e-40 8.5391652087533119e-40 0.0000000000000000e+00  3.6002911810981473e-39 3.2569065435571903e-39 0.0000000000000000e+00  -1.8721654501450306e-39 -1.7476066344843681e-39 0.0000000000000000e+00  4.0159937346529265e-40 3.8854765639803284e-40 0.0000000000000000e+00  1.9636792883332046e-40 1.8639745272803768e-40 0.0000000000000000e+00  3.6765129345103002e-40 4.0173437007650741e-40 0.0000000000000000e+00  -1.0879222601686064e-39 -1.1536108548003079e-39 0.0000000000000000e+00  2.1253035333196574e-39 2.3258289481475265e-39 0.0000000000000000e+00  -1.4350857937336512e-38 -1.5603514586855434e-38 0.0000000000000000e+00  1.0164996264273357e-37 1.1352499289828290e-37 0.0000000000000000e+00  -2.2879788211122380e-37 -2.6499993050751228e-37 0.0000000000000000e+00  2.5709056153616445e-37 3.1114959159351433e-37 0.0000000000000000e+00  -4.2014535373511482e-36 -5.1198693402351136e-36 0.0000000000000000e+00  1.3704339105539766e-35 1.6548213553043178e-35 0.0000000000000000e+00  -6.0784430247530065e-35 -7.4086106458427448e-35 0.0000000000000000e+00  1.3657879039396375e-34 1.7456471503915160e-34 0.0000000000000000e+00  -2.9716649781533793e-34 -3.9783381351577884e-34 0.0000000000000000e+00  1.4730823877149848e-33 2.0036777835092857e-33 0.0000000000000000e+00  -1.2093968762017039e-33 -1.6755971061817333e-33 0.0000000000000000e+00  6.1408714759392046e-33 8.0389461115125835e-33 0.0000000000000000e+00  4.3647168334780259e-32 6.9457667999129560e-32 0.0000000000000000e+00  -2.0837668024236695e-31 -3.2263302699698149e-31 0.0000000000000000e+00  -5.5999672989715029e-31 -9.5003803336336627e-31 0.0000000000000000e+00  1.0547531181221485e-30 1.8400251108227636e-30 0.0000000000000000e+00  -6.8174099268747994e-32 -1.2010627287889490e-31 0.0000000000000000e+00  -3.2903023393251524e-30 -5.6182399642126561e-30 0.0000000000000000e+00  9.6979195534233744e-30 1.5544628843225897e-29 0.0000000000000000e+00  1.4718699883360781e-29 2.6937280159713486e-29 0.0000000000000000e+00  -9.6938076539058920e-29 -1.7523260278511261e-28 0.0000000000000000e+00  3.1364006009319788e-29 5.9528105519432114e-29 0.0000000000000000e+00  9.5396938320602278e-29 2.0599076156056386e-28 0.0000000000000000e+00  4.2805358487294573e-29 7.4026909326663551e-29 0.0000000000000000e+00  3.5973450608984092e-28 7.0089571219603199e-28 0.0000000000000000e+00  1.5134431609900058e-28 3.4014131435626778e-28 0.0000000000000000e+00  -4.5019753732695048e-28 -9.1206009355430042e-28 0.0000000000000000e+00  -3.8487602361848827e-28 -1.0057548212130770e-27 0.0000000000000000e+00  4.2063896020396696e-28 9.7832342915772599e-28 0.0000000000000000e+00  7.7456524742133165e-28 1.9122156263889512e-27 0.0000000000000000e+00  3.9179321614093622e-28 1.1545357516427896e-27 0.0000000000000000e+00  4.5038695384153175e-29 3.9536472654195855e-28 0.0000000000000000e+00  -8.9800257202314854e-28 -2.6242601437053278e-27 0.0000000000000000e+00  -3.4689907994652984e-28 -9.5049642813831734e-28 0.0000000000000000e+00  -1.7763086836182002e-28 -4.8013881680721086e-28 0.0000000000000000e+00  -4.5263589230117049e-28 -1.7134367194140689e-27 0.0000000000000000e+00  -4.1434123906041326e-28 -1.6827111611622622e-27 0.0000000000000000e+00  -3.3619501208199120e-28 -1.9762919808785628e-27 0.0000000000000000e+00  1.0359566981292022e-28 -1.0766940895775393e-28 0.0000000000000000e+00  4.9889285949934272e-28 2.5204442061078050e-27 0.0000000000000000e+00  8.5772652253068850e-29 3.4492149981404494e-28 0.0000000000000000e+00  -3.2604412663478625e-28 -2.7429544171589739e-27 0.0000000000000000e+00  2.2102068541490760e-28 1.6943923677467207e-27 0.0000000000000000e+00  1.3808564485273348e-28 1.5472735975383940e-27 0.0000000000000000e+00  -8.6968051588803637e-29 -1.4206771891246374e-27 0.0000000000000000e+00  -1.0518562710507135e-29 -3.9973397470740725e-29 0.0000000000000000e+00  -4.4579119408122095e-29 -1.4708037560981462e-27 0.0000000000000000e+00  -3.1288295550895085e-29 2.8608212413681046e-27 0.0000000000000000e+00  -1.2984749047116028e-28 2.6854229395738978e-27 0.0000000000000000e+00  1.6610060698160223e-29 -1.7252264594531282e-27 0.0000000000000000e+00  -6.6179062339056902e-29 -7.3713957361932274e-29 0.0000000000000000e+00  2.2503467876717643e-28 -2.4676098411458441e-27 0.0000000000000000e+00  -3.8809936961135618e-28 2.0424776906020121e-27 0.0000000000000000e+00  -2.5464033350254863e-28 9.9839828310122279e-28 0.0000000000000000e+00  -3.1308024167932885e-29 -6.2842309546905107e-28 0.0000000000000000e+00  -9.7908509451276823e-29 -9.8869138063060120e-29 0.0000000000000000e+00  6.1673633888643193e-28 -2.9172738584220864e-27 0.0000000000000000e+00  7.2826160409303904e-28 -3.3714724254553235e-27 0.0000000000000000e+00  1.2864160299065159e-27 -4.7495512333397569e-27 0.0000000000000000e+00  4.3094052563296827e-28 -1.3255753967861882e-27 0.0000000000000000e+00  -3.0174455795392279e-28 1.1701417009393343e-27 0.0000000000000000e+00  -8.4885124703026688e-28 2.4882339498224212e-27 0.0000000000000000e+00  -1.0175354734381346e-27 2.7320128810431567e-27 0.0000000000000000e+00  -3.0751175599745239e-28 7.1826536027744896e-28 0.0000000000000000e+00  1.5468225506567263e-28 -4.1900420675084271e-28 0.0000000000000000e+00  2.2930566940904421e-28 -5.4164743675430426e-28 0.0000000000000000e+00  9.3563702588980548e-28 -1.9592200989942123e-27 0.0000000000000000e+00  3.8254091345977841e-28 -7.5963971341253534e-28 0.0000000000000000e+00  -3.1471163662644986e-28 6.0820799378182020e-28 0.0000000000000000e+00  -9.9317321294421218e-30 3.3209716966048559e-29 0.0000000000000000e+00  3.3255405721996231e-29 -6.8289159292528519e-29 0.0000000000000000e+00  8.4679211476535711e-29 -1.5574401640575653e-28 0.0000000000000000e+00  -1.6863208522292961e-29 3.1453230712203516e-29 0.0000000000000000e+00  -2.4695453003915456e-29 4.2142326741305189e-29 0.0000000000000000e+00  2.5549