<?xml version="1.0"?>
<VTKFile type="UnstructuredGrid"  version="0.1"  >
<UnstructuredGrid>
<Piece  NumberOfPoints="11902" NumberOfCells="23402">
<Points>
<DataArray  type="Float64"  NumberOfComponents="3"  format="ascii">-5 -5 0  5 -5 0  5 5 0  -5 5 0  1.029565845820408 0.0001909321706741674 0  -4.9 -5 0  -4.8 -5 0  -4.7 -5 0  -4.6 -5 0  -4.5 -5 0  -4.4 -5 0  -4.3 -5 0  -4.2 -5 0  -4.1 -5 0  -4 -5 0  -3.9 -5 0  -3.8 -5 0  -3.7 -5 0  -3.6 -5 0  -3.5 -5 0  -3.4 -5 0  -3.3 -5 0  -3.2 -5 0  -3.1 -5 0  -3 -5 0  -2.9 -5 0  -2.8 -5 0  -2.7 -5 0  -2.6 -5 0  -2.5 -5 0  -2.4 -5 0  -2.3 -5 0  -2.2 -5 0  -2.1 -5 0  -2 -5 0  -1.9 -5 0  -1.8 -5 0  -1.7 -5 0  -1.6 -5 0  -1.5 -5 0  -1.4 -5 0  -1.3 -5 0  -1.2 -5 0  -1.1 -5 0  -1 -5 0  -0.9000000000000004 -5 0  -0.7999999999999998 -5 0  -0.7000000000000002 -5 0  -0.5999999999999996 -5 0  -0.5 -5 0  -0.4000000000000004 -5 0  -0.2999999999999998 -5 0  -0.2000000000000002 -5 0  -0.09999999999999964 -5 0  0 -5 0  0.09999999999999964 -5 0  0.2000000000000002 -5 0  0.2999999999999998 -5 0  0.4000000000000004 -5 0  0.5 -5 0  0.5999999999999996 -5 0  0.7000000000000002 -5 0  0.7999999999999998 -5 0  0.9000000000000004 -5 0  1 -5 0  1.1 -5 0  1.2 -5 0  1.3 -5 0  1.4 -5 0  1.5 -5 0  1.6 -5 0  1.7 -5 0  1.8 -5 0  1.9 -5 0  2 -5 0  2.1 -5 0  2.2 -5 0  2.3 -5 0  2.4 -5 0  2.5 -5 0  2.6 -5 0  2.7 -5 0  2.8 -5 0  2.9 -5 0  3 -5 0  3.1 -5 0  3.199999999999999 -5 0  3.300000000000001 -5 0  3.4 -5 0  3.5 -5 0  3.6 -5 0  3.699999999999999 -5 0  3.800000000000001 -5 0  3.9 -5 0  4 -5 0  4.1 -5 0  4.199999999999999 -5 0  4.300000000000001 -5 0  4.4 -5 0  4.5 -5 0  4.6 -5 0  4.699999999999999 -5 0  4.800000000000001 -5 0  4.9 -5 0  5 -4.9 0  5 -4.8 0  5 -4.7 0  5 -4.6 0  5 -4.5 0  5 -4.4 0  5 -4.3 0  5 -4.2 0  5 -4.1 0  5 -4 0  5 -3.9 0  5 -3.8 0  5 -3.7 0  5 -3.6 0  5 -3.5 0  5 -3.4 0  5 -3.3 0  5 -3.2 0  5 -3.1 0  5 -3 0  5 -2.9 0  5 -2.8 0  5 -2.7 0  5 -2.6 0  5 -2.5 0  5 -2.4 0  5 -2.3 0  5 -2.2 0  5 -2.1 0  5 -2 0  5 -1.9 0  5 -1.8 0  5 -1.7 0  5 -1.6 0  5 -1.5 0  5 -1.4 0  5 -1.3 0  5 -1.2 0  5 -1.1 0  5 -1 0  5 -0.9000000000000004 0  5 -0.7999999999999998 0  5 -0.7000000000000002 0  5 -0.5999999999999996 0  5 -0.5 0  5 -0.4000000000000004 0  5 -0.2999999999999998 0  5 -0.2000000000000002 0  5 -0.09999999999999964 0  5 0 0  5 0.09999999999999964 0  5 0.2000000000000002 0  5 0.2999999999999998 0  5 0.4000000000000004 0  5 0.5 0  5 0.5999999999999996 0  5 0.7000000000000002 0  5 0.7999999999999998 0  5 0.9000000000000004 0  5 1 0  5 1.1 0  5 1.2 0  5 1.3 0  5 1.4 0  5 1.5 0  5 1.6 0  5 1.7 0  5 1.8 0  5 1.9 0  5 2 0  5 2.1 0  5 2.2 0  5 2.3 0  5 2.4 0  5 2.5 0  5 2.6 0  5 2.7 0  5 2.8 0  5 2.9 0  5 3 0  5 3.1 0  5 3.199999999999999 0  5 3.300000000000001 0  5 3.4 0  5 3.5 0  5 3.6 0  5 3.699999999999999 0  5 3.800000000000001 0  5 3.9 0  5 4 0  5 4.1 0  5 4.199999999999999 0  5 4.300000000000001 0  5 4.4 0  5 4.5 0  5 4.6 0  5 4.699999999999999 0  5 4.800000000000001 0  5 4.9 0  4.9 5 0  4.8 5 0  4.7 5 0  4.6 5 0  4.5 5 0  4.4 5 0  4.3 5 0  4.2 5 0  4.1 5 0  4 5 0  3.9 5 0  3.8 5 0  3.7 5 0  3.6 5 0  3.5 5 0  3.4 5 0  3.3 5 0  3.2 5 0  3.1 5 0  3 5 0  2.9 5 0  2.8 5 0  2.7 5 0  2.6 5 0  2.5 5 0  2.4 5 0  2.3 5 0  2.2 5 0  2.1 5 0  2 5 0  1.9 5 0  1.8 5 0  1.7 5 0  1.6 5 0  1.5 5 0  1.4 5 0  1.3 5 0  1.2 5 0  1.1 5 0  1 5 0  0.9000000000000004 5 0  0.7999999999999998 5 0  0.7000000000000002 5 0  0.5999999999999996 5 0  0.5 5 0  0.4000000000000004 5 0  0.2999999999999998 5 0  0.2000000000000002 5 0  0.09999999999999964 5 0  0 5 0  -0.09999999999999964 5 0  -0.2000000000000002 5 0  -0.2999999999999998 5 0  -0.4000000000000004 5 0  -0.5 5 0  -0.5999999999999996 5 0  -0.7000000000000002 5 0  -0.7999999999999998 5 0  -0.9000000000000004 5 0  -1 5 0  -1.1 5 0  -1.2 5 0  -1.3 5 0  -1.4 5 0  -1.5 5 0  -1.6 5 0  -1.7 5 0  -1.8 5 0  -1.9 5 0  -2 5 0  -2.1 5 0  -2.2 5 0  -2.3 5 0  -2.4 5 0  -2.5 5 0  -2.6 5 0  -2.7 5 0  -2.8 5 0  -2.9 5 0  -3 5 0  -3.1 5 0  -3.199999999999999 5 0  -3.300000000000001 5 0  -3.4 5 0  -3.5 5 0  -3.6 5 0  -3.699999999999999 5 0  -3.800000000000001 5 0  -3.9 5 0  -4 5 0  -4.1 5 0  -4.199999999999999 5 0  -4.300000000000001 5 0  -4.4 5 0  -4.5 5 0  -4.6 5 0  -4.699999999999999 5 0  -4.800000000000001 5 0  -4.9 5 0  -5 4.9 0  -5 4.8 0  -5 4.7 0  -5 4.6 0  -5 4.5 0  -5 4.4 0  -5 4.3 0  -5 4.2 0  -5 4.1 0  -5 4 0  -5 3.9 0  -5 3.8 0  -5 3.7 0  -5 3.6 0  -5 3.5 0  -5 3.4 0  -5 3.3 0  -5 3.2 0  -5 3.1 0  -5 3 0  -5 2.9 0  -5 2.8 0  -5 2.7 0  -5 2.6 0  -5 2.5 0  -5 2.4 0  -5 2.3 0  -5 2.2 0  -5 2.1 0  -5 2 0  -5 1.9 0  -5 1.8 0  -5 1.7 0  -5 1.6 0  -5 1.5 0  -5 1.4 0  -5 1.3 0  -5 1.2 0  -5 1.1 0  -5 1 0  -5 0.9000000000000004 0  -5 0.7999999999999998 0  -5 0.7000000000000002 0  -5 0.5999999999999996 0  -5 0.5 0  -5 0.4000000000000004 0  -5 0.2999999999999998 0  -5 0.2000000000000002 0  -5 0.09999999999999964 0  -5 0 0  -5 -0.09999999999999964 0  -5 -0.2000000000000002 0  -5 -0.2999999999999998 0  -5 -0.4000000000000004 0  -5 -0.5 0  -5 -0.5999999999999996 0  -5 -0.7000000000000002 0  -5 -0.7999999999999998 0  -5 -0.9000000000000004 0  -5 -1 0  -5 -1.1 0  -5 -1.2 0  -5 -1.3 0  -5 -1.4 0  -5 -1.5 0  -5 -1.6 0  -5 -1.7 0  -5 -1.8 0  -5 -1.9 0  -5 -2 0  -5 -2.1 0  -5 -2.2 0  -5 -2.3 0  -5 -2.4 0  -5 -2.5 0  -5 -2.6 0  -5 -2.7 0  -5 -2.8 0  -5 -2.9 0  -5 -3 0  -5 -3.1 0  -5 -3.199999999999999 0  -5 -3.300000000000001 0  -5 -3.4 0  -5 -3.5 0  -5 -3.6 0  -5 -3.699999999999999 0  -5 -3.800000000000001 0  -5 -3.9 0  -5 -4 0  -5 -4.1 0  -5 -4.199999999999999 0  -5 -4.300000000000001 0  -5 -4.4 0  -5 -4.5 0  -5 -4.6 0  -5 -4.699999999999999 0  -5 -4.800000000000001 0  -5 -4.9 0  1.024486353644486 0.09997395365562291 0  1.009151645374242 0.1989284652462016 0  0.9835793996742063 0.2959904926069808 0  0.9485872474801611 0.3898392165016195 0  0.9041221617328431 0.480120907432511 0  0.8507794413817242 0.5655233459068039 0  0.7888376100026107 0.645177461329646 0  0.7188327857376132 0.7183954305917886 0  0.6419224336030138 0.7845938303188444 0  0.5586490351414896 0.8430739280164389 0  0.4697142302642752 0.893001037452123 0  0.376030373915558 0.9341074946760889 0  0.2789528993760748 0.9660527215208857 0  0.1788591742185247 0.9881804823692114 0  0.07715045591651053 1.000661407866293 0  -0.02541975812192513 1.003174957150472 0  -0.1277529364229003 0.9956073390471832 0  -0.2288161843438918 0.9783886522206738 0  -0.3275663520790797 0.9513798840489394 0  -0.4230366652170375 0.9147975473136287 0  -0.5142643884862687 0.8692773423007203 0  -0.6004234623272231 0.8150157823943559 0  -0.6806287767050305 0.7527085182086775 0  -0.7540704682776234 0.682988333362465 0  -0.820061909454006 0.6062254203391569 0  -0.8777930775442159 0.5234822124365683 0  -0.9269963843264999 0.4356819502369715 0  -0.9668176149524832 0.3434179147038685 0  -0.9969789966281166 0.2478294461376409 0  -1.017349489590294 0.1497963375669712 0  -1.027624605459903 0.05018276797732159 0  -1.027631003974817 -0.04994928227369339 0  -1.017364921211328 -0.1495296679063359 0  -0.9973603128782615 -0.2475364741426307 0  -0.9668226929876067 -0.3432324083615051 0  -0.9270474295198502 -0.435361918548369 0  -0.877903651937608 -0.5232210689551161 0  -0.820184355002796 -0.6058845878944948 0  -0.7541775167283861 -0.6824926585812182 0  -0.6806116297921083 -0.7521815703707025 0  -0.6002791207209107 -0.8143402601159546 0  -0.5143544163113541 -0.8687765558038442 0  -0.4227952847063494 -0.9142667894668889 0  -0.3272979228096193 -0.950932220887583 0  -0.2284711857514534 -0.977993818371785 0  -0.1274571178957987 -0.9953241232284242 0  -0.02521768291516902 -1.003053398156372 0  0.07720597214921306 -1.00045483576628 0  0.1790814958360961 -0.987883413325542 0  0.279021201800137 -0.9657134612494342 0  0.3764384076771331 -0.9337749161096537 0  0.4698265534939884 -0.8926778625545765 0  0.5587651484908537 -0.8427586811005623 0  0.6420078077522506 -0.7846308943963864 0  0.718909122147532 -0.7184560764841317 0  0.7887462589300817 -0.6450531798909165 0  0.8506279580030992 -0.5652725253848582 0  0.9042217029779658 -0.4799542015618383 0  0.9489156192467352 -0.3898374922005715 0  0.983839548179872 -0.295900871518121 0  1.009170253157432 -0.1988087698809254 0  1.024508773297163 -0.09992832510051794 0  -2.449765287209145 4.920343358193425 0  -2.449746090327698 -4.912923139669407 0  4.912904747072484 2.449646520331981 0  4.920801297564274 -2.450949284343869 0  2.447690099827566 -4.898579327891947 0  2.442074115776887 4.902249008793525 0  -4.91291120083975 -2.449653712998925 0  -4.912914781895544 2.449657228753833 0  -1.749756019698844 4.91420363777947 0  -1.745488447433369 -4.917516416320454 0  4.923729848441074 1.745651969344404 0  4.912702243027591 -1.749644774870286 0  -4.91295703995754 -1.749351950273452 0  -4.913754450715299 1.74907782486988 0  1.747105393572403 4.908298015229238 0  1.748676634763476 -4.896862169689104 0  -1.149811529676311 4.912651931101011 0  -1.130569503695159 -4.920237665422278 0  -4.913551234800232 -1.149361756888188 0  -4.913384093412926 1.149159969381144 0  1.144742398451777 -4.916586014381833 0  1.149809627527451 4.912649982225188 0  4.913727607426596 1.147648322385233 0  4.924024991205568 -1.153263708118152 0  -0.5471732739591413 -4.914165472605175 0  -0.5469069764424443 4.922462387125809 0  -4.912987286899527 -0.5495047585286069 0  -4.913014098784799 0.5480535001474522 0  4.912391304949415 -0.5498384782398767 0  4.923405352215045 0.5464868345716425 0  0.5430032485745532 -4.901658757268006 0  0.5516438216079754 4.919435021801538 0  -4.913540681811723 -3.049713193437835 0  4.920002138928132 3.047638283071581 0  4.913067240041612 -3.049712094065708 0  -4.9143808370161 3.04679337401298 0  3.056364120268495 -4.919006579252731 0  -3.049774460366128 -4.913053862103111 0  3.053317803788701 4.915102772494567 0  -3.049213524967833 4.913930508982283 0  -4.912358590236311 -0.04998725269224885 0  0.04515071788207168 -4.916145499322085 0  0.0496022840800943 4.922851151474589 0  4.919056097672286 -0.05136433939828292 0  3.546463433302681 -4.920165512805325 0  -3.549817
[...]
<PointData  Vectors="f_414"> 
<DataArray  type="Float64"  Name="f_414"  NumberOfComponents="3" format="ascii">-1.6178738785246741e-40 -1.6611007721231067e-40 0.0000000000000000e+00  2.1639594312288572e-40 -2.1686247992184598e-40 0.0000000000000000e+00  -2.4743550462334060e-40 -2.5475765235815205e-40 0.0000000000000000e+00  -3.1619349117124018e-40 3.3747462774901794e-40 0.0000000000000000e+00  1.1933695586361281e+01 -7.2636897522790778e-01 0.0000000000000000e+00  3.5735032640484081e-40 3.6787544312109108e-40 0.0000000000000000e+00  8.0835402853810622e-40 9.2387933310843513e-40 0.0000000000000000e+00  -1.7984989145677774e-39 -2.1553439275107226e-39 0.0000000000000000e+00  1.8480769562960156e-38 2.0853326844350313e-38 0.0000000000000000e+00  -5.9682624086524342e-38 -6.4920037939003337e-38 0.0000000000000000e+00  2.3377531507955302e-37 2.4664564349061016e-37 0.0000000000000000e+00  -8.6395047364486267e-37 -9.2633137829599009e-37 0.0000000000000000e+00  5.0273857313498872e-36 6.0789332979533109e-36 0.0000000000000000e+00  -3.0098582550042508e-35 -3.9271805152424461e-35 0.0000000000000000e+00  1.2098326002672205e-34 1.6040358493127948e-34 0.0000000000000000e+00  -2.5178925243274451e-34 -3.5122349439833735e-34 0.0000000000000000e+00  4.7776875336689696e-34 7.0406974892483666e-34 0.0000000000000000e+00  1.7575388203859106e-33 2.6418440504022631e-33 0.0000000000000000e+00  -8.0970566671670682e-33 -1.2111746697840258e-32 0.0000000000000000e+00  2.3881174466563615e-32 3.6032834150040237e-32 0.0000000000000000e+00  -1.3306030284934916e-31 -2.0803675680993540e-31 0.0000000000000000e+00  3.4901631450158174e-31 5.5005193521540857e-31 0.0000000000000000e+00  1.8660219161184477e-31 3.6513778165437865e-31 0.0000000000000000e+00  -1.5869538427105106e-30 -2.9376572670983186e-30 0.0000000000000000e+00  -8.4004335237409222e-31 -1.3017280467261770e-30 0.0000000000000000e+00  -2.1829507074976586e-30 -3.4342825790735427e-30 0.0000000000000000e+00  5.3872671872675913e-30 9.5563210261338175e-30 0.0000000000000000e+00  -1.4348269241828293e-29 -2.1389070293334415e-29 0.0000000000000000e+00  4.6055541204835946e-29 7.8795989012754942e-29 0.0000000000000000e+00  2.8207221180640621e-29 5.1722513540277148e-29 0.0000000000000000e+00  -2.2875037907803617e-28 -4.4087165560256742e-28 0.0000000000000000e+00  -7.2352721836032229e-29 -1.4643737301936662e-28 0.0000000000000000e+00  -1.1379356934747591e-28 -2.1562339908078112e-28 0.0000000000000000e+00  2.1318233942866000e-28 4.3250308097629186e-28 0.0000000000000000e+00  6.5494944598331770e-28 1.4183100743132049e-27 0.0000000000000000e+00  -9.1050375136489063e-29 -1.2671658490878015e-28 0.0000000000000000e+00  1.1638482989141985e-28 3.6414187334902950e-28 0.0000000000000000e+00  -1.1153137977428049e-28 -2.5261540180336194e-28 0.0000000000000000e+00  -4.4049771039463449e-28 -1.3050023296903044e-27 0.0000000000000000e+00  -3.9894000131964439e-28 -1.3214492595243014e-27 0.0000000000000000e+00  -4.4212849576903403e-29 -1.9826230656180185e-28 0.0000000000000000e+00  4.3727804429913321e-28 1.5881825347283467e-27 0.0000000000000000e+00  2.2768138494299750e-28 9.7700530771692567e-28 0.0000000000000000e+00  -6.9324550209401910e-29 -1.9760213236691016e-28 0.0000000000000000e+00  6.6094953462919701e-29 3.9648300292106835e-28 0.0000000000000000e+00  3.9385698224202725e-28 1.1102198241331571e-27 0.0000000000000000e+00  4.7839677134711521e-28 1.8457596929903507e-27 0.0000000000000000e+00  -2.6235812281798067e-28 -1.0268148167622069e-27 0.0000000000000000e+00  9.4446412392427324e-28 5.9633507899874676e-27 0.0000000000000000e+00  3.3269384386735707e-29 -5.5544536391294218e-29 0.0000000000000000e+00  -4.1055780445832860e-28 -5.2243843707389400e-27 0.0000000000000000e+00  -2.4832035315674204e-29 -3.1089594181544208e-27 0.0000000000000000e+00  -1.4409292183077202e-28 -4.4201097534367398e-27 0.0000000000000000e+00  -4.3840260752436025e-28 -1.0843311927791858e-26 0.0000000000000000e+00  -2.6019996031484014e-28 -1.2425392113872256e-26 0.0000000000000000e+00  2.1205046544386290e-29 -2.1645361166920847e-27 0.0000000000000000e+00  1.8543404966843839e-28 -6.8790363826229431e-27 0.0000000000000000e+00  2.2955322016571644e-28 -2.5792308681921965e-27 0.0000000000000000e+00  4.5895707955556279e-28 -4.5062931320343330e-27 0.0000000000000000e+00  -2.5897148114222244e-28 1.8926439186983868e-27 0.0000000000000000e+00  7.6718403307273815e-28 -6.1215863152643780e-27 0.0000000000000000e+00  8.3230799282282720e-28 -5.5441290141645275e-27 0.0000000000000000e+00  -1.9641453212677821e-28 1.0364591345572718e-27 0.0000000000000000e+00  -1.7378383715137173e-27 8.0003851154555447e-27 0.0000000000000000e+00  -7.5619183587567463e-28 3.1663096297936102e-27 0.0000000000000000e+00  -3.8621406338015906e-28 1.9211360337159672e-27 0.0000000000000000e+00  -1.2203319696727063e-27 4.5548036830714778e-27 0.0000000000000000e+00  -7.2297411021360485e-28 2.4025818072806131e-27 0.0000000000000000e+00  8.5801868007709324e-28 -2.6372367592620307e-27 0.0000000000000000e+00  4.0899933723834010e-28 -1.2330219069493603e-27 0.0000000000000000e+00  8.7347015502299591e-29 -3.0398117160528644e-28 0.0000000000000000e+00  3.1507309096567285e-28 -9.5754935809603263e-28 0.0000000000000000e+00  3.0007716104651281e-28 -7.5122492779844023e-28 0.0000000000000000e+00  -2.5204145609878512e-28 6.0921804247621155e-28 0.0000000000000000e+00  -2.2324621602062468e-28 4.8827896289777356e-28 0.0000000000000000e+00  -1.5702593859206608e-28 3.3123142936258515e-28 0.0000000000000000e+00  1.5841718472301248e-29 -3.4924128773053774e-29 0.0000000000000000e+00  1.1501964484378272e-28 -2.3220845622371587e-28 0.0000000000000000e+00  1.6177515606927871e-28 -3.0084252163203546e-28 0.0000000000000000e+00  -4.7279558504242057e-30 1.5555738348973017e-29 0.0000000000000000e+00  -1.0935194657349375e-28 1.9215858522739766e-28 0.0000000000000000e+00  1.7850520635434405e-29 -3.1924933555758677e-29 0.0000000000000000e+00  5.9800189254698424e-30 -9.3831071849789047e-30 0.0000000000000000e+00  -1.4740861584331872e-29 2.5673571121030241e-29 0.0000000000000000e+00  -9.8174818044470898e-31 1.7394257813301958e-30 0.0000000000000000e+00  1.6047650531489094e-30 -2.7311629449835691e-30 0.0000000000000000e+00  -8.3780185321832526e-31 1.4022316585234702e-30 0.0000000000000000e+00  1.0434865374041922e-31 -1.7084537954707399e-31 0.0000000000000000e+00  -1.2858674296159133e-32 1.9779396822000869e-32 0.0000000000000000e+00  -2.8577295211673142e-34 7.0896481425213739e-34 0.0000000000000000e+00  6.8215009981242774e-33 -1.0461347816955804e-32 0.0000000000000000e+00  4.1710232324252196e-34 -5.3092796795604539e-34 0.0000000000000000e+00  -4.6838788780368132e-34 6.6906574632278692e-34 0.0000000000000000e+00  5.2663703321413506e-35 -8.0530877726547165e-35 0.0000000000000000e+00  -2.1798172701571580e-35 2.9293640669612073e-35 0.0000000000000000e+00  4.8495780183498182e-36 -6.2951181494489466e-36 0.0000000000000000e+00  -1.4830695260368768e-36 1.9024892843157794e-36 0.0000000000000000e+00  4.9402142550868662e-37 -5.9928952274263577e-37 0.0000000000000000e+00  -2.4587650341451861e-37 2.9526780845293712e-37 0.0000000000000000e+00  8.3296432062904835e-38 -9.8931303262463153e-38 0.0000000000000000e+00  -1.7545296297998095e-38 2.0095699591030803e-38 0.0000000000000000e+00  7.1472853275002153e-39 -8.0243663047826923e-39 0.0000000000000000e+00  -4.0328564358573416e-40 4.8239674060500637e-40 0.0000000000000000e+00  -3.6809171060958046e-40 3.7499158132638691e-40 0.0000000000000000e+00  -1.6961967745839572e-41 9.4632564868898937e-42 0.0000000000000000e+00  3.8522585823134841e-40 -3.9628809001434153e-40 0.0000000000000000e+00  -9.0290627965039837e-40 8.8298269195041630e-40 0.0000000000000000e+00  3.6474939501806215e-39 -3.4033733029138225e-39 0.0000000000000000e+00  -2.7354962774977373e-39 2.3793645460256734e-39 0.0000000000000000e+00  -1.5085629093020030e-38 1.3738599315833472e-38 0.0000000000000000e+00  6.3007256329933154e-38 -5.5035791061648220e-38 0.0000000000000000e+00  -9.1577144949969884e-38 7.6966481532390233e-38 0.0000000000000000e+00  -1.3238145580938221e-37 1.1236412001532405e-37 0.0000000000000000e+00  9.5030243184034008e-37 -7.7003010540253428e-37 0.0000000000000000e+00  -1.7419655946140973e-36 1.3702663714005236e-36 0.0000000000000000e+00  -1.1898121821260403e-36 9.1133344174156806e-37 0.0000000000000000e+00  1.3075410906176902e-35 -9.7402416551933200e-36 0.0000000000000000e+00  -2.6312580049681595e-35 1.9035406299568300e-35 0.0000000000000000e+00  -1.5990065246042811e-35 1.0929517362122259e-35 0.0000000000000000e+00  1.8999457806740276e-34 -1.2865728709466574e-34 0.0000000000000000e+00  -3.1601093848288784e-34 2.1081705943848411e-34 0.0000000000000000e+00  -3.9148241810622760e-34 2.4194265579457894e-34 0.0000000000000000e+00  2.5885109480397210e-33 -1.5837445451131717e-33 0.0000000000000000e+00  -2.6825870749222747e-33 1.6398619355985719e-33 0.0000000000000000e+00  -9.1439575405199247e-33 5.0861172015101191e-33 0.0000000000000000e+00  2.9840010315734185e-32 -1.6563083365445218e-32 0.0000000000000000e+00  1.1042234409583253e-33 5.7413605458257174e-34 0.0000000000000000e+00  -1.5913934629468103e-31 7.9225870562033841e-32 0.0000000000000000e+00  2.1799044971582619e-31 -1.0929994434343430e-31 0.0000000000000000e+00  5.1890028851271018e-31 -2.2582207109056030e-31 0.0000000000000000e+00  -1.5869183665110599e-30 7.0608830662721233e-31 0.0000000000000000e+00  -8.3487160973394020e-31 2.7007325920097809e-31 0.0000000000000000e+00  8.2831399680153117e-30 -3.2619887280376256e-30 0.0000000000000000e+00  -2.6650906716317783e-30 1.4017240423073041e-30 0.0000000000000000e+00  -3.5851697418010701e-29 1.2284635819439349e-29 0.0000000000000000e+00  3.0003684807970777e-29 -1.1732920626382977e-29 0.0000000000000000e+00  1.4334686662754378e-28 -4.2331963127947939e-29 0.0000000000000000e+00  -1.6128858585465304e-28 5.4572126478611252e-29 0.0000000000000000e+00  -5.8657394359820685e-28 1.4789610849052377e-28 0.0000000000000000e+00  6.0925854838685679e-28 -1.9472921815374428e-28 0.0000000000000000e+00  2.4100336263985176e-27 -5.2047151290881099e-28 0.0000000000000000e+00  -1.7644634920410867e-27 5.4144645086633835e-28 0.0000000000000000e+00  -9.1599827804963853e-27 1.6940346407997286e-27 0.0000000000000000e+00  2.0165694588739198e-27 -9.0219084383907845e-28 0.0000000000000000e+00  2.8027183721521160e-26 -4.6217843388271279e-27 0.0000000000000000e+00  1.4028056120231759e-26 -7.9565835167865592e-28 0.0000000000000000e+00  -7.9591892447217240e-26 1.1706442467366968e-26 0.0000000000000000e+00  -1.2056034322941671e-25 1.3747708613039437e-26 0.0000000000000000e+00  1.4274499661060259e-25 -1.0549884997234118e-26 0.0000000000000000e+00  8.1963879805057493e-25 -3.8385323360198365e-26 0.0000000000000000e+00  1.4980530002618048e-24 -3.1303553147318482e-26 0.0000000000000000e+00  1.8292771631599819e-24 -1.8781807721042923e-27 0.0000000000000000e+00  1.7903118123058248e-24 1.0268190046158943e-26 0.0000000000000000e+00  1.8173856610893437e-24 -5.1935619650151560e-27 0.0000000000000000e+00  1.9592044713379630e-24 -9.7595729595556516e-27 0.0000000000000000e+00  1.8247818453068762e-24 1.4507751905423449e-26 0.0000000000000000e+00  1.1926524264348222e-24 3.5231261788948331e-26 0.0000000000000000e+00  3.4336769888725394e-25 2.2487355763242866e-26 0.0000000000000000e+00  -1.7375323852894629e-25 -7.1443012182174479e-27 0.0000000000000000e+00  -2.1902401379781806e-25 -1.9174477277633431e-26 0.0000000000000000e+00  -3.9242232198959321e-26 -6.4736453638066474e-27 0.0000000000000000e+00  5.9800673178754914e-26 6.2636595497893520e-27 0.0000000000000000e+00  3.6603780019433538e-26 5.4511190059447630e-27 0.0000000000000000e+00  -5.1748038269734990e-27 -5.8889955796368811e-28 0.0000000000000000e+00  -1.0830159598392715e-26 -2.0140817165992532e-27 0.0000000000000000e+00  -8.2706258014933342e-28 -2.3038510973464055e-28 0.0000000000000000e+00  2.6591379191362073e-27 5.9943346978799586e-28 0.0000000000000000e+00  4.1057777582840924e-28 1.1651977688816632e-28 0.0000000000000000e+00  -6.2471732987038044e-28 -1.6808299861784535e-28 0.0000000000000000e+00  -9.3263106318927333e-29 -3.1220503573900411e-29 0.0000000000000000e+00  1.4519869999508739e-28 4.6368322923874761e-29 0.0000000000000000e+00  8.1004364815054588e-30 3.9319769248639016e-30 0.0000000000000000e+00  -3.2747578749536362e-29 -1.2089024656747269e-29 0.0000000000000000e+00  2.4919299957285059e-30 6.9018580180445189e-31 0.0000000000000000e+00  6.3066961794733619e-30 2.6964523063440640e-30 0.0000000000000000e+00  -1.7934331220781884e-30 -7.1334867329011887e-31 0.0000000000000000e+00  -9.4294033896583344e-31 -4.6044264739937067e-31 0.0000000000000000e+00  5.9408196859749281e-31 2.7659001825557382e-31 0.0000000000000000e+00  3.6360152948074252e-32 2.6756240981594216e-32 0.0000000000000000e+00  -1.3252106594658447e-31 -6.8647855350856511e-32 0.0000000000000000e+00  2.9488139165040380e-32 1.4004153536098383e-32 0.0000000000000000e+00  1.9172838679421907e-32 1.1168289212497751e-32 0.0000000000000000e+00  -1.2215361974177914e-32 -6.8377718238504124e-33 0.0000000000000000e+00  1.7492030043104776e-34 -4.3997685780554600e-35 0.0000000000000000e+00  2.2070091985619577e-33 1.3839263246644988e-33 0.0000000000000000e+00  -8.3868661964243794e-34 -5.1238001503572509e-34 0.0000000000000000e+00  -1.1640215921629228e-34 -8.6999768785842588e-35 0.0000000000000000e+00  2.0203753157504084e-34 1.3660385333767519e-34 0.0000000000000000e+00  -5.7088254155906824e-35 -3.8457445559225197e-35 0.0000000000000000e+00  -1.3184077910421868e-35 -9.8972999792735817e-36 0.0000000000000000e+00  1.5014272546471110e-35 1.1032632392383508e-35 0.0000000000000000e+00  -3.9190650377415314e-36 -2.8967356889530099e-36 0.0000000000000000e+00  -9.2610834240777623e-37 -7.3615555500177810e-37 0.0000000000000000e+00  1.0560080704392607e-36 8.3913941685557055e-37 0.0000000000000000e+00  -3.0537904355255951e-37 -2.4807343846798192e-37 0.0000000000000000e+00  -3.8048612881996012e-38 -3.1571436247072581e-38 0.0000000000000000e+00  6.6549980806111878e-38 5.6905811152872061e-38 0.0000000000000000e+00  -2.5285436325230753e-38 -2.2229467294218950e-38 0.0000000000000000e+00  8.6678747946780036e-40 8.6327495113428199e-40 0.0000000000000000e+00  3.5737655938009374e-39 3.2365602096072740e-39 0.0000000000000000e+00  -1.8596558320715052e-39 -1.7393160603660697e-39 0.0000000000000000e+00  3.9927444249931909e-40 3.8744592571280584e-40 0.0000000000000000e+00  1.9469233963292930e-40 1.8481810218471431e-40 0.0000000000000000e+00  3.6520505514407464e-40 4.0046377589464828e-40 0.0000000000000000e+00  -1.0791393166999023e-39 -1.1461408321500110e-39 0.0000000000000000e+00  2.1067595809223535e-39 2.3097625608221185e-39 0.0000000000000000e+00  -1.4210570562743052e-38 -1.5473065294401471e-38 0.0000000000000000e+00  1.0068554348610584e-37 1.1277205740777885e-37 0.0000000000000000e+00  -2.2617650636396924e-37 -2.6306443465726958e-37 0.0000000000000000e+00  2.5314953562880172e-37 3.0766500330769036e-37 0.0000000000000000e+00  -4.1569178679570418e-36 -5.0802083369108393e-36 0.0000000000000000e+00  1.3587651809457624e-35 1.6430345751006372e-35 0.0000000000000000e+00  -6.0379135564038624e-35 -7.3661534596289612e-35 0.0000000000000000e+00  1.3594194768399952e-34 1.7412082756147069e-34 0.0000000000000000e+00  -2.9735919103780521e-34 -3.9909057543805894e-34 0.0000000000000000e+00  1.4671906679523916e-33 2.0020825284399607e-33 0.0000000000000000e+00  -1.2119606154406141e-33 -1.6895075836754557e-33 0.0000000000000000e+00  6.1175969348605692e-33 8.0260247345262406e-33 0.0000000000000000e+00  4.3359679424770278e-32 6.9317029673270794e-32 0.0000000000000000e+00  -2.0706153636144095e-31 -3.2195190955558482e-31 0.0000000000000000e+00  -5.5605827970635801e-31 -9.4793516797110894e-31 0.0000000000000000e+00  1.0467899181683503e-30 1.8356290248476696e-30 0.0000000000000000e+00  -6.7881998453893049e-32 -1.1999498111735100e-31 0.0000000000000000e+00  -3.2566137279280206e-30 -5.5707112396624968e-30 0.0000000000000000e+00  9.5880364035492915e-30 1.5333628922797981e-29 0.0000000000000000e+00  1.4537055749678282e-29 2.6629511992981894e-29 0.0000000000000000e+00  -9.5783056442328232e-29 -1.7318880648621799e-28 0.0000000000000000e+00  3.0980188028064790e-29 5.8960503498795859e-29 0.0000000000000000e+00  9.3591822673277165e-29 2.0330363714489454e-28 0.0000000000000000e+00  4.2820507597776664e-29 7.3598193662915746e-29 0.0000000000000000e+00  3.5857655292954148e-28 6.9660269231902662e-28 0.0000000000000000e+00  1.5062945720400188e-28 3.3815236896896474e-28 0.0000000000000000e+00  -4.5015821567947084e-28 -9.0998147955972295e-28 0.0000000000000000e+00  -3.7828445670363291e-28 -9.9043024731790538e-28 0.0000000000000000e+00  4.1745681550688922e-28 9.6921790535055458e-28 0.0000000000000000e+00  7.6931253880746012e-28 1.8968000948315579e-27 0.0000000000000000e+00  3.8833512593971670e-28 1.1428742470713514e-27 0.0000000000000000e+00  4.0862057218125704e-29 3.8403705000271521e-28 0.0000000000000000e+00  -8.9415286785209597e-28 -2.6080927035671338e-27 0.0000000000000000e+00  -3.4692645160480569e-28 -9.4939589553100980e-28 0.0000000000000000e+00  -1.8003816838389916e-28 -4.8658680983687717e-28 0.0000000000000000e+00  -4.5279852176100777e-28 -1.7104616220559145e-27 0.0000000000000000e+00  -4.1663567224036508e-28 -1.6866819517476700e-27 0.0000000000000000e+00  -3.3572079060163296e-28 -1.9651563014456164e-27 0.0000000000000000e+00  1.0955900738779653e-28 -7.8715177737465170e-29 0.0000000000000000e+00  5.0931953694837266e-28 2.5680311729721117e-27 0.0000000000000000e+00  8.9064359279918653e-29 3.6827822257402037e-28 0.0000000000000000e+00  -3.3133877993281622e-28 -2.7658316383325641e-27 0.0000000000000000e+00  2.2790154242675959e-28 1.7430352115664834e-27 0.0000000000000000e+00  1.4287941712081048e-28 1.5958576322474067e-27 0.0000000000000000e+00  -8.8713073459243906e-29 -1.4191337301175660e-27 0.0000000000000000e+00  -1.0452586803341274e-29 -1.7571575283547459e-29 0.0000000000000000e+00  -4.6633500459041597e-29 -1.4641150143866373e-27 0.0000000000000000e+00  -3.0513089496948379e-29 2.9108870843219283e-27 0.0000000000000000e+00  -1.3125117485841628e-28 2.7338179417763274e-27 0.0000000000000000e+00  1.4039478375586190e-29 -1.7263715234238383e-27 0.0000000000000000e+00  -6.8792484742490022e-29 -6.1046028094859443e-29 0.0000000000000000e+00  2.2409393031816692e-28 -2.4708033616759744e-27 0.0000000000000000e+00  -3.9338612433892776e-28 2.0664153162127346e-27 0.0000000000000000e+00  -2.5976204225432253e-28 1.0202133128988401e-27 0.0000000000000000e+00  -3.5517516616908355e-29 -6.1633093597908093e-28 0.0000000000000000e+00  -1.0251446049499025e-28 -8.3607663675435762e-29 0.0000000000000000e+00  6.1681394013215756e-28 -2.9147020667790318e-27 0.0000000000000000e+00  7.2343247256397221e-28 -3.3506442771235314e-27 0.0000000000000000e+00  1.2826795634801432e-27 -4.7282345409731434e-27 0.0000000000000000e+00  4.3036435808888895e-28 -1.3211011619812516e-27 0.0000000000000000e+00  -2.9749631047516453e-28 1.1549906532625247e-27 0.0000000000000000e+00  -8.4378471983638402e-28 2.4699766882115964e-27 0.0000000000000000e+00  -1.0121417996824952e-27 2.7133101443616108e-27 0.0000000000000000e+00  -3.0739177009581619e-28 7.1643602600144925e-28 0.0000000000000000e+00  1.5205521031401856e-28 -4.1217102938129299e-28 0.0000000000000000e+00  2.2928952469063902e-28 -5.4047621584496231e-28 0.0000000000000000e+00  9.3515923551710018e-28 -1.9529962948375006e-27 0.0000000000000000e+00  3.8179261880103743e-28 -7.5640654888027976e-28 0.0000000000000000e+00  -3.1410164205899149e-28 6.0506678367442076e-28 0.0000000000000000e+00  -9.6616642464611452e-30 3.3254257637119242e-29 0.0000000000000000e+00  3.3044315805633596e-29 -6.7875634106625398e-29 0.0000000000000000e+00  8.4300266736147313e-29 -1.5499408592459976e-28 0.0000000000000000e+00  -1.6754540809426776e-29 3.1260222763274209e-29 0.0000000000000000e+00  -2.4535834422654479e-29 4.1838021100553450e-29 0.0000000000000000e+00  2.5535