<?xml version="1.0"?>
<VTKFile type="UnstructuredGrid"  version="0.1"  >
<UnstructuredGrid>
<Piece  NumberOfPoints="11902" NumberOfCells="23402">
<Points>
<DataArray  type="Float64"  NumberOfComponents="3"  format="ascii">-5 -5 0  5 -5 0  5 5 0  -5 5 0  1.191812140680499 0.001251415498194197 0  -4.9 -5 0  -4.8 -5 0  -4.7 -5 0  -4.6 -5 0  -4.5 -5 0  -4.4 -5 0  -4.3 -5 0  -4.2 -5 0  -4.1 -5 0  -4 -5 0  -3.9 -5 0  -3.8 -5 0  -3.7 -5 0  -3.6 -5 0  -3.5 -5 0  -3.4 -5 0  -3.3 -5 0  -3.2 -5 0  -3.1 -5 0  -3 -5 0  -2.9 -5 0  -2.8 -5 0  -2.7 -5 0  -2.6 -5 0  -2.5 -5 0  -2.4 -5 0  -2.3 -5 0  -2.2 -5 0  -2.1 -5 0  -2 -5 0  -1.9 -5 0  -1.8 -5 0  -1.7 -5 0  -1.6 -5 0  -1.5 -5 0  -1.4 -5 0  -1.3 -5 0  -1.2 -5 0  -1.1 -5 0  -1 -5 0  -0.9000000000000004 -5 0  -0.7999999999999998 -5 0  -0.7000000000000002 -5 0  -0.5999999999999996 -5 0  -0.5 -5 0  -0.4000000000000004 -5 0  -0.2999999999999998 -5 0  -0.2000000000000002 -5 0  -0.09999999999999964 -5 0  0 -5 0  0.09999999999999964 -5 0  0.2000000000000002 -5 0  0.2999999999999998 -5 0  0.4000000000000004 -5 0  0.5 -5 0  0.5999999999999996 -5 0  0.7000000000000002 -5 0  0.7999999999999998 -5 0  0.9000000000000004 -5 0  1 -5 0  1.1 -5 0  1.2 -5 0  1.3 -5 0  1.4 -5 0  1.5 -5 0  1.6 -5 0  1.7 -5 0  1.8 -5 0  1.9 -5 0  2 -5 0  2.1 -5 0  2.2 -5 0  2.3 -5 0  2.4 -5 0  2.5 -5 0  2.6 -5 0  2.7 -5 0  2.8 -5 0  2.9 -5 0  3 -5 0  3.1 -5 0  3.199999999999999 -5 0  3.300000000000001 -5 0  3.4 -5 0  3.5 -5 0  3.6 -5 0  3.699999999999999 -5 0  3.800000000000001 -5 0  3.9 -5 0  4 -5 0  4.1 -5 0  4.199999999999999 -5 0  4.300000000000001 -5 0  4.4 -5 0  4.5 -5 0  4.6 -5 0  4.699999999999999 -5 0  4.800000000000001 -5 0  4.9 -5 0  5 -4.9 0  5 -4.8 0  5 -4.7 0  5 -4.6 0  5 -4.5 0  5 -4.4 0  5 -4.3 0  5 -4.2 0  5 -4.1 0  5 -4 0  5 -3.9 0  5 -3.8 0  5 -3.7 0  5 -3.6 0  5 -3.5 0  5 -3.4 0  5 -3.3 0  5 -3.2 0  5 -3.1 0  5 -3 0  5 -2.9 0  5 -2.8 0  5 -2.7 0  5 -2.6 0  5 -2.5 0  5 -2.4 0  5 -2.3 0  5 -2.2 0  5 -2.1 0  5 -2 0  5 -1.9 0  5 -1.8 0  5 -1.7 0  5 -1.6 0  5 -1.5 0  5 -1.4 0  5 -1.3 0  5 -1.2 0  5 -1.1 0  5 -1 0  5 -0.9000000000000004 0  5 -0.7999999999999998 0  5 -0.7000000000000002 0  5 -0.5999999999999996 0  5 -0.5 0  5 -0.4000000000000004 0  5 -0.2999999999999998 0  5 -0.2000000000000002 0  5 -0.09999999999999964 0  5 0 0  5 0.09999999999999964 0  5 0.2000000000000002 0  5 0.2999999999999998 0  5 0.4000000000000004 0  5 0.5 0  5 0.5999999999999996 0  5 0.7000000000000002 0  5 0.7999999999999998 0  5 0.9000000000000004 0  5 1 0  5 1.1 0  5 1.2 0  5 1.3 0  5 1.4 0  5 1.5 0  5 1.6 0  5 1.7 0  5 1.8 0  5 1.9 0  5 2 0  5 2.1 0  5 2.2 0  5 2.3 0  5 2.4 0  5 2.5 0  5 2.6 0  5 2.7 0  5 2.8 0  5 2.9 0  5 3 0  5 3.1 0  5 3.199999999999999 0  5 3.300000000000001 0  5 3.4 0  5 3.5 0  5 3.6 0  5 3.699999999999999 0  5 3.800000000000001 0  5 3.9 0  5 4 0  5 4.1 0  5 4.199999999999999 0  5 4.300000000000001 0  5 4.4 0  5 4.5 0  5 4.6 0  5 4.699999999999999 0  5 4.800000000000001 0  5 4.9 0  4.9 5 0  4.8 5 0  4.7 5 0  4.6 5 0  4.5 5 0  4.4 5 0  4.3 5 0  4.2 5 0  4.1 5 0  4 5 0  3.9 5 0  3.8 5 0  3.7 5 0  3.6 5 0  3.5 5 0  3.4 5 0  3.3 5 0  3.2 5 0  3.1 5 0  3 5 0  2.9 5 0  2.8 5 0  2.7 5 0  2.6 5 0  2.5 5 0  2.4 5 0  2.3 5 0  2.2 5 0  2.1 5 0  2 5 0  1.9 5 0  1.8 5 0  1.7 5 0  1.6 5 0  1.5 5 0  1.4 5 0  1.3 5 0  1.2 5 0  1.1 5 0  1 5 0  0.9000000000000004 5 0  0.7999999999999998 5 0  0.7000000000000002 5 0  0.5999999999999996 5 0  0.5 5 0  0.4000000000000004 5 0  0.2999999999999998 5 0  0.2000000000000002 5 0  0.09999999999999964 5 0  0 5 0  -0.09999999999999964 5 0  -0.2000000000000002 5 0  -0.2999999999999998 5 0  -0.4000000000000004 5 0  -0.5 5 0  -0.5999999999999996 5 0  -0.7000000000000002 5 0  -0.7999999999999998 5 0  -0.9000000000000004 5 0  -1 5 0  -1.1 5 0  -1.2 5 0  -1.3 5 0  -1.4 5 0  -1.5 5 0  -1.6 5 0  -1.7 5 0  -1.8 5 0  -1.9 5 0  -2 5 0  -2.1 5 0  -2.2 5 0  -2.3 5 0  -2.4 5 0  -2.5 5 0  -2.6 5 0  -2.7 5 0  -2.8 5 0  -2.9 5 0  -3 5 0  -3.1 5 0  -3.199999999999999 5 0  -3.300000000000001 5 0  -3.4 5 0  -3.5 5 0  -3.6 5 0  -3.699999999999999 5 0  -3.800000000000001 5 0  -3.9 5 0  -4 5 0  -4.1 5 0  -4.199999999999999 5 0  -4.300000000000001 5 0  -4.4 5 0  -4.5 5 0  -4.6 5 0  -4.699999999999999 5 0  -4.800000000000001 5 0  -4.9 5 0  -5 4.9 0  -5 4.8 0  -5 4.7 0  -5 4.6 0  -5 4.5 0  -5 4.4 0  -5 4.3 0  -5 4.2 0  -5 4.1 0  -5 4 0  -5 3.9 0  -5 3.8 0  -5 3.7 0  -5 3.6 0  -5 3.5 0  -5 3.4 0  -5 3.3 0  -5 3.2 0  -5 3.1 0  -5 3 0  -5 2.9 0  -5 2.8 0  -5 2.7 0  -5 2.6 0  -5 2.5 0  -5 2.4 0  -5 2.3 0  -5 2.2 0  -5 2.1 0  -5 2 0  -5 1.9 0  -5 1.8 0  -5 1.7 0  -5 1.6 0  -5 1.5 0  -5 1.4 0  -5 1.3 0  -5 1.2 0  -5 1.1 0  -5 1 0  -5 0.9000000000000004 0  -5 0.7999999999999998 0  -5 0.7000000000000002 0  -5 0.5999999999999996 0  -5 0.5 0  -5 0.4000000000000004 0  -5 0.2999999999999998 0  -5 0.2000000000000002 0  -5 0.09999999999999964 0  -5 0 0  -5 -0.09999999999999964 0  -5 -0.2000000000000002 0  -5 -0.2999999999999998 0  -5 -0.4000000000000004 0  -5 -0.5 0  -5 -0.5999999999999996 0  -5 -0.7000000000000002 0  -5 -0.7999999999999998 0  -5 -0.9000000000000004 0  -5 -1 0  -5 -1.1 0  -5 -1.2 0  -5 -1.3 0  -5 -1.4 0  -5 -1.5 0  -5 -1.6 0  -5 -1.7 0  -5 -1.8 0  -5 -1.9 0  -5 -2 0  -5 -2.1 0  -5 -2.2 0  -5 -2.3 0  -5 -2.4 0  -5 -2.5 0  -5 -2.6 0  -5 -2.7 0  -5 -2.8 0  -5 -2.9 0  -5 -3 0  -5 -3.1 0  -5 -3.199999999999999 0  -5 -3.300000000000001 0  -5 -3.4 0  -5 -3.5 0  -5 -3.6 0  -5 -3.699999999999999 0  -5 -3.800000000000001 0  -5 -3.9 0  -5 -4 0  -5 -4.1 0  -5 -4.199999999999999 0  -5 -4.300000000000001 0  -5 -4.4 0  -5 -4.5 0  -5 -4.6 0  -5 -4.699999999999999 0  -5 -4.800000000000001 0  -5 -4.9 0  1.185915796627009 0.09930072300667063 0  1.16737473163726 0.1976219338944521 0  1.136295224305565 0.2949573394063197 0  1.096025420029617 0.3866733110185089 0  1.04372440149222 0.4773934508624083 0  0.9820458854666468 0.5625632708317233 0  0.9095489156390086 0.6423303625068906 0  0.8277507935737867 0.7151346526322363 0  0.7389018856049246 0.7808822298032733 0  0.6420563241139713 0.8394585972001605 0  0.5381355735946483 0.8901695514400103 0  0.4298974178234522 0.9319947333309354 0  0.3192555958278842 0.9647851605895365 0  0.2033094723727868 0.9871932377842029 0  0.08821583858294726 1.001537547498011 0  -0.02767872357172414 1.004286420615344 0  -0.1436971128134264 0.9947893425110241 0  -0.260662590958908 0.9771882758574088 0  -0.3745146068377913 0.9509080012574085 0  -0.4834231776230579 0.9143618626575009 0  -0.5875125402813759 0.868840825105202 0  -0.6865317843224021 0.814113614769516 0  -0.7785023757422688 0.7512901489763415 0  -0.8638262327041121 0.6808937004272592 0  -0.9417346895326342 0.6028646827502646 0  -1.009391276264039 0.5203449669924045 0  -1.067643171073368 0.4333144545798349 0  -1.114628739131463 0.3411067039093012 0  -1.149879199935022 0.246836868763156 0  -1.173620113550264 0.1500741298055165 0  -1.185667181426641 0.05080607056660247 0  -1.185667807684713 -0.04911308396916349 0  -1.173573960365928 -0.1480691032779264 0  -1.150794321772912 -0.2448377229559756 0  -1.114180505157848 -0.3407134899593875 0  -1.068012632807886 -0.4320751102680994 0  -1.010345125313788 -0.5194053361291613 0  -0.9431743303486931 -0.601494177274127 0  -0.865538609834262 -0.6783874774573704 0  -0.7797743697026872 -0.7478625319609892 0  -0.6865804457680874 -0.8091961422669315 0  -0.5877575256130215 -0.8635879915548443 0  -0.4808248739577273 -0.9102236513369782 0  -0.3714476538447541 -0.9481805035145227 0  -0.2579180384209817 -0.9757891797080481 0  -0.1423020788971696 -0.9938416427680633 0  -0.0272042124741801 -1.003439392499202 0  0.08883009171040301 -0.999210273072123 0  0.2060215840054608 -0.9849933174721129 0  0.3207753294810855 -0.9631268974848542 0  0.4331673682405074 -0.9305767507637865 0  0.5397254088612925 -0.8892008400207326 0  0.6427589355559502 -0.8390063744004971 0  0.7390850091895871 -0.7818152550652848 0  0.8278263898967642 -0.7158149778810911 0  0.9090634728975694 -0.6417604850948992 0  0.9806889941022507 -0.5618909267653259 0  1.043606072529728 -0.4768497821494175 0  1.097071751340768 -0.3867510964667505 0  1.137680107849686 -0.2935844503620107 0  1.167609615547725 -0.1968109603838069 0  1.185932104917475 -0.09884363803568467 0  -2.448813242002488 4.918577414665793 0  -2.448710182679888 -4.910997794781015 0  4.910933622770001 2.448254205588303 0  4.919012862372948 -2.449683168749379 0  2.446484586513702 -4.896316969428613 0  2.440907795388423 4.900060659985376 0  -4.910956609058798 -2.44827676206835 0  -4.910955037344269 2.448280626261617 0  -1.748776927643227 4.911671215682614 0  -1.744552448766494 -4.915086352345462 0  4.921246210892611 1.744395201002939 0  4.909866408384564 -1.748203902690902 0  -4.910152711095956 -1.747932713732643 0  -4.910969920970881 1.747673745972499 0  1.74606608841045 4.90557712845466 0  1.747512407063438 -4.893807486341577 0  -1.149034978130125 4.909594951565356 0  -1.129871444363353 -4.917444228054005 0  -4.910047985693675 -1.14819648768525 0  -4.909869070109431 1.147996572695696 0  1.144016963910576 -4.913661036691524 0  1.149042347941141 4.909583787882518 0  4.910195101652355 1.146474019864624 0  4.920921985302656 -1.15222472926196 0  -0.546770151367394 -4.91085352619865 0  -0.5465419515747846 4.919460468536954 0  -4.908923596571888 -0.5488579527033256 0  -4.908948089320146 0.5474140009375712 0  4.908259564732394 -0.5491790843935932 0  4.919791055008625 0.545916113627026 0  0.5425618147769732 -4.897853866841607 0  0.5512725847233485 4.916312752759562 0  -4.91221977104312 -3.048573128454012 0  4.918769121464728 3.046571158294445 0  4.911731196279328 -3.048553279333323 0  -4.913065994271267 3.045662388309688 0  3.055512524507844 -4.917707822916328 0  -3.048858889766586 -4.911665997567887 0  3.052421394632943 4.913737598057766 0  -3.048303418897557 4.912552778328472 0  -4.908085231833238 -0.04992260720400891 0  0.04512631319798576 -4.912810608165334 0  0.04957432336509893 4.919773505064018 0  4.915070743320017 -0.05130377487171433 0  3.545786101282707 -4.919253934617721 0  -3.54908160473035
[...]
<PointData  Vectors="f_2216"> 
<DataArray  type="Float64"  Name="f_2216"  NumberOfComponents="3" format="ascii">-1.3075588204775212e-40 -1.4350945058786088e-40 0.0000000000000000e+00  1.5861157721527207e-40 -1.6864744772261725e-40 0.0000000000000000e+00  -2.1390188028208233e-40 -2.1062521919288173e-40 0.0000000000000000e+00  -2.5431191939323789e-40 2.5949698926373100e-40 0.0000000000000000e+00  1.5573921997104216e+01 -2.6020485359579681e-01 0.0000000000000000e+00  3.0209367555159525e-40 3.2006616150794187e-40 0.0000000000000000e+00  7.4111066605444837e-40 7.7654425959219299e-40 0.0000000000000000e+00  -1.6688843353708740e-39 -1.8912311496515817e-39 0.0000000000000000e+00  1.6276069963293009e-38 1.8451964544977694e-38 0.0000000000000000e+00  -5.2735326701863495e-38 -5.9110527327553502e-38 0.0000000000000000e+00  1.9666992853821856e-37 2.3122116065799845e-37 0.0000000000000000e+00  -7.0552860125065659e-37 -8.6133403474472909e-37 0.0000000000000000e+00  4.2028523743123051e-36 5.2745374095996216e-36 0.0000000000000000e+00  -2.6200521143476221e-35 -3.2898027340105769e-35 0.0000000000000000e+00  1.0667410512951760e-34 1.3654391585207623e-34 0.0000000000000000e+00  -2.3194496044073999e-34 -2.9969592540806815e-34 0.0000000000000000e+00  4.6572471579890468e-34 5.9998371237859449e-34 0.0000000000000000e+00  1.6823396700914091e-33 2.2158244034491470e-33 0.0000000000000000e+00  -7.4196176996960715e-33 -1.0240307710523845e-32 0.0000000000000000e+00  2.0926388612434752e-32 3.0561675850322943e-32 0.0000000000000000e+00  -1.2024917022398472e-31 -1.7648136312401602e-31 0.0000000000000000e+00  3.1727959484382618e-31 4.6856827940936764e-31 0.0000000000000000e+00  1.9011429266065919e-31 2.8904265178738137e-31 0.0000000000000000e+00  -1.5707238298724851e-30 -2.3908213378639848e-30 0.0000000000000000e+00  -6.9901293349425743e-31 -1.2154596369508850e-30 0.0000000000000000e+00  -1.6860251843962655e-30 -2.9812550392932943e-30 0.0000000000000000e+00  4.6019637348832176e-30 8.3553315570222517e-30 0.0000000000000000e+00  -1.0593318488475298e-29 -2.3435371421672661e-29 0.0000000000000000e+00  3.7437588506893115e-29 7.6696598302216464e-29 0.0000000000000000e+00  2.1659692676351512e-29 4.7547717710514272e-29 0.0000000000000000e+00  -1.8680586959568406e-28 -3.9747550565771225e-28 0.0000000000000000e+00  -6.6227022352561281e-29 -1.5441208336734617e-28 0.0000000000000000e+00  -1.1244125553108739e-28 -2.9852886624928791e-28 0.0000000000000000e+00  1.8767469624711534e-28 4.6165466352799927e-28 0.0000000000000000e+00  5.4792535147108523e-28 1.4627268985559452e-27 0.0000000000000000e+00  -2.8992835995122302e-29 -1.0211769246016056e-28 0.0000000000000000e+00  1.4930508568721394e-28 4.1296826089584719e-28 0.0000000000000000e+00  -9.0608745145107142e-29 -2.6614898085905287e-28 0.0000000000000000e+00  -4.8286612266598115e-28 -1.4592164112998858e-27 0.0000000000000000e+00  -4.4361840330025548e-28 -1.4437077027278657e-27 0.0000000000000000e+00  -1.5009573987218221e-29 -1.3999467537648365e-28 0.0000000000000000e+00  4.6441050160023254e-28 1.7166002866378272e-27 0.0000000000000000e+00  2.7020933443552031e-28 1.0319669297009528e-27 0.0000000000000000e+00  -2.0224327696755237e-29 -1.7540178311674434e-28 0.0000000000000000e+00  1.0677842327962777e-28 4.2037016010572482e-28 0.0000000000000000e+00  6.8993619588608787e-29 1.0601130579024259e-27 0.0000000000000000e+00  1.8810626717240803e-28 1.7818763886207064e-27 0.0000000000000000e+00  -6.6233844322356456e-29 -1.0453171891237969e-27 0.0000000000000000e+00  5.1819860935168987e-28 5.6947792413751082e-27 0.0000000000000000e+00  -1.0531900086960082e-28 -1.5074438586947908e-29 0.0000000000000000e+00  -4.8277467901329145e-28 -4.8802828823062418e-27 0.0000000000000000e+00  -2.9733135687621308e-28 -2.8131542247643871e-27 0.0000000000000000e+00  -2.4806894125054793e-28 -4.0359237580194200e-27 0.0000000000000000e+00  -1.8836895841718529e-28 -1.0224561587382755e-26 0.0000000000000000e+00  -2.2759540569191519e-29 -1.1719908051625524e-26 0.0000000000000000e+00  -4.6151627592443921e-30 -2.0202002673411557e-27 0.0000000000000000e+00  1.0310380294028822e-28 -6.3386003944624990e-27 0.0000000000000000e+00  1.1715617130543326e-28 -2.2491948705318085e-27 0.0000000000000000e+00  2.9539530422844117e-28 -4.0804744108865770e-27 0.0000000000000000e+00  -1.7602818640273692e-28 1.9057872657230547e-27 0.0000000000000000e+00  6.0654940161221849e-28 -5.4537714135457234e-27 0.0000000000000000e+00  7.1548259749080473e-28 -4.9551649945294225e-27 0.0000000000000000e+00  -1.1194424313694868e-28 1.0501720384847223e-27 0.0000000000000000e+00  -1.2240872462525737e-27 7.4475676964064424e-27 0.0000000000000000e+00  -5.6455398070513368e-28 2.9602742664033210e-27 0.0000000000000000e+00  -3.7201436935545142e-28 1.6936077314765426e-27 0.0000000000000000e+00  -9.6017049827419562e-28 4.2672979308287630e-27 0.0000000000000000e+00  -5.6522220238781188e-28 2.2573072973968154e-27 0.0000000000000000e+00  6.3409264390368780e-28 -2.5670803562354123e-27 0.0000000000000000e+00  3.5295339510462680e-28 -1.2065180580749259e-27 0.0000000000000000e+00  7.4580824082471001e-29 -2.2971018162892713e-28 0.0000000000000000e+00  3.2026863924082897e-28 -9.1034326385942445e-28 0.0000000000000000e+00  2.4991929338320038e-28 -7.1282809227047817e-28 0.0000000000000000e+00  -2.1484123222940553e-28 6.0487630105425711e-28 0.0000000000000000e+00  -1.5066941847517879e-28 4.0080007821878662e-28 0.0000000000000000e+00  -1.1448726653497059e-28 2.8820252728457353e-28 0.0000000000000000e+00  1.8639997333331365e-29 -5.3719853933143620e-29 0.0000000000000000e+00  8.0601467055445178e-29 -1.8941880610270132e-28 0.0000000000000000e+00  1.1589447426091266e-28 -2.5417355196426928e-28 0.0000000000000000e+00  -6.4443482578901789e-30 1.3867548848847903e-29 0.0000000000000000e+00  -8.4058803823347753e-29 1.7029599690854790e-28 0.0000000000000000e+00  1.3714192465858703e-29 -2.7771449861402938e-29 0.0000000000000000e+00  4.6665777041146474e-30 -8.7185830760810508e-30 0.0000000000000000e+00  -1.3031195811570718e-29 2.3204473011745684e-29 0.0000000000000000e+00  -1.0954376964267979e-30 1.6019111887928777e-30 0.0000000000000000e+00  1.5196991849026659e-30 -2.4592133048533573e-30 0.0000000000000000e+00  -7.7199299041122555e-31 1.2222061237931552e-30 0.0000000000000000e+00  1.0036984551867501e-31 -1.5910039617685762e-31 0.0000000000000000e+00  -1.1622796814161903e-32 1.7855156274688760e-32 0.0000000000000000e+00  -1.0768868353843231e-33 1.4854485345396589e-33 0.0000000000000000e+00  6.4779370351582382e-33 -8.8068992018171331e-33 0.0000000000000000e+00  2.5023271999491170e-34 -2.7627360801445163e-34 0.0000000000000000e+00  -3.7896926604519535e-34 4.8571770534165315e-34 0.0000000000000000e+00  4.0632991419654583e-35 -5.1261987237188202e-35 0.0000000000000000e+00  -1.5183311227283639e-35 1.9385487614769216e-35 0.0000000000000000e+00  3.9106407700681932e-36 -4.7619187083740858e-36 0.0000000000000000e+00  -1.5390260549387938e-36 1.7582284970538155e-36 0.0000000000000000e+00  4.8266713505060393e-37 -5.5304488545605596e-37 0.0000000000000000e+00  -2.4025069618342702e-37 2.6662065338079274e-37 0.0000000000000000e+00  8.0514743075322551e-38 -8.7684412160661362e-38 0.0000000000000000e+00  -1.5902678665167487e-38 1.7277212475079841e-38 0.0000000000000000e+00  6.3899956817171970e-39 -6.7412609809648629e-39 0.0000000000000000e+00  -4.2533737852411677e-40 4.3015615528547489e-40 0.0000000000000000e+00  -2.7465957671613935e-40 2.9279027977987751e-40 0.0000000000000000e+00  -5.0458406672891069e-42 4.1664004301308074e-42 0.0000000000000000e+00  3.8116315746887415e-40 -3.4863920956810550e-40 0.0000000000000000e+00  -8.7090359447500237e-40 7.7639337585232246e-40 0.0000000000000000e+00  3.1064253701194360e-39 -2.8411238216370052e-39 0.0000000000000000e+00  -1.6747700098452572e-39 1.7033333217274150e-39 0.0000000000000000e+00  -1.4957309472435027e-38 1.2528197086959777e-38 0.0000000000000000e+00  5.6405657472381463e-38 -4.7886120020825299e-38 0.0000000000000000e+00  -7.3552702553654507e-38 6.3645379174042317e-38 0.0000000000000000e+00  -1.4379667035084473e-37 1.1003033236973751e-37 0.0000000000000000e+00  8.7898623736669114e-37 -6.9426096036433963e-37 0.0000000000000000e+00  -1.4946305657582610e-36 1.1907599412886617e-36 0.0000000000000000e+00  -1.3926957870759748e-36 9.6524055708669055e-37 0.0000000000000000e+00  1.2197143031807965e-35 -8.9936116020143797e-36 0.0000000000000000e+00  -2.3144368495553115e-35 1.7043479047972777e-35 0.0000000000000000e+00  -1.7977204229625210e-35 1.1771275907751993e-35 0.0000000000000000e+00  1.7656102776125207e-34 -1.2116120967741086e-34 0.0000000000000000e+00  -2.7858871707678046e-34 1.9115133485862563e-34 0.0000000000000000e+00  -3.9193730194072547e-34 2.4874902493780356e-34 0.0000000000000000e+00  2.3820262036264124e-33 -1.5150039296708111e-33 0.0000000000000000e+00  -2.3100041144106231e-33 1.4648260802412115e-33 0.0000000000000000e+00  -8.7042794510447753e-33 5.1794555100198865e-33 0.0000000000000000e+00  2.7149524777276115e-32 -1.5956491599967683e-32 0.0000000000000000e+00  2.9849235191605807e-33 -1.3422189292409885e-33 0.0000000000000000e+00  -1.4841520151150926e-31 8.1096462189194983e-32 0.0000000000000000e+00  1.9381501711556063e-31 -1.0272367235666521e-31 0.0000000000000000e+00  4.9956092651310688e-31 -2.5410808162945422e-31 0.0000000000000000e+00  -1.4670907877343611e-30 7.2067481781783229e-31 0.0000000000000000e+00  -8.7428438406455454e-31 4.2092946508670133e-31 0.0000000000000000e+00  7.8718524229999722e-30 -3.5787795151423417e-30 0.0000000000000000e+00  -2.2505919848390200e-30 8.8925155106094968e-31 0.0000000000000000e+00  -3.4878771971984032e-29 1.4618064424433545e-29 0.0000000000000000e+00  2.8646449190129420e-29 -1.0636269252040215e-29 0.0000000000000000e+00  1.4249197693978080e-28 -5.5104660476103990e-29 0.0000000000000000e+00  -1.6112370539468394e-28 5.3160365255564469e-29 0.0000000000000000e+00  -5.9501356197497083e-28 2.0927090899151903e-28 0.0000000000000000e+00  6.3239582524903911e-28 -1.7825626201078279e-28 0.0000000000000000e+00  2.4816134223496363e-27 -7.7695753324357140e-28 0.0000000000000000e+00  -1.9018424906987899e-27 3.9102576130820114e-28 0.0000000000000000e+00  -9.5785081688073601e-27 2.4484748878268945e-27 0.0000000000000000e+00  2.6054147173660123e-27 3.3409696263448701e-29 0.0000000000000000e+00  3.0170156008587451e-26 -5.8979057793115221e-27 0.0000000000000000e+00  1.4648081607281371e-26 -3.8761792359090285e-27 0.0000000000000000e+00  -8.5192652577265216e-26 1.2039589076734902e-26 0.0000000000000000e+00  -1.2913964054268985e-25 1.7387754969581625e-26 0.0000000000000000e+00  1.4271613133588463e-25 -2.1413076657781206e-26 0.0000000000000000e+00  8.3354259692090704e-25 -9.7909463169216988e-26 0.0000000000000000e+00  1.5161086579522037e-24 -1.4661864418840385e-25 0.0000000000000000e+00  1.8416021415119341e-24 -1.3453151167381771e-25 0.0000000000000000e+00  1.7933616663739674e-24 -7.0584372476530178e-26 0.0000000000000000e+00  1.8059781025628461e-24 6.8227937923602305e-27 0.0000000000000000e+00  1.9270041472010792e-24 8.0915445744146756e-26 0.0000000000000000e+00  1.7852413423253185e-24 1.2183793164220811e-25 0.0000000000000000e+00  1.1737987030594650e-24 1.0264557399715888e-25 0.0000000000000000e+00  3.5664839499778452e-25 3.5965352273929389e-26 0.0000000000000000e+00  -1.4642317549442095e-25 -1.9755957659322520e-26 0.0000000000000000e+00  -2.0067732164105271e-25 -2.8027854010096955e-26 0.0000000000000000e+00  -3.5667038008240788e-26 -3.4040844305120621e-27 0.0000000000000000e+00  5.7186360336468028e-26 1.2352347813860373e-26 0.0000000000000000e+00  3.5027586475688267e-26 7.5601763221191792e-27 0.0000000000000000e+00  -4.7568445822175441e-27 -1.3090433142163496e-27 0.0000000000000000e+00  -1.0080484210120930e-26 -2.5940825675510580e-27 0.0000000000000000e+00  -5.9581556975886687e-28 -1.2073433416659279e-28 0.0000000000000000e+00  2.5498824897842844e-27 7.5617736373259274e-28 0.0000000000000000e+00  3.3250102435928394e-28 9.6090609766391621e-29 0.0000000000000000e+00  -6.1060588910868737e-28 -2.0308678982963260e-28 0.0000000000000000e+00  -7.4766314532376507e-29 -2.4436342736118929e-29 0.0000000000000000e+00  1.4188889758759917e-28 5.2542802734784225e-29 0.0000000000000000e+00  4.3505196740698493e-30 1.2807503552601526e-30 0.0000000000000000e+00  -3.1513417572320110e-29 -1.2810739313785022e-29 0.0000000000000000e+00  3.0216376515862686e-30 1.3995962675475328e-30 0.0000000000000000e+00  5.9357601623340250e-30 2.6433576760795337e-30 0.0000000000000000e+00  -1.7933664496102406e-30 -8.5378319837294371e-31 0.0000000000000000e+00  -8.6362114976854197e-31 -4.1243028316133223e-31 0.0000000000000000e+00  5.6659321165065399e-31 2.8962952450393010e-31 0.0000000000000000e+00  2.8553195039062706e-32 1.3158923680885345e-32 0.0000000000000000e+00  -1.2294267987370289e-31 -6.6893442636023057e-32 0.0000000000000000e+00  2.7770304427513974e-32 1.5968167775284025e-32 0.0000000000000000e+00  1.7479275446745302e-32 1.0055243028902206e-32 0.0000000000000000e+00  -1.1168177992629260e-32 -6.7274189364764163e-33 0.0000000000000000e+00  1.6383026371394589e-34 1.1568286724506065e-34 0.0000000000000000e+00  1.9961912940380261e-33 1.2817306939203183e-33 0.0000000000000000e+00  -7.5352105569087001e-34 -4.9614702051635839e-34 0.0000000000000000e+00  -1.0501755218271018e-34 -7.2500338950773168e-35 0.0000000000000000e+00  1.8022441899233421e-34 1.2562700943391870e-34 0.0000000000000000e+00  -5.0753758293925118e-35 -3.6044062674352557e-35 0.0000000000000000e+00  -1.1571901627397378e-35 -8.6974416442996880e-36 0.0000000000000000e+00  1.3215600031728425e-35 9.9571158213543965e-36 0.0000000000000000e+00  -3.4704444246196939e-36 -2.6267566851879927e-36 0.0000000000000000e+00  -7.8761142778917964e-37 -6.4704320465015181e-37 0.0000000000000000e+00  9.1655250133868128e-37 7.4197555026382608e-37 0.0000000000000000e+00  -2.6912860838893804e-37 -2.1806946229142053e-37 0.0000000000000000e+00  -2.9803230522602679e-38 -2.7694204383609302e-38 0.0000000000000000e+00  5.6611472446806633e-38 4.9359865342905772e-38 0.0000000000000000e+00  -2.1969609580721507e-38 -1.9098650612544391e-38 0.0000000000000000e+00  1.0334650168341114e-39 6.9108943975266307e-40 0.0000000000000000e+00  2.9434596823569901e-39 2.7722868199293074e-39 0.0000000000000000e+00  -1.5802400401002324e-39 -1.4713349237900314e-39 0.0000000000000000e+00  3.5319983153621809e-40 3.2327277438922169e-40 0.0000000000000000e+00  1.5130056355035489e-40 1.5819972254533945e-40 0.0000000000000000e+00  3.2612965919011942e-40 3.2944034412506726e-40 0.0000000000000000e+00  -8.9311297581390477e-40 -9.6507342105958800e-40 0.0000000000000000e+00  1.7860643613192152e-39 1.9734684748903910e-39 0.0000000000000000e+00  -1.2058122911815648e-38 -1.3407345664384660e-38 0.0000000000000000e+00  9.0374064086124420e-38 9.6751080839293951e-38 0.0000000000000000e+00  -2.2192075031183300e-37 -2.3184243947370411e-37 0.0000000000000000e+00  2.6794207504008563e-37 2.9112128487098354e-37 0.0000000000000000e+00  -3.8122822372255722e-36 -4.4678989085997938e-36 0.0000000000000000e+00  1.1315189020844151e-35 1.4188157953454782e-35 0.0000000000000000e+00  -4.6916250290696333e-35 -6.1734038897240426e-35 0.0000000000000000e+00  1.0390251268552995e-34 1.3894281314110733e-34 0.0000000000000000e+00  -1.9213562726487880e-34 -2.7982827006655006e-34 0.0000000000000000e+00  1.0907800600203041e-33 1.5024366671697654e-33 0.0000000000000000e+00  -6.5270942443518534e-34 -8.8251068066069134e-34 0.0000000000000000e+00  4.0013977164494218e-33 5.7323767023985440e-33 0.0000000000000000e+00  3.8054706674137914e-32 5.5610233555343897e-32 0.0000000000000000e+00  -1.7190017061052484e-31 -2.5183453376627022e-31 0.0000000000000000e+00  -5.1487820532064041e-31 -7.9023438927674824e-31 0.0000000000000000e+00  1.0490537625641756e-30 1.6203003211974821e-30 0.0000000000000000e+00  -2.7181916666480447e-31 -3.8549174939780572e-31 0.0000000000000000e+00  -2.9988127500655752e-30 -5.3915813048392254e-30 0.0000000000000000e+00  8.9645858569936773e-30 1.7323509658286630e-29 0.0000000000000000e+00  1.3082584800150417e-29 2.6387537306577786e-29 0.0000000000000000e+00  -8.3517458533071391e-29 -1.7066664700484301e-28 0.0000000000000000e+00  2.6846301318185175e-29 5.3485338753417862e-29 0.0000000000000000e+00  9.3739206725273702e-29 1.9273633545793511e-28 0.0000000000000000e+00  2.9005019740792986e-29 7.2700522137724223e-29 0.0000000000000000e+00  2.5728736881803237e-28 6.4391459621865305e-28 0.0000000000000000e+00  1.1268260117504079e-28 3.0054044193164734e-28 0.0000000000000000e+00  -2.8696488315364123e-28 -7.4396534935861316e-28 0.0000000000000000e+00  -3.8323378430268025e-28 -1.0900148375921667e-27 0.0000000000000000e+00  3.2887051420341804e-28 9.5016567179445732e-28 0.0000000000000000e+00  5.7681620392604075e-28 1.7761274364794368e-27 0.0000000000000000e+00  3.4442673560303992e-28 1.1731313348373284e-27 0.0000000000000000e+00  1.4949856240999871e-28 5.5660783924936251e-28 0.0000000000000000e+00  -6.5887849443504161e-28 -2.4266010298648251e-27 0.0000000000000000e+00  -1.9396454106423493e-28 -7.4873221697869755e-28 0.0000000000000000e+00  -6.5597856962834082e-29 -2.8521222485367777e-28 0.0000000000000000e+00  -3.1486069684344109e-28 -1.4927692994752533e-27 0.0000000000000000e+00  -2.6838036819521645e-28 -1.3917989769608830e-27 0.0000000000000000e+00  -3.3109663199886014e-28 -2.0357217378695536e-27 0.0000000000000000e+00  -8.8374324184894893e-29 -6.6589321425586855e-28 0.0000000000000000e+00  1.9295525563491580e-28 1.4482239247582137e-27 0.0000000000000000e+00  -2.1290523654095163e-29 -1.4131171440189506e-28 0.0000000000000000e+00  -1.7506374604372322e-28 -2.1680994763586764e-27 0.0000000000000000e+00  3.6757688611929391e-29 7.4163024662072469e-28 0.0000000000000000e+00  9.8131723155606715e-30 6.0669280070323176e-28 0.0000000000000000e+00  -2.2427406798180975e-29 -1.3922767732607003e-27 0.0000000000000000e+00  -1.8137383194051065e-30 -4.4773086538310340e-28 0.0000000000000000e+00  5.8953122763207263e-29 -1.5215951681440125e-27 0.0000000000000000e+00  -9.9347808723425815e-29 1.7601366853505304e-27 0.0000000000000000e+00  -1.3181865229694435e-28 1.6369142685998412e-27 0.0000000000000000e+00  1.6035962491370527e-28 -1.6311444098006320e-27 0.0000000000000000e+00  5.2389503854456428e-29 -3.4339962407593727e-28 0.0000000000000000e+00  2.6705746230639513e-28 -2.1602304652353228e-27 0.0000000000000000e+00  -1.2557731203200528e-28 1.2667258221150263e-27 0.0000000000000000e+00  -5.7379020626832692e-29 4.5431749477661991e-28 0.0000000000000000e+00  1.8409774649763076e-28 -8.8940347557290995e-28 0.0000000000000000e+00  7.9552693248026612e-29 -4.0781068931881225e-28 0.0000000000000000e+00  5.1232381979031682e-28 -2.6003245917191467e-27 0.0000000000000000e+00  7.1311230223129973e-28 -3.3325997698355040e-27 0.0000000000000000e+00  1.0369120450433415e-27 -4.4582189429040900e-27 0.0000000000000000e+00  3.1127870066598302e-28 -1.1970920039003258e-27 0.0000000000000000e+00  -3.3868262620589981e-28 1.3117426504877399e-27 0.0000000000000000e+00  -6.8571612152843930e-28 2.4138377656871566e-27 0.0000000000000000e+00  -7.9278169845473707e-28 2.6112619629856014e-27 0.0000000000000000e+00  -2.0441343955436818e-28 6.2450195023231657e-28 0.0000000000000000e+00  1.5821218388293364e-28 -4.8044335041644789e-28 0.0000000000000000e+00  1.5257091718219056e-28 -4.6208270929762946e-28 0.0000000000000000e+00  6.3232662748737348e-28 -1.7207842022561166e-27 0.0000000000000000e+00  2.6784949790304854e-28 -6.8026039107953473e-28 0.0000000000000000e+00  -2.2300872944841219e-28 5.6026471115872809e-28 0.0000000000000000e+00  -1.0868159256914331e-29 1.8438961820502820e-29 0.0000000000000000e+00  2.6759416516129999e-29 -6.1460343311007334e-29 0.0000000000000000e+00  6.3198842990776309e-29 -1.3651182987807088e-28 0.0000000000000000e+00  -1.3478507914794500e-29 2.8322851929627690e-29 0.0000000000000000e+00  -1.9834674931954538e-29 3.9307134240474103e-29 0.0000000000000000e+00  1.623