<?xml version="1.0"?>
<VTKFile type="UnstructuredGrid"  version="0.1"  >
<UnstructuredGrid>
<Piece  NumberOfPoints="11902" NumberOfCells="23402">
<Points>
<DataArray  type="Float64"  NumberOfComponents="3"  format="ascii">-5 -5 0  5 -5 0  5 5 0  -5 5 0  1.166341066014254 0.001108648441163128 0  -4.9 -5 0  -4.8 -5 0  -4.7 -5 0  -4.6 -5 0  -4.5 -5 0  -4.4 -5 0  -4.3 -5 0  -4.2 -5 0  -4.1 -5 0  -4 -5 0  -3.9 -5 0  -3.8 -5 0  -3.7 -5 0  -3.6 -5 0  -3.5 -5 0  -3.4 -5 0  -3.3 -5 0  -3.2 -5 0  -3.1 -5 0  -3 -5 0  -2.9 -5 0  -2.8 -5 0  -2.7 -5 0  -2.6 -5 0  -2.5 -5 0  -2.4 -5 0  -2.3 -5 0  -2.2 -5 0  -2.1 -5 0  -2 -5 0  -1.9 -5 0  -1.8 -5 0  -1.7 -5 0  -1.6 -5 0  -1.5 -5 0  -1.4 -5 0  -1.3 -5 0  -1.2 -5 0  -1.1 -5 0  -1 -5 0  -0.9000000000000004 -5 0  -0.7999999999999998 -5 0  -0.7000000000000002 -5 0  -0.5999999999999996 -5 0  -0.5 -5 0  -0.4000000000000004 -5 0  -0.2999999999999998 -5 0  -0.2000000000000002 -5 0  -0.09999999999999964 -5 0  0 -5 0  0.09999999999999964 -5 0  0.2000000000000002 -5 0  0.2999999999999998 -5 0  0.4000000000000004 -5 0  0.5 -5 0  0.5999999999999996 -5 0  0.7000000000000002 -5 0  0.7999999999999998 -5 0  0.9000000000000004 -5 0  1 -5 0  1.1 -5 0  1.2 -5 0  1.3 -5 0  1.4 -5 0  1.5 -5 0  1.6 -5 0  1.7 -5 0  1.8 -5 0  1.9 -5 0  2 -5 0  2.1 -5 0  2.2 -5 0  2.3 -5 0  2.4 -5 0  2.5 -5 0  2.6 -5 0  2.7 -5 0  2.8 -5 0  2.9 -5 0  3 -5 0  3.1 -5 0  3.199999999999999 -5 0  3.300000000000001 -5 0  3.4 -5 0  3.5 -5 0  3.6 -5 0  3.699999999999999 -5 0  3.800000000000001 -5 0  3.9 -5 0  4 -5 0  4.1 -5 0  4.199999999999999 -5 0  4.300000000000001 -5 0  4.4 -5 0  4.5 -5 0  4.6 -5 0  4.699999999999999 -5 0  4.800000000000001 -5 0  4.9 -5 0  5 -4.9 0  5 -4.8 0  5 -4.7 0  5 -4.6 0  5 -4.5 0  5 -4.4 0  5 -4.3 0  5 -4.2 0  5 -4.1 0  5 -4 0  5 -3.9 0  5 -3.8 0  5 -3.7 0  5 -3.6 0  5 -3.5 0  5 -3.4 0  5 -3.3 0  5 -3.2 0  5 -3.1 0  5 -3 0  5 -2.9 0  5 -2.8 0  5 -2.7 0  5 -2.6 0  5 -2.5 0  5 -2.4 0  5 -2.3 0  5 -2.2 0  5 -2.1 0  5 -2 0  5 -1.9 0  5 -1.8 0  5 -1.7 0  5 -1.6 0  5 -1.5 0  5 -1.4 0  5 -1.3 0  5 -1.2 0  5 -1.1 0  5 -1 0  5 -0.9000000000000004 0  5 -0.7999999999999998 0  5 -0.7000000000000002 0  5 -0.5999999999999996 0  5 -0.5 0  5 -0.4000000000000004 0  5 -0.2999999999999998 0  5 -0.2000000000000002 0  5 -0.09999999999999964 0  5 0 0  5 0.09999999999999964 0  5 0.2000000000000002 0  5 0.2999999999999998 0  5 0.4000000000000004 0  5 0.5 0  5 0.5999999999999996 0  5 0.7000000000000002 0  5 0.7999999999999998 0  5 0.9000000000000004 0  5 1 0  5 1.1 0  5 1.2 0  5 1.3 0  5 1.4 0  5 1.5 0  5 1.6 0  5 1.7 0  5 1.8 0  5 1.9 0  5 2 0  5 2.1 0  5 2.2 0  5 2.3 0  5 2.4 0  5 2.5 0  5 2.6 0  5 2.7 0  5 2.8 0  5 2.9 0  5 3 0  5 3.1 0  5 3.199999999999999 0  5 3.300000000000001 0  5 3.4 0  5 3.5 0  5 3.6 0  5 3.699999999999999 0  5 3.800000000000001 0  5 3.9 0  5 4 0  5 4.1 0  5 4.199999999999999 0  5 4.300000000000001 0  5 4.4 0  5 4.5 0  5 4.6 0  5 4.699999999999999 0  5 4.800000000000001 0  5 4.9 0  4.9 5 0  4.8 5 0  4.7 5 0  4.6 5 0  4.5 5 0  4.4 5 0  4.3 5 0  4.2 5 0  4.1 5 0  4 5 0  3.9 5 0  3.8 5 0  3.7 5 0  3.6 5 0  3.5 5 0  3.4 5 0  3.3 5 0  3.2 5 0  3.1 5 0  3 5 0  2.9 5 0  2.8 5 0  2.7 5 0  2.6 5 0  2.5 5 0  2.4 5 0  2.3 5 0  2.2 5 0  2.1 5 0  2 5 0  1.9 5 0  1.8 5 0  1.7 5 0  1.6 5 0  1.5 5 0  1.4 5 0  1.3 5 0  1.2 5 0  1.1 5 0  1 5 0  0.9000000000000004 5 0  0.7999999999999998 5 0  0.7000000000000002 5 0  0.5999999999999996 5 0  0.5 5 0  0.4000000000000004 5 0  0.2999999999999998 5 0  0.2000000000000002 5 0  0.09999999999999964 5 0  0 5 0  -0.09999999999999964 5 0  -0.2000000000000002 5 0  -0.2999999999999998 5 0  -0.4000000000000004 5 0  -0.5 5 0  -0.5999999999999996 5 0  -0.7000000000000002 5 0  -0.7999999999999998 5 0  -0.9000000000000004 5 0  -1 5 0  -1.1 5 0  -1.2 5 0  -1.3 5 0  -1.4 5 0  -1.5 5 0  -1.6 5 0  -1.7 5 0  -1.8 5 0  -1.9 5 0  -2 5 0  -2.1 5 0  -2.2 5 0  -2.3 5 0  -2.4 5 0  -2.5 5 0  -2.6 5 0  -2.7 5 0  -2.8 5 0  -2.9 5 0  -3 5 0  -3.1 5 0  -3.199999999999999 5 0  -3.300000000000001 5 0  -3.4 5 0  -3.5 5 0  -3.6 5 0  -3.699999999999999 5 0  -3.800000000000001 5 0  -3.9 5 0  -4 5 0  -4.1 5 0  -4.199999999999999 5 0  -4.300000000000001 5 0  -4.4 5 0  -4.5 5 0  -4.6 5 0  -4.699999999999999 5 0  -4.800000000000001 5 0  -4.9 5 0  -5 4.9 0  -5 4.8 0  -5 4.7 0  -5 4.6 0  -5 4.5 0  -5 4.4 0  -5 4.3 0  -5 4.2 0  -5 4.1 0  -5 4 0  -5 3.9 0  -5 3.8 0  -5 3.7 0  -5 3.6 0  -5 3.5 0  -5 3.4 0  -5 3.3 0  -5 3.2 0  -5 3.1 0  -5 3 0  -5 2.9 0  -5 2.8 0  -5 2.7 0  -5 2.6 0  -5 2.5 0  -5 2.4 0  -5 2.3 0  -5 2.2 0  -5 2.1 0  -5 2 0  -5 1.9 0  -5 1.8 0  -5 1.7 0  -5 1.6 0  -5 1.5 0  -5 1.4 0  -5 1.3 0  -5 1.2 0  -5 1.1 0  -5 1 0  -5 0.9000000000000004 0  -5 0.7999999999999998 0  -5 0.7000000000000002 0  -5 0.5999999999999996 0  -5 0.5 0  -5 0.4000000000000004 0  -5 0.2999999999999998 0  -5 0.2000000000000002 0  -5 0.09999999999999964 0  -5 0 0  -5 -0.09999999999999964 0  -5 -0.2000000000000002 0  -5 -0.2999999999999998 0  -5 -0.4000000000000004 0  -5 -0.5 0  -5 -0.5999999999999996 0  -5 -0.7000000000000002 0  -5 -0.7999999999999998 0  -5 -0.9000000000000004 0  -5 -1 0  -5 -1.1 0  -5 -1.2 0  -5 -1.3 0  -5 -1.4 0  -5 -1.5 0  -5 -1.6 0  -5 -1.7 0  -5 -1.8 0  -5 -1.9 0  -5 -2 0  -5 -2.1 0  -5 -2.2 0  -5 -2.3 0  -5 -2.4 0  -5 -2.5 0  -5 -2.6 0  -5 -2.7 0  -5 -2.8 0  -5 -2.9 0  -5 -3 0  -5 -3.1 0  -5 -3.199999999999999 0  -5 -3.300000000000001 0  -5 -3.4 0  -5 -3.5 0  -5 -3.6 0  -5 -3.699999999999999 0  -5 -3.800000000000001 0  -5 -3.9 0  -5 -4 0  -5 -4.1 0  -5 -4.199999999999999 0  -5 -4.300000000000001 0  -5 -4.4 0  -5 -4.5 0  -5 -4.6 0  -5 -4.699999999999999 0  -5 -4.800000000000001 0  -5 -4.9 0  1.16066462335908 0.09988329669926971 0  1.142762903291645 0.198673763477674 0  1.112616478342501 0.2962589277911508 0  1.073311648313811 0.3886740087976089 0  1.022496262090808 0.4795455558351002 0  0.9623196243016086 0.5649460341740216 0  0.8916480546534603 0.6447206799590146 0  0.8116412414083619 0.7175663132625566 0  0.7246096307177315 0.7835582079086778 0  0.6300706280934352 0.842294636603287 0  0.5286020266188265 0.8926293462859316 0  0.4224094297560556 0.9341933366794466 0  0.3136408870097082 0.9668783615133661 0  0.2002752290707512 0.9892139488887661 0  0.08696551121703591 1.002782799690828 0  -0.027500268069222 1.005451561509211 0  -0.1418945295878984 0.9967021380687108 0  -0.2561169138509367 0.9793715031681304 0  -0.3676845926448922 0.9527761208243265 0  -0.4748567400812946 0.9161309242530784 0  -0.5770794547783071 0.8707483951600635 0  -0.6742088031305284 0.8160582893182079 0  -0.7645452777459838 0.753483433062281 0  -0.8478896936323984 0.6834487606925379 0  -0.9235688219691227 0.6056135366808869 0  -0.9893705200634744 0.5227766122736951 0  -1.046062454126133 0.4353820272057274 0  -1.091672763850142 0.3428618170761598 0  -1.125958548103699 0.2479363310570289 0  -1.149171849392775 0.1505468306662279 0  -1.160980680163268 0.0508673611251154 0  -1.16099855142006 -0.04942162052816183 0  -1.149181906451864 -0.1488505871306923 0  -1.127114679592501 -0.2462488522965291 0  -1.091427009591005 -0.3423788014610696 0  -1.046428064520263 -0.434108834076949 0  -0.9901771069790839 -0.5217772137370535 0  -0.9247124906391289 -0.6042339340907368 0  -0.8491559251840112 -0.6810857139809799 0  -0.7652986349617179 -0.7504772113570944 0  -0.6740123386535573 -0.8119879621871637 0  -0.5774263256336292 -0.8665838860314564 0  -0.4727890332214426 -0.9126582490274628 0  -0.3653613271967573 -0.9503399300995665 0  -0.2538072671519297 -0.9778613153498418 0  -0.1405449055766912 -0.9956686477816112 0  -0.02682109684042311 -1.00474099565381 0  0.08753559547477878 -1.001069657724383 0  0.2023785476471595 -0.9873574231051006 0  0.3147960272753624 -0.9653020197158196 0  0.4252002934849941 -0.9328286931892208 0  0.5298781815629915 -0.8916357785334238 0  0.6306820849820722 -0.8416716750265857 0  0.7248336037670698 -0.7843073680744819 0  0.8117679082954325 -0.7181197467971905 0  0.891218801317349 -0.6441491952104332 0  0.9612158511796973 -0.5642306135651385 0  1.022495127628182 -0.4790509944966575 0  1.074397465636459 -0.3887777471686596 0  1.113858364749938 -0.2951826264720157 0  1.142923625969524 -0.1979577153247256 0  1.160676392618487 -0.09947719472395619 0  -2.448928855044696 4.918790966951066 0  -2.448835981043329 -4.911230638617045 0  4.911171983205276 2.448421885012837 0  4.919229115714332 -2.449835638635442 0  2.446631013427824 -4.896590629229504 0  2.441049429496908 4.900325323808912 0  -4.911192960242334 -2.448442572974221 0  -4.911192004864053 2.448446403261938 0  -1.74889628985761 4.911978755279465 0  -1.74466657911949 -4.915381468369187 0  4.921547450228885 1.74454702603169 0  4.910210441716789 -1.748377946686251 0  -4.910492860525178 -1.748104139817007 0  -4.911307667433317 1.747843352022853 0  1.746192805430166 4.905907528919813 0  1.747654397508422 -4.894178520268538 0  -1.14912994890346 4.909967359489674 0  -1.129956893544712 -4.917784573214226 0  -4.91047402080731 -1.148337599071851 0  -4.910296542931899 1.148137465670055 0  1.144105744311424 -4.914017434976916 0  1.149136225791592 4.909957355175792 0  4.910624744153989 1.146616244044506 0  4.921299356673365 -1.152350541849702 0  -0.546819530236513 -4.911257891539715 0  -0.5465867614194047 4.919826933400147 0  -4.909418745470473 -0.548936426243973 0  -4.909443523508535 0.5474915990383459 0  4.908763072107219 -0.549259086945301 0  4.9202314617974 0.5459853740866667 0  0.5426159657005123 -4.898318429983844 0  0.5513181413220452 4.916693948288973 0  -4.912379128296306 -3.048710100381625 0  4.91891784776697 3.046699386052896 0  4.911892395485198 -3.048692519076817 0  -4.913224606080777 3.045798283950089 0  3.055615518890637 -4.917864346222722 0  -3.048969658883986 -4.911833242430663 0  3.05252982079193 4.913902143605892 0  -3.048413470925205 4.912718833651661 0  -4.908606264020845 -0.04993045285595107 0  0.0451293028492402 -4.913218019290712 0  0.04957777310182062 4.920149464878674 0  4.915556693035598 -0.05131111672229517 0  3.5458678774206 -4.919363514280745 0  -3.549170436889193 4.91
[...]
<PointData  Vectors="f_1792"> 
<DataArray  type="Float64"  Name="f_1792"  NumberOfComponents="3" format="ascii">-1.4424494224362700e-40 -1.5278786340688945e-40 0.0000000000000000e+00  1.7765304928325111e-40 -1.8314570921414238e-40 0.0000000000000000e+00  -2.2732143871852000e-40 -2.2617417382829507e-40 0.0000000000000000e+00  -2.7697681743245040e-40 2.8527032622753892e-40 0.0000000000000000e+00  1.5069364773501819e+01 -3.8334337397493828e-01 0.0000000000000000e+00  3.2798702628764836e-40 3.4084406028008317e-40 0.0000000000000000e+00  7.7103208984888084e-40 8.2976326017076744e-40 0.0000000000000000e+00  -1.7199840821795719e-39 -1.9838153206251960e-39 0.0000000000000000e+00  1.7294498855770980e-38 1.9449865217495071e-38 0.0000000000000000e+00  -5.5774306015263195e-38 -6.1596018265243102e-38 0.0000000000000000e+00  2.1091304820569763e-37 2.3767792152229040e-37 0.0000000000000000e+00  -7.5879353983667342e-37 -8.8055769220709275e-37 0.0000000000000000e+00  4.5117750220059725e-36 5.5478724913427482e-36 0.0000000000000000e+00  -2.7934667751268379e-35 -3.5258520967545457e-35 0.0000000000000000e+00  1.1310725344312378e-34 1.4549489257663388e-34 0.0000000000000000e+00  -2.4320402699520100e-34 -3.2068182995137757e-34 0.0000000000000000e+00  4.8377157427128361e-34 6.4870087662984721e-34 0.0000000000000000e+00  1.7322211152400594e-33 2.3736186318072001e-33 0.0000000000000000e+00  -7.7614858928531516e-33 -1.0939575347100518e-32 0.0000000000000000e+00  2.2312367014442016e-32 3.2702748043465515e-32 0.0000000000000000e+00  -1.2669781741596840e-31 -1.8864851472320880e-31 0.0000000000000000e+00  3.3338200505862058e-31 4.9975295087533147e-31 0.0000000000000000e+00  1.8802015864688310e-31 3.0994285690858081e-31 0.0000000000000000e+00  -1.5796122818076154e-30 -2.5522345250308342e-30 0.0000000000000000e+00  -7.7564681781771124e-31 -1.2833131065362316e-30 0.0000000000000000e+00  -1.9851410354873277e-30 -3.3230638057419590e-30 0.0000000000000000e+00  5.0016630887735270e-30 8.9087776256883535e-30 0.0000000000000000e+00  -1.1878836160476541e-29 -2.2874383869095012e-29 0.0000000000000000e+00  4.0987264882957223e-29 7.8344344686836614e-29 0.0000000000000000e+00  2.4015239383138716e-29 4.9123568023144683e-29 0.0000000000000000e+00  -2.0354316626250806e-28 -4.1476025143861565e-28 0.0000000000000000e+00  -7.0224683218372654e-29 -1.5511641973985537e-28 0.0000000000000000e+00  -1.1970964093492369e-28 -2.8436405842643083e-28 0.0000000000000000e+00  2.0284881647892871e-28 4.6309036418718995e-28 0.0000000000000000e+00  6.0188092863251610e-28 1.4794649992352842e-27 0.0000000000000000e+00  -4.9945406079381262e-29 -1.0867095412629837e-28 0.0000000000000000e+00  1.4480475985330767e-28 4.1026163442381921e-28 0.0000000000000000e+00  -1.0124112332564828e-28 -2.6758700157455932e-28 0.0000000000000000e+00  -4.8998053114627327e-28 -1.4536979869279958e-27 0.0000000000000000e+00  -4.4606861949548883e-28 -1.4490358426235385e-27 0.0000000000000000e+00  -2.1257272156459177e-29 -1.6126087927347468e-28 0.0000000000000000e+00  4.7388978140842992e-28 1.7292895458944381e-27 0.0000000000000000e+00  2.6605898783187613e-28 1.0464651407048638e-27 0.0000000000000000e+00  -3.5803982185633164e-29 -1.8617056239967650e-28 0.0000000000000000e+00  9.6921379156071017e-29 4.2745542529352082e-28 0.0000000000000000e+00  1.7652077648839417e-28 1.0994592882186646e-27 0.0000000000000000e+00  2.8830841217801120e-28 1.8431117287679456e-27 0.0000000000000000e+00  -1.3279339171395465e-28 -1.0668393491853103e-27 0.0000000000000000e+00  6.7119158855878212e-28 5.9067519456600945e-27 0.0000000000000000e+00  -6.2188509365727613e-29 -2.6096808187489270e-29 0.0000000000000000e+00  -4.6975453389346202e-28 -5.0912688205130107e-27 0.0000000000000000e+00  -2.1428703846962515e-28 -2.9671500340967758e-27 0.0000000000000000e+00  -2.1758258148599719e-28 -4.2297556279730714e-27 0.0000000000000000e+00  -2.6973355712828674e-28 -1.0602626014375843e-26 0.0000000000000000e+00  -9.5355797432457407e-29 -1.2152974992912970e-26 0.0000000000000000e+00  4.4856463040991148e-30 -2.1056121945342778e-27 0.0000000000000000e+00  1.3681328770414207e-28 -6.6188379159536362e-27 0.0000000000000000e+00  1.6013578724074563e-28 -2.3848784217220342e-27 0.0000000000000000e+00  3.5964893324679925e-28 -4.2806209349563134e-27 0.0000000000000000e+00  -2.0682857927848811e-28 1.9359416954568899e-27 0.0000000000000000e+00  6.7988012064465227e-28 -5.7451011005296095e-27 0.0000000000000000e+00  7.7677375466732338e-28 -5.2127939101274334e-27 0.0000000000000000e+00  -1.4203503588609353e-28 1.0660233742899107e-27 0.0000000000000000e+00  -1.4258277682622219e-27 7.7420506932822140e-27 0.0000000000000000e+00  -6.4314412676829611e-28 3.0746408601630054e-27 0.0000000000000000e+00  -3.8832036030770873e-28 1.7908621579352361e-27 0.0000000000000000e+00  -1.0736100908221884e-27 4.4320080097227181e-27 0.0000000000000000e+00  -6.3360370124530057e-28 2.3422942415618930e-27 0.0000000000000000e+00  7.2688888832118039e-28 -2.6402384172679658e-27 0.0000000000000000e+00  3.8418301669068528e-28 -1.2419040533183396e-27 0.0000000000000000e+00  8.0174093082117855e-29 -2.5426387732459360e-28 0.0000000000000000e+00  3.3235536634867714e-28 -9.4661065808847929e-28 0.0000000000000000e+00  2.7505151581026253e-28 -7.4018099067651348e-28 0.0000000000000000e+00  -2.3566643766526698e-28 6.2174990469224055e-28 0.0000000000000000e+00  -1.7630903021371467e-28 4.3438456998549603e-28 0.0000000000000000e+00  -1.3070861379266181e-28 3.0542207701209963e-28 0.0000000000000000e+00  1.9302093288900571e-29 -5.1135675204850445e-29 0.0000000000000000e+00  9.2638949550434711e-29 -2.0377317849448383e-28 0.0000000000000000e+00  1.3221154096076373e-28 -2.7060389669485027e-28 0.0000000000000000e+00  -5.8929729112385326e-30 1.4316046717856142e-29 0.0000000000000000e+00  -9.3390014758803850e-29 1.7852774220070989e-28 0.0000000000000000e+00  1.5250120090150510e-29 -2.9308049099659086e-29 0.0000000000000000e+00  5.1441601890120809e-30 -8.9853838738132438e-30 0.0000000000000000e+00  -1.3794829118197979e-29 2.4194772441431676e-29 0.0000000000000000e+00  -1.0847794461225265e-30 1.6684410437552665e-30 0.0000000000000000e+00  1.5768937206464802e-30 -2.5729838994580417e-30 0.0000000000000000e+00  -8.0948981962993405e-31 1.2949045424630358e-30 0.0000000000000000e+00  1.0308646841775605e-31 -1.6377061881787110e-31 0.0000000000000000e+00  -1.2193068636514393e-32 1.8583187346680768e-32 0.0000000000000000e+00  -7.8416298498703866e-34 1.1610828550238750e-33 0.0000000000000000e+00  6.6627302962924037e-33 -9.3503224153252557e-33 0.0000000000000000e+00  3.1455624910871712e-34 -3.6972873656975636e-34 0.0000000000000000e+00  -4.1473818293846533e-34 5.4916115786562832e-34 0.0000000000000000e+00  4.5517841164752632e-35 -6.1588426027242457e-35 0.0000000000000000e+00  -1.7465367112161797e-35 2.2543654733744971e-35 0.0000000000000000e+00  4.2601760197353704e-36 -5.2661605172267281e-36 0.0000000000000000e+00  -1.5497778348382377e-36 1.8278457767091531e-36 0.0000000000000000e+00  4.9378249367350620e-37 -5.7232680590243995e-37 0.0000000000000000e+00  -2.4617189219291986e-37 2.7878232230628669e-37 0.0000000000000000e+00  8.2826890724249446e-38 -9.2384616948333642e-38 0.0000000000000000e+00  -1.6670202642493486e-38 1.8342921246616478e-38 0.0000000000000000e+00  6.7306076783400673e-39 -7.2175835784681936e-39 0.0000000000000000e+00  -4.2872567238955829e-40 4.5685322067792462e-40 0.0000000000000000e+00  -3.0581864395244695e-40 3.1773488736322580e-40 0.0000000000000000e+00  -8.4296636669987422e-42 5.1843569702232913e-42 0.0000000000000000e+00  3.9129631744905821e-40 -3.7120511656247120e-40 0.0000000000000000e+00  -8.9962358535612033e-40 8.2525652635522813e-40 0.0000000000000000e+00  3.3213246514544023e-39 -3.0433765949030619e-39 0.0000000000000000e+00  -1.9914627520404830e-39 1.8795610360648919e-39 0.0000000000000000e+00  -1.5338110297911093e-38 1.3179403183680249e-38 0.0000000000000000e+00  5.9423918828525443e-38 -5.0743790090255843e-38 0.0000000000000000e+00  -7.9910839055906211e-38 6.8034485487689415e-38 0.0000000000000000e+00  -1.4410139454081369e-37 1.1380351004557720e-37 0.0000000000000000e+00  9.1705213000424315e-37 -7.2805122462460397e-37 0.0000000000000000e+00  -1.5911788218208787e-36 1.2566723617936664e-36 0.0000000000000000e+00  -1.3715903400844695e-36 9.7784186742165488e-37 0.0000000000000000e+00  1.2684445350690061e-35 -9.3484634342499549e-36 0.0000000000000000e+00  -2.4437703108028891e-35 1.7815860808911737e-35 0.0000000000000000e+00  -1.7863224503484954e-35 1.1791870696618064e-35 0.0000000000000000e+00  1.8357914033117337e-34 -1.2485219848724343e-34 0.0000000000000000e+00  -2.9350627712359358e-34 1.9867659471631426e-34 0.0000000000000000e+00  -3.9982298916798812e-34 2.5009385767657031e-34 0.0000000000000000e+00  2.4795119172368972e-33 -1.5490310149605868e-33 0.0000000000000000e+00  -2.4445632943740595e-33 1.5250444175097346e-33 0.0000000000000000e+00  -8.9766630255283033e-33 5.1957243003965685e-33 0.0000000000000000e+00  2.8297673267671766e-32 -1.6234908677932735e-32 0.0000000000000000e+00  2.5945019465191039e-33 -8.1620334785093910e-34 0.0000000000000000e+00  -1.5359639177215454e-31 8.0985742999807980e-32 0.0000000000000000e+00  2.0294228267341022e-31 -1.0504270224823083e-31 0.0000000000000000e+00  5.1238200859874914e-31 -2.4692508540120999e-31 0.0000000000000000e+00  -1.5196981959463460e-30 7.1900339218774452e-31 0.0000000000000000e+00  -8.7684751559152501e-31 3.7748928030530393e-31 0.0000000000000000e+00  8.0908316010367733e-30 -3.4964415456494895e-30 0.0000000000000000e+00  -2.3977881514215514e-30 1.0524956179224181e-30 0.0000000000000000e+00  -3.5612863126218394e-29 1.3956200552453707e-29 0.0000000000000000e+00  2.9477007418357250e-29 -1.1062639395416004e-29 0.0000000000000000e+00  1.4460396809325258e-28 -5.1313732522881319e-29 0.0000000000000000e+00  -1.6392592992136041e-28 5.4164898904374994e-29 0.0000000000000000e+00  -6.0049348842171450e-28 1.9048544115921007e-28 0.0000000000000000e+00  6.3825050190768417e-28 -1.8648870794070968e-28 0.0000000000000000e+00  2.4946459430721961e-27 -6.9710989257860500e-28 0.0000000000000000e+00  -1.9100068865144320e-27 4.5199021762555746e-28 0.0000000000000000e+00  -9.6055273690172683e-27 2.2185847044243139e-27 0.0000000000000000e+00  2.5801667088441538e-27 -2.9898390002380844e-28 0.0000000000000000e+00  3.0149428795899170e-26 -5.5222532485442375e-27 0.0000000000000000e+00  1.4555562799173093e-26 -2.8203184005503503e-27 0.0000000000000000e+00  -8.5564152473064450e-26 1.2062553799388522e-26 0.0000000000000000e+00  -1.2967746400316155e-25 1.6282615081542145e-26 0.0000000000000000e+00  1.4396041128197828e-25 -1.7624804407811165e-26 0.0000000000000000e+00  8.4155692040148041e-25 -7.7294478810260956e-26 0.0000000000000000e+00  1.5339248575132462e-24 -1.0667051135516987e-25 0.0000000000000000e+00  1.8675150474037705e-24 -8.8773830741493781e-26 0.0000000000000000e+00  1.8227951810785915e-24 -4.2856326428849309e-26 0.0000000000000000e+00  1.8391635611542971e-24 2.8040127488827098e-27 0.0000000000000000e+00  1.9643735343931119e-24 5.0151955069089245e-26 0.0000000000000000e+00  1.8193596458217904e-24 8.5084654684968132e-26 0.0000000000000000e+00  1.1933861223569742e-24 7.8950617607345555e-26 0.0000000000000000e+00  3.5829732347614082e-25 3.0472543042583641e-26 0.0000000000000000e+00  -1.5395890075217245e-25 -1.6047145487568114e-26 0.0000000000000000e+00  -2.0687541068424561e-25 -2.5193530150170210e-26 0.0000000000000000e+00  -3.6838811124934684e-26 -4.4249570261665764e-27 0.0000000000000000e+00  5.8338654410659472e-26 1.0323186210523221e-26 0.0000000000000000e+00  3.5710029321404200e-26 6.8426409137005586e-27 0.0000000000000000e+00  -4.9174465684565381e-27 -1.0881304703809707e-27 0.0000000000000000e+00  -1.0357137483953852e-26 -2.4122804204291679e-27 0.0000000000000000e+00  -6.5204114396929580e-28 -1.5791527602665912e-28 0.0000000000000000e+00  2.6039046087089053e-27 7.0602188883801095e-28 0.0000000000000000e+00  3.5471192164535042e-28 1.0259557702316565e-28 0.0000000000000000e+00  -6.2061725351452922e-28 -1.9206436012483544e-28 0.0000000000000000e+00  -8.0181345522915771e-29 -2.6467914045942575e-29 0.0000000000000000e+00  1.4414834480027689e-28 5.0653729127184421e-29 0.0000000000000000e+00  5.3344749115489281e-30 2.0665486971744825e-30 0.0000000000000000e+00  -3.2128070354852273e-29 -1.2595126103208987e-29 0.0000000000000000e+00  2.9256985473935709e-30 1.1919258156333303e-30 0.0000000000000000e+00  6.0846916126834702e-30 2.6596089375718162e-30 0.0000000000000000e+00  -1.8145889749036347e-30 -8.1322775711121264e-31 0.0000000000000000e+00  -8.9116209903475732e-31 -4.2663913459868850e-31 0.0000000000000000e+00  5.8023778719016771e-31 2.8613613947569852e-31 0.0000000000000000e+00  3.0405085987746848e-32 1.7131619769410339e-32 0.0000000000000000e+00  -1.2687605033784180e-31 -6.7519260209905875e-32 0.0000000000000000e+00  2.8651004159073119e-32 1.5424079845165417e-32 0.0000000000000000e+00  1.8128056305570686e-32 1.0412043211157293e-32 0.0000000000000000e+00  -1.1601667563660184e-32 -6.7805220076854361e-33 0.0000000000000000e+00  1.7168996704951147e-34 6.6626136946688978e-35 0.0000000000000000e+00  2.0819110246862030e-33 1.3184938664988018e-33 0.0000000000000000e+00  -7.8762927371975357e-34 -5.0297390074209311e-34 0.0000000000000000e+00  -1.1011962680202296e-34 -7.7685570169202105e-35 0.0000000000000000e+00  1.8910639560474359e-34 1.2975073479936684e-34 0.0000000000000000e+00  -5.3205001707824708e-35 -3.6928620064921411e-35 0.0000000000000000e+00  -1.2285892201841342e-35 -9.1743038769524832e-36 0.0000000000000000e+00  1.3945439721786990e-35 1.0363698711556135e-35 0.0000000000000000e+00  -3.6410577079355731e-36 -2.7212397551285782e-36 0.0000000000000000e+00  -8.4865404584142852e-37 -6.8464186072761983e-37 0.0000000000000000e+00  9.7319980333672151e-37 7.7878871093457281e-37 0.0000000000000000e+00  -2.8305105447790272e-37 -2.2855679906265510e-37 0.0000000000000000e+00  -3.3496944212215634e-38 -2.9601741979101536e-38 0.0000000000000000e+00  6.0668217152731808e-38 5.2251085263876920e-38 0.0000000000000000e+00  -2.3268872828804366e-38 -2.0211971914005175e-38 0.0000000000000000e+00  9.4000834730680358e-40 7.1161017953207130e-40 0.0000000000000000e+00  3.2042685972982900e-39 2.9578334293369519e-39 0.0000000000000000e+00  -1.6921478397562567e-39 -1.5696648592925368e-39 0.0000000000000000e+00  3.7046207385009389e-40 3.4452071987703063e-40 0.0000000000000000e+00  1.6966002059271444e-40 1.7005356836480296e-40 0.0000000000000000e+00  3.4186354346996899e-40 3.5363415382095015e-40 0.0000000000000000e+00  -9.7191183832258257e-40 -1.0375201758565745e-39 0.0000000000000000e+00  1.9274755104826429e-39 2.1114062017419959e-39 0.0000000000000000e+00  -1.3055545882578266e-38 -1.4324384043197090e-38 0.0000000000000000e+00  9.5432232383131773e-38 1.0319937888767296e-37 0.0000000000000000e+00  -2.2728109137032487e-37 -2.4483347256058221e-37 0.0000000000000000e+00  2.6915498471772572e-37 3.0172217594939386e-37 0.0000000000000000e+00  -4.0015362954235338e-36 -4.7300265500818011e-36 0.0000000000000000e+00  1.2287126116647816e-35 1.5114929235421240e-35 0.0000000000000000e+00  -5.2217423456118670e-35 -6.6362256239343361e-35 0.0000000000000000e+00  1.1579573247811487e-34 1.5112390127097434e-34 0.0000000000000000e+00  -2.2755176842147771e-34 -3.1694948197471202e-34 0.0000000000000000e+00  1.2307507940237418e-33 1.6710921724894891e-33 0.0000000000000000e+00  -8.5101703803552324e-34 -1.1386875186683533e-33 0.0000000000000000e+00  4.8044533809461914e-33 6.5568488087824137e-33 0.0000000000000000e+00  4.0210309746775803e-32 6.0174358510975485e-32 0.0000000000000000e+00  -1.8607190444204974e-31 -2.7596005614632837e-31 0.0000000000000000e+00  -5.3232635002385720e-31 -8.4068659743661158e-31 0.0000000000000000e+00  1.0505944437058699e-30 1.6811725686244106e-30 0.0000000000000000e+00  -1.8500783479935355e-31 -2.7051749872848651e-31 0.0000000000000000e+00  -3.1311860885868819e-30 -5.4942274517622067e-30 0.0000000000000000e+00  9.2943134300099717e-30 1.6831978084638160e-29 0.0000000000000000e+00  1.3886336755491063e-29 2.6889502367877243e-29 0.0000000000000000e+00  -8.9792726152628561e-29 -1.7453640758914271e-28 0.0000000000000000e+00  2.9065577887422307e-29 5.6358526088600715e-29 0.0000000000000000e+00  9.7345137656348495e-29 2.0115322388354955e-28 0.0000000000000000e+00  3.3464242059727597e-29 7.3061040995676198e-29 0.0000000000000000e+00  2.9327973652632763e-28 6.6642951900486313e-28 0.0000000000000000e+00  1.2677993861212647e-28 3.1602439371710547e-28 0.0000000000000000e+00  -3.4246071415720367e-28 -8.0461255639816785e-28 0.0000000000000000e+00  -3.9358241011125565e-28 -1.0743883342944047e-27 0.0000000000000000e+00  3.6511105888574677e-28 9.6811541650508282e-28 0.0000000000000000e+00  6.5427163669387019e-28 1.8402965446638611e-27 0.0000000000000000e+00  3.6343643482083321e-28 1.1722737820304518e-27 0.0000000000000000e+00  1.1758556306524261e-28 5.0826843469181648e-28 0.0000000000000000e+00  -7.4516647127839362e-28 -2.5025918560589099e-27 0.0000000000000000e+00  -2.4825532506747410e-28 -8.2088053752680780e-28 0.0000000000000000e+00  -9.9429358317033345e-29 -3.3902329600990105e-28 0.0000000000000000e+00  -3.5866909382594762e-28 -1.5564958590841145e-27 0.0000000000000000e+00  -3.0948553103520181e-28 -1.4630986702606781e-27 0.0000000000000000e+00  -3.2392643023652160e-28 -1.9915392847608243e-27 0.0000000000000000e+00  -3.0172086971470057e-29 -5.1020481648304798e-28 0.0000000000000000e+00  2.7190529544053077e-28 1.6969531525399121e-27 0.0000000000000000e+00  1.0462063460806497e-29 -1.2631922666434757e-29 0.0000000000000000e+00  -2.1079029061751499e-28 -2.2730782915216771e-27 0.0000000000000000e+00  8.4543278745528745e-29 9.5523052979781311e-28 0.0000000000000000e+00  4.3575026372802051e-29 8.1855621019652023e-28 0.0000000000000000e+00  -4.0692435341133932e-29 -1.3737453606321223e-27 0.0000000000000000e+00  -5.1330562071460188e-30 -3.4237238638036988e-28 0.0000000000000000e+00  2.4556424622500284e-29 -1.4860704192409641e-27 0.0000000000000000e+00  -7.3183426963777382e-29 2.0074857770083605e-27 0.0000000000000000e+00  -1.2314974014853519e-28 1.8708462691244392e-27 0.0000000000000000e+00  1.0952202048640162e-28 -1.6274611998459640e-27 0.0000000000000000e+00  1.4045673304867280e-29 -2.6565461262646235e-28 0.0000000000000000e+00  2.4730184124783129e-28 -2.2260499066886925e-27 0.0000000000000000e+00  -2.0612611034057942e-28 1.4791581747232243e-27 0.0000000000000000e+00  -1.1509751000916347e-28 5.9681634912559981e-28 0.0000000000000000e+00  1.1016937827147199e-28 -7.9952235000015756e-28 0.0000000000000000e+00  2.4189955640693659e-29 -3.2010450108817100e-28 0.0000000000000000e+00  5.3887477307046000e-28 -2.6781843418145560e-27 0.0000000000000000e+00  7.1565409611671926e-28 -3.3373041532811277e-27 0.0000000000000000e+00  1.1172712087168350e-27 -4.5421584946700934e-27 0.0000000000000000e+00  3.5120380266508205e-28 -1.2376785441380987e-27 0.0000000000000000e+00  -3.2841483303469550e-28 1.2690552150143537e-27 0.0000000000000000e+00  -7.4679468830306293e-28 2.4464825587544781e-27 0.0000000000000000e+00  -8.7628054647448258e-28 2.6613316240742658e-27 0.0000000000000000e+00  -2.3923186425450427e-28 6.5529588936951724e-28 0.0000000000000000e+00  1.6111530160322858e-28 -4.6530192538927829e-28 0.0000000000000000e+00  1.7818403290893295e-28 -4.8814411430882604e-28 0.0000000000000000e+00  7.3438374709589761e-28 -1.8014891897458316e-27 0.0000000000000000e+00  3.0732374406693183e-28 -7.0794029011718089e-28 0.0000000000000000e+00  -2.5460131428375749e-28 5.7803616412870880e-28 0.0000000000000000e+00  -1.0937548794733245e-29 2.3290532039267790e-29 0.0000000000000000e+00  2.9251764815085641e-29 -6.4116473436423170e-29 0.0000000000000000e+00  7.0953471107255382e-29 -1.4345980995171865e-28 0.0000000000000000e+00  -1.4776103769822282e-29 2.9560574469859425e-29 0.0000000000000000e+00  -2.1704625983810146e-29 4.0572368100769564e-29 0.0000000000000000e+00  1.9380