<?xml version="1.0"?>
<VTKFile type="UnstructuredGrid"  version="0.1"  >
<UnstructuredGrid>
<Piece  NumberOfPoints="11902" NumberOfCells="23402">
<Points>
<DataArray  type="Float64"  NumberOfComponents="3"  format="ascii">-5 -5 0  5 -5 0  5 5 0  -5 5 0  1.124450224929148 0.0008352503063303816 0  -4.9 -5 0  -4.8 -5 0  -4.7 -5 0  -4.6 -5 0  -4.5 -5 0  -4.4 -5 0  -4.3 -5 0  -4.2 -5 0  -4.1 -5 0  -4 -5 0  -3.9 -5 0  -3.8 -5 0  -3.7 -5 0  -3.6 -5 0  -3.5 -5 0  -3.4 -5 0  -3.3 -5 0  -3.2 -5 0  -3.1 -5 0  -3 -5 0  -2.9 -5 0  -2.8 -5 0  -2.7 -5 0  -2.6 -5 0  -2.5 -5 0  -2.4 -5 0  -2.3 -5 0  -2.2 -5 0  -2.1 -5 0  -2 -5 0  -1.9 -5 0  -1.8 -5 0  -1.7 -5 0  -1.6 -5 0  -1.5 -5 0  -1.4 -5 0  -1.3 -5 0  -1.2 -5 0  -1.1 -5 0  -1 -5 0  -0.9000000000000004 -5 0  -0.7999999999999998 -5 0  -0.7000000000000002 -5 0  -0.5999999999999996 -5 0  -0.5 -5 0  -0.4000000000000004 -5 0  -0.2999999999999998 -5 0  -0.2000000000000002 -5 0  -0.09999999999999964 -5 0  0 -5 0  0.09999999999999964 -5 0  0.2000000000000002 -5 0  0.2999999999999998 -5 0  0.4000000000000004 -5 0  0.5 -5 0  0.5999999999999996 -5 0  0.7000000000000002 -5 0  0.7999999999999998 -5 0  0.9000000000000004 -5 0  1 -5 0  1.1 -5 0  1.2 -5 0  1.3 -5 0  1.4 -5 0  1.5 -5 0  1.6 -5 0  1.7 -5 0  1.8 -5 0  1.9 -5 0  2 -5 0  2.1 -5 0  2.2 -5 0  2.3 -5 0  2.4 -5 0  2.5 -5 0  2.6 -5 0  2.7 -5 0  2.8 -5 0  2.9 -5 0  3 -5 0  3.1 -5 0  3.199999999999999 -5 0  3.300000000000001 -5 0  3.4 -5 0  3.5 -5 0  3.6 -5 0  3.699999999999999 -5 0  3.800000000000001 -5 0  3.9 -5 0  4 -5 0  4.1 -5 0  4.199999999999999 -5 0  4.300000000000001 -5 0  4.4 -5 0  4.5 -5 0  4.6 -5 0  4.699999999999999 -5 0  4.800000000000001 -5 0  4.9 -5 0  5 -4.9 0  5 -4.8 0  5 -4.7 0  5 -4.6 0  5 -4.5 0  5 -4.4 0  5 -4.3 0  5 -4.2 0  5 -4.1 0  5 -4 0  5 -3.9 0  5 -3.8 0  5 -3.7 0  5 -3.6 0  5 -3.5 0  5 -3.4 0  5 -3.3 0  5 -3.2 0  5 -3.1 0  5 -3 0  5 -2.9 0  5 -2.8 0  5 -2.7 0  5 -2.6 0  5 -2.5 0  5 -2.4 0  5 -2.3 0  5 -2.2 0  5 -2.1 0  5 -2 0  5 -1.9 0  5 -1.8 0  5 -1.7 0  5 -1.6 0  5 -1.5 0  5 -1.4 0  5 -1.3 0  5 -1.2 0  5 -1.1 0  5 -1 0  5 -0.9000000000000004 0  5 -0.7999999999999998 0  5 -0.7000000000000002 0  5 -0.5999999999999996 0  5 -0.5 0  5 -0.4000000000000004 0  5 -0.2999999999999998 0  5 -0.2000000000000002 0  5 -0.09999999999999964 0  5 0 0  5 0.09999999999999964 0  5 0.2000000000000002 0  5 0.2999999999999998 0  5 0.4000000000000004 0  5 0.5 0  5 0.5999999999999996 0  5 0.7000000000000002 0  5 0.7999999999999998 0  5 0.9000000000000004 0  5 1 0  5 1.1 0  5 1.2 0  5 1.3 0  5 1.4 0  5 1.5 0  5 1.6 0  5 1.7 0  5 1.8 0  5 1.9 0  5 2 0  5 2.1 0  5 2.2 0  5 2.3 0  5 2.4 0  5 2.5 0  5 2.6 0  5 2.7 0  5 2.8 0  5 2.9 0  5 3 0  5 3.1 0  5 3.199999999999999 0  5 3.300000000000001 0  5 3.4 0  5 3.5 0  5 3.6 0  5 3.699999999999999 0  5 3.800000000000001 0  5 3.9 0  5 4 0  5 4.1 0  5 4.199999999999999 0  5 4.300000000000001 0  5 4.4 0  5 4.5 0  5 4.6 0  5 4.699999999999999 0  5 4.800000000000001 0  5 4.9 0  4.9 5 0  4.8 5 0  4.7 5 0  4.6 5 0  4.5 5 0  4.4 5 0  4.3 5 0  4.2 5 0  4.1 5 0  4 5 0  3.9 5 0  3.8 5 0  3.7 5 0  3.6 5 0  3.5 5 0  3.4 5 0  3.3 5 0  3.2 5 0  3.1 5 0  3 5 0  2.9 5 0  2.8 5 0  2.7 5 0  2.6 5 0  2.5 5 0  2.4 5 0  2.3 5 0  2.2 5 0  2.1 5 0  2 5 0  1.9 5 0  1.8 5 0  1.7 5 0  1.6 5 0  1.5 5 0  1.4 5 0  1.3 5 0  1.2 5 0  1.1 5 0  1 5 0  0.9000000000000004 5 0  0.7999999999999998 5 0  0.7000000000000002 5 0  0.5999999999999996 5 0  0.5 5 0  0.4000000000000004 5 0  0.2999999999999998 5 0  0.2000000000000002 5 0  0.09999999999999964 5 0  0 5 0  -0.09999999999999964 5 0  -0.2000000000000002 5 0  -0.2999999999999998 5 0  -0.4000000000000004 5 0  -0.5 5 0  -0.5999999999999996 5 0  -0.7000000000000002 5 0  -0.7999999999999998 5 0  -0.9000000000000004 5 0  -1 5 0  -1.1 5 0  -1.2 5 0  -1.3 5 0  -1.4 5 0  -1.5 5 0  -1.6 5 0  -1.7 5 0  -1.8 5 0  -1.9 5 0  -2 5 0  -2.1 5 0  -2.2 5 0  -2.3 5 0  -2.4 5 0  -2.5 5 0  -2.6 5 0  -2.7 5 0  -2.8 5 0  -2.9 5 0  -3 5 0  -3.1 5 0  -3.199999999999999 5 0  -3.300000000000001 5 0  -3.4 5 0  -3.5 5 0  -3.6 5 0  -3.699999999999999 5 0  -3.800000000000001 5 0  -3.9 5 0  -4 5 0  -4.1 5 0  -4.199999999999999 5 0  -4.300000000000001 5 0  -4.4 5 0  -4.5 5 0  -4.6 5 0  -4.699999999999999 5 0  -4.800000000000001 5 0  -4.9 5 0  -5 4.9 0  -5 4.8 0  -5 4.7 0  -5 4.6 0  -5 4.5 0  -5 4.4 0  -5 4.3 0  -5 4.2 0  -5 4.1 0  -5 4 0  -5 3.9 0  -5 3.8 0  -5 3.7 0  -5 3.6 0  -5 3.5 0  -5 3.4 0  -5 3.3 0  -5 3.2 0  -5 3.1 0  -5 3 0  -5 2.9 0  -5 2.8 0  -5 2.7 0  -5 2.6 0  -5 2.5 0  -5 2.4 0  -5 2.3 0  -5 2.2 0  -5 2.1 0  -5 2 0  -5 1.9 0  -5 1.8 0  -5 1.7 0  -5 1.6 0  -5 1.5 0  -5 1.4 0  -5 1.3 0  -5 1.2 0  -5 1.1 0  -5 1 0  -5 0.9000000000000004 0  -5 0.7999999999999998 0  -5 0.7000000000000002 0  -5 0.5999999999999996 0  -5 0.5 0  -5 0.4000000000000004 0  -5 0.2999999999999998 0  -5 0.2000000000000002 0  -5 0.09999999999999964 0  -5 0 0  -5 -0.09999999999999964 0  -5 -0.2000000000000002 0  -5 -0.2999999999999998 0  -5 -0.4000000000000004 0  -5 -0.5 0  -5 -0.5999999999999996 0  -5 -0.7000000000000002 0  -5 -0.7999999999999998 0  -5 -0.9000000000000004 0  -5 -1 0  -5 -1.1 0  -5 -1.2 0  -5 -1.3 0  -5 -1.4 0  -5 -1.5 0  -5 -1.6 0  -5 -1.7 0  -5 -1.8 0  -5 -1.9 0  -5 -2 0  -5 -2.1 0  -5 -2.2 0  -5 -2.3 0  -5 -2.4 0  -5 -2.5 0  -5 -2.6 0  -5 -2.7 0  -5 -2.8 0  -5 -2.9 0  -5 -3 0  -5 -3.1 0  -5 -3.199999999999999 0  -5 -3.300000000000001 0  -5 -3.4 0  -5 -3.5 0  -5 -3.6 0  -5 -3.699999999999999 0  -5 -3.800000000000001 0  -5 -3.9 0  -5 -4 0  -5 -4.1 0  -5 -4.199999999999999 0  -5 -4.300000000000001 0  -5 -4.4 0  -5 -4.5 0  -5 -4.6 0  -5 -4.699999999999999 0  -5 -4.800000000000001 0  -5 -4.9 0  1.119005027818115 0.1003461292165403 0  1.10198659299712 0.1995742637475328 0  1.073278713668658 0.2973109590058012 0  1.035384471986182 0.3905732337313186 0  0.9867211492484737 0.4815395681958771 0  0.9288080676303963 0.5672083995894405 0  0.8609586950545807 0.6470250008268545 0  0.7839592179306963 0.7200855732877139 0  0.7000444703480166 0.7863602978554127 0  0.6091052142860428 0.8452004115077123 0  0.5115721352718184 0.8952716490318017 0  0.4090424563663988 0.9366085692452651 0  0.3037342053244965 0.969097442106133 0  0.1944301378885929 0.9912361038811042 0  0.08435792739925621 1.004174934097837 0  -0.02698307666156108 1.00676881630111 0  -0.1380912531043566 0.9986629809955235 0  -0.2482184317621777 0.981565889953763 0  -0.3558964973353981 0.9547114017529575 0  -0.4597225427419311 0.9179686372263852 0  -0.5587457279475848 0.8725885580613736 0  -0.6525905447238924 0.8180094796500451 0  -0.7399416525418486 0.755559936977214 0  -0.8201642202637863 0.6857281376611954 0  -0.8926084581158361 0.6081381171378401 0  -0.9556990928171448 0.5250261256306222 0  -1.009975494907539 0.4372242722180106 0  -1.053614741951777 0.3444584459269499 0  -1.086494283810432 0.2488855082573287 0  -1.108833044887313 0.150870468489843 0  -1.12019576681214 0.05083414524265741 0  -1.120222886638369 -0.04978228276126051 0  -1.108881612178328 -0.1496445113348055 0  -1.087701969521995 -0.2476442566843238 0  -1.053529076623817 -0.3439433949186897 0  -1.010256024667504 -0.436101525422911 0  -0.9562672928703929 -0.5241181444375221 0  -0.8933428331710352 -0.6069301945195776 0  -0.8208920149940673 -0.68380576087884 0  -0.7402060126622703 -0.7533140853955907 0  -0.6522408291498694 -0.8150904698145738 0  -0.5590948827461384 -0.8698764235288837 0  -0.4583855430149592 -0.9155044419653797 0  -0.3544427054232467 -0.9528421876271252 0  -0.2465940548079301 -0.9801730923842801 0  -0.1369539995526303 -0.9976917761393046 0  -0.02625895350752365 -1.006280636479893 0  0.08476435050321504 -1.003127612153641 0  0.1957623889993081 -0.9899149644035898 0  0.3043958285536821 -0.9677932323742532 0  0.4110343467249067 -0.9354423230790355 0  0.5123799669833367 -0.8943221060291952 0  0.6095670837056237 -0.8444423849192259 0  0.7002891739707705 -0.7868172926573174 0  0.7841398764560936 -0.7204576750588969 0  0.86061739641295 -0.6465468005816232 0  0.9280397110085239 -0.5664975550679018 0  0.9868643091721276 -0.4810915884374607 0  1.036419154912257 -0.3906665727024405 0  1.074271005661662 -0.2966532979761083 0  1.102078773629874 -0.1990408498622524 0  1.119032117186724 -0.1000609613210335 0  -2.4491450536202 4.919191122376701 0  -2.449071227800974 -4.911666913900108 0  4.911618658417162 2.448736678166833 0  4.919634375727052 -2.450121889147008 0  2.44690479854771 -4.897103350317214 0  2.441314298388914 4.90082125307045 0  -4.91163584193344 -2.448753851695322 0  -4.911636066902056 2.448757615207606 0  -1.749119154421323 4.912554016501994 0  -1.744879653768264 -4.915933474191127 0  4.922111345343478 1.744831713971586 0  4.910854345350852 -1.74870432196731 0  -4.911129509199592 -1.748425586792087 0  -4.911939842831126 1.748161372894651 0  1.746429385884906 4.906525621223701 0  1.747919437221896 -4.894872493803474 0  -1.149307035153262 4.910663046734873 0  -1.13011613384761 -4.918420314652778 0  -4.911270633315456 -1.14860194566754 0  -4.911095858339528 1.14840138351821 0  1.144271204760996 -4.914683143983826 0  1.149311214036517 4.910655188903718 0  4.911428129873592 1.146882664632941 0  4.922005027871525 -1.152586248350977 0  -0.5469115614005565 -4.912012545860762 0  -0.5466701524320129 4.920510923313835 0  -4.910343908693647 -0.5490833329443424 0  -4.910369230150534 0.5476368355568224 0  4.909703859929134 -0.5494088540921302 0  4.921054405893126 0.5461150093164955 0  0.5427167733695075 -4.899185434376369 0  0.5514029261035504 4.917405396853067 0  -4.912677992909447 -3.048967461900202 0  4.919196828878562 3.046940315300911 0  4.912194714896797 -3.048954145961615 0  -4.91352210036509 3.046053613142875 0  3.05580847679337 -4.918158049424616 0  -3.049177132602674 -4.912147065599616 0  3.052732942253188 4.914210881081249 0  -3.048619673358819 4.913030393685104 0  -4.909579552523901 -0.04994514916882529 0  0.04513486784102392 -4.913978183083879 0  0.04958416212609493 4.92085098484718 0  4.916464488372056 -0.05132487399333238 0  3.546021157037502 -4.919569343428398 0  -3.549337023078452 4
[...]
<PointData  Vectors="f_1262"> 
<DataArray  type="Float64"  Name="f_1262"  NumberOfComponents="3" format="ascii">-1.5852178625975551e-40 -1.6360547017365669e-40 0.0000000000000000e+00  2.0006953323294000e-40 -2.0138296617818145e-40 0.0000000000000000e+00  -2.4287334474768259e-40 -2.4477089236366704e-40 0.0000000000000000e+00  -3.0315935191060471e-40 3.1643411907997390e-40 0.0000000000000000e+00  1.4152166720499984e+01 -5.4007574045755902e-01 0.0000000000000000e+00  3.5506060319645957e-40 3.6437552800767640e-40 0.0000000000000000e+00  8.0744555246917873e-40 8.9368889898983115e-40 0.0000000000000000e+00  -1.7917522103915443e-39 -2.1021291693197197e-39 0.0000000000000000e+00  1.8426696074431596e-38 2.0629244905173619e-38 0.0000000000000000e+00  -5.9314925104297350e-38 -6.4633221992719424e-38 0.0000000000000000e+00  2.2791791546338305e-37 2.4645089076678422e-37 0.0000000000000000e+00  -8.2620771697319432e-37 -9.1209486828167298e-37 0.0000000000000000e+00  4.8777657166080299e-36 5.8990112594035137e-36 0.0000000000000000e+00  -2.9840695148782482e-35 -3.8047524522420645e-35 0.0000000000000000e+00  1.2028633837824192e-34 1.5611652015084124e-34 0.0000000000000000e+00  -2.5521676961424049e-34 -3.4447208606123763e-34 0.0000000000000000e+00  4.9987752773226397e-34 6.9989473067716134e-34 0.0000000000000000e+00  1.7895732853563451e-33 2.5599454035716975e-33 0.0000000000000000e+00  -8.1433945530797206e-33 -1.1763040068382570e-32 0.0000000000000000e+00  2.3801848161464962e-32 3.5151828250542653e-32 0.0000000000000000e+00  -1.3366865927973921e-31 -2.0271111209807335e-31 0.0000000000000000e+00  3.5092933839726974e-31 5.3609865366640324e-31 0.0000000000000000e+00  1.8776033784645351e-31 3.3773040215791811e-31 0.0000000000000000e+00  -1.6005997791955612e-30 -2.7613532777815327e-30 0.0000000000000000e+00  -8.5085337042914126e-31 -1.3491019038672134e-30 0.0000000000000000e+00  -2.2554500775466770e-30 -3.6269856800763281e-30 0.0000000000000000e+00  5.4074092572865299e-30 9.5133531602258876e-30 0.0000000000000000e+00  -1.3422380226914801e-29 -2.2423153623113240e-29 0.0000000000000000e+00  4.4934225446773515e-29 8.0375336016297413e-29 0.0000000000000000e+00  2.6770779206477251e-29 5.1221204533632961e-29 0.0000000000000000e+00  -2.2238559384321907e-28 -4.3597912201916838e-28 0.0000000000000000e+00  -7.4236046663022206e-29 -1.5554033449418999e-28 0.0000000000000000e+00  -1.2487221458646157e-28 -2.6413174729312019e-28 0.0000000000000000e+00  2.1751431921919553e-28 4.6274830365272007e-28 0.0000000000000000e+00  6.5593766749779284e-28 1.4941047814471882e-27 0.0000000000000000e+00  -7.3004900251954460e-29 -1.1821745765236112e-28 0.0000000000000000e+00  1.3756314313154776e-28 4.0339713350240796e-28 0.0000000000000000e+00  -1.1161064282253799e-28 -2.6858746224306366e-28 0.0000000000000000e+00  -4.9005760190724296e-28 -1.4353554160757454e-27 0.0000000000000000e+00  -4.4324346637566361e-28 -1.4405206649451034e-27 0.0000000000000000e+00  -3.0510770860594681e-29 -1.8057073562936915e-28 0.0000000000000000e+00  4.7864299595899921e-28 1.7271920792448414e-27 0.0000000000000000e+00  2.5882076752643393e-28 1.0532741261372294e-27 0.0000000000000000e+00  -5.3519315603462706e-29 -1.9450807193801345e-28 0.0000000000000000e+00  8.5247351155839032e-29 4.3017334661836425e-28 0.0000000000000000e+00  2.9541763121252378e-28 1.1293034989629134e-27 0.0000000000000000e+00  3.9822510549137873e-28 1.8947304136194186e-27 0.0000000000000000e+00  -2.0589523742772182e-28 -1.0773005642791444e-27 0.0000000000000000e+00  8.3879454758051374e-28 6.1048449704807295e-27 0.0000000000000000e+00  -1.4105949328361781e-29 -4.1769047078492150e-29 0.0000000000000000e+00  -4.5457142359053180e-28 -5.3034465607324588e-27 0.0000000000000000e+00  -1.2193012791609945e-28 -3.1254357690111989e-27 0.0000000000000000e+00  -1.8476757207868395e-28 -4.4362540291479674e-27 0.0000000000000000e+00  -3.6362538728917614e-28 -1.0996709637742280e-26 0.0000000000000000e+00  -1.8094541257888142e-28 -1.2603146085819745e-26 0.0000000000000000e+00  1.3755755497660856e-29 -2.1921881571495065e-27 0.0000000000000000e+00  1.6988090698008639e-28 -6.9173487683372977e-27 0.0000000000000000e+00  2.0427845181779311e-28 -2.5374004652756776e-27 0.0000000000000000e+00  4.2635736138967292e-28 -4.4987243095094735e-27 0.0000000000000000e+00  -2.4107226010678890e-28 1.9646268411563291e-27 0.0000000000000000e+00  7.5285479494945538e-28 -6.0693870397317288e-27 0.0000000000000000e+00  8.3622984239546079e-28 -5.5010606510959102e-27 0.0000000000000000e+00  -1.7552374358220987e-28 1.0808273985522984e-27 0.0000000000000000e+00  -1.6413923711346797e-27 8.0637946346409734e-27 0.0000000000000000e+00  -7.2632482829122566e-28 3.1989709486035578e-27 0.0000000000000000e+00  -4.0238413719907902e-28 1.8996734225873611e-27 0.0000000000000000e+00  -1.1917720137874373e-27 4.6096809882780426e-27 0.0000000000000000e+00  -7.0486283480673548e-28 2.4337526167252770e-27 0.0000000000000000e+00  8.2480702188009342e-28 -2.7144586977072699e-27 0.0000000000000000e+00  4.1458498133457314e-28 -1.2765479504271406e-27 0.0000000000000000e+00  8.6001650936125829e-29 -2.8274688741767956e-28 0.0000000000000000e+00  3.3987822924508631e-28 -9.8245576141236992e-28 0.0000000000000000e+00  3.0002948462784819e-28 -7.6769731872950141e-28 0.0000000000000000e+00  -2.5566587630071252e-28 6.3658669419801791e-28 0.0000000000000000e+00  -2.0535784374676134e-28 4.7074907270809532e-28 0.0000000000000000e+00  -1.4838185478568112e-28 3.2475235572324303e-28 0.0000000000000000e+00  1.9401756595325691e-29 -4.6637081915096292e-29 0.0000000000000000e+00  1.0623242882378778e-28 -2.2079962838419968e-28 0.0000000000000000e+00  1.5060706942708787e-28 -2.8992643929512939e-28 0.0000000000000000e+00  -5.3326898676936238e-30 1.5023027040738539e-29 0.0000000000000000e+00  -1.0392749089272134e-28 1.8831766975380003e-28 0.0000000000000000e+00  1.6977478123907988e-29 -3.1121874143883267e-29 0.0000000000000000e+00  5.6923790371205062e-30 -9.3197536301241592e-30 0.0000000000000000e+00  -1.4646633888101814e-29 2.5390336503791725e-29 0.0000000000000000e+00  -1.0673134780701133e-30 1.7465350773712471e-30 0.0000000000000000e+00  1.6373969616795754e-30 -2.7077618344348055e-30 0.0000000000000000e+00  -8.4873099980477545e-31 1.3786081361813458e-30 0.0000000000000000e+00  1.0633600691565780e-31 -1.7010280986874959e-31 0.0000000000000000e+00  -1.2846014249233600e-32 1.9504833793482845e-32 0.0000000000000000e+00  -5.0235963284320425e-34 8.7662477044744652e-34 0.0000000000000000e+00  6.8864817230174290e-33 -1.0037816251055777e-32 0.0000000000000000e+00  3.7984556636535390e-34 -4.6613560912406182e-34 0.0000000000000000e+00  -4.5295913117470306e-34 6.2048452016763400e-34 0.0000000000000000e+00  5.0447207626683428e-35 -7.2676386225225902e-35 0.0000000000000000e+00  -1.9984673015208312e-35 2.6163256672032272e-35 0.0000000000000000e+00  4.6537586878094923e-36 -5.8596261663716953e-36 0.0000000000000000e+00  -1.5632952997755673e-36 1.9135368915439276e-36 0.0000000000000000e+00  5.0764450025208893e-37 -5.9824281433923713e-37 0.0000000000000000e+00  -2.5315577923747548e-37 2.9380635363207892e-37 0.0000000000000000e+00  8.5482301846271769e-38 -9.7996911595537260e-38 0.0000000000000000e+00  -1.7559461518817686e-38 1.9623900261684491e-38 0.0000000000000000e+00  7.1195991875525500e-39 -7.7812870013161554e-39 0.0000000000000000e+00  -4.3119245668978783e-40 4.8579535637239609e-40 0.0000000000000000e+00  -3.4239816092013463e-40 3.4903100587804354e-40 0.0000000000000000e+00  -1.2465089701786384e-41 6.6624055370399594e-42 0.0000000000000000e+00  4.0150144522739777e-40 -3.9596986789313893e-40 0.0000000000000000e+00  -9.2981891074399761e-40 8.7928801338332316e-40 0.0000000000000000e+00  3.5660810160992059e-39 -3.2832398247005790e-39 0.0000000000000000e+00  -2.3675836334323836e-39 2.1110738717321681e-39 0.0000000000000000e+00  -1.5724160637314716e-38 1.3883895739366921e-38 0.0000000000000000e+00  6.2807708219620858e-38 -5.4059286852490761e-38 0.0000000000000000e+00  -8.7272407657259146e-38 7.3394149756350059e-38 0.0000000000000000e+00  -1.4380305840947436e-37 1.1750395235903439e-37 0.0000000000000000e+00  9.5931384392784589e-37 -7.6692811932245758e-37 0.0000000000000000e+00  -1.7019930369119022e-36 1.3356722700520530e-36 0.0000000000000000e+00  -1.3400649713648986e-36 9.8685988063409027e-37 0.0000000000000000e+00  1.3228956394085486e-35 -9.7649249825528265e-36 0.0000000000000000e+00  -2.5927550915416113e-35 1.8750135530317911e-35 0.0000000000000000e+00  -1.7653308884576334e-35 1.1797560061070325e-35 0.0000000000000000e+00  1.9156057685404494e-34 -1.2940428751232205e-34 0.0000000000000000e+00  -3.1095632664493529e-34 2.0805606969498857e-34 0.0000000000000000e+00  -4.0817152977990838e-34 2.5230588331251109e-34 0.0000000000000000e+00  2.5929689753762031e-33 -1.5946526042940815e-33 0.0000000000000000e+00  -2.6059876658081606e-33 1.6024661942042161e-33 0.0000000000000000e+00  -9.2909708302877410e-33 5.2394826489422187e-33 0.0000000000000000e+00  2.9667347011655353e-32 -1.6648047604450887e-32 0.0000000000000000e+00  2.0874417470816230e-33 -2.0324969065154947e-34 0.0000000000000000e+00  -1.5978875010336540e-31 8.1362632284947581e-32 0.0000000000000000e+00  2.1405829377407293e-31 -1.0844847139575302e-31 0.0000000000000000e+00  5.2777277250173088e-31 -2.4030067802069832e-31 0.0000000000000000e+00  -1.5836710272561140e-30 7.2214229182702298e-31 0.0000000000000000e+00  -8.8060479131501223e-31 3.3052753070411539e-31 0.0000000000000000e+00  8.3580027870174656e-30 -3.4272002109091910e-30 0.0000000000000000e+00  -2.5658002831403061e-30 1.2414735583750847e-30 0.0000000000000000e+00  -3.6515267471840933e-29 1.3308145893720571e-29 0.0000000000000000e+00  3.0392523605068288e-29 -1.1583460019096258e-29 0.0000000000000000e+00  1.4724305930288157e-28 -4.7459386090451491e-29 0.0000000000000000e+00  -1.6671032246395142e-28 5.5400735307588906e-29 0.0000000000000000e+00  -6.0743096937508694e-28 1.7122748788772098e-28 0.0000000000000000e+00  6.4184034695527947e-28 -1.9519426178823049e-28 0.0000000000000000e+00  2.5109579434837254e-27 -6.1519270478513067e-28 0.0000000000000000e+00  -1.9022745166484585e-27 5.1339198806742262e-28 0.0000000000000000e+00  -9.6263000782501847e-27 1.9802056921399192e-27 0.0000000000000000e+00  2.4680286614401485e-27 -6.4170410787173799e-28 0.0000000000000000e+00  2.9992236987708173e-26 -5.1430885855511741e-27 0.0000000000000000e+00  1.4543922813845434e-26 -1.7531694383510274e-27 0.0000000000000000e+00  -8.5366027850402235e-26 1.2086191234963663e-26 0.0000000000000000e+00  -1.2934694774599847e-25 1.5157265344410406e-26 0.0000000000000000e+00  1.4591044962571246e-25 -1.3861403506399089e-26 0.0000000000000000e+00  8.5007501905412054e-25 -5.6429776558538402e-26 0.0000000000000000e+00  1.5519792523488575e-24 -6.5758223626988666e-26 0.0000000000000000e+00  1.8926497367304538e-24 -4.1393951647602326e-26 0.0000000000000000e+00  1.8501413440241833e-24 -1.3892130569031515e-26 0.0000000000000000e+00  1.8706987334133672e-24 -1.4881069494413784e-27 0.0000000000000000e+00  2.0031676138879006e-24 1.7781542962874647e-26 0.0000000000000000e+00  1.8575236143447118e-24 4.6863303775316983e-26 0.0000000000000000e+00  1.2161205655640215e-24 5.4966256869276772e-26 0.0000000000000000e+00  3.5970996755357585e-25 2.5593911941222111e-26 0.0000000000000000e+00  -1.6382477717355337e-25 -1.1730195568260002e-26 0.0000000000000000e+00  -2.1490031054660915e-25 -2.2179130849301216e-26 0.0000000000000000e+00  -3.8328800008617583e-26 -5.5174297500211320e-27 0.0000000000000000e+00  5.9870291606691907e-26 8.2337888621553720e-27 0.0000000000000000e+00  3.6619088389986891e-26 6.1358645953229901e-27 0.0000000000000000e+00  -5.1174625775310049e-27 -8.4230927894117519e-28 0.0000000000000000e+00  -1.0714862619873198e-26 -2.2218210849257577e-27 0.0000000000000000e+00  -7.2724721794440547e-28 -1.9562958045697771e-28 0.0000000000000000e+00  2.6709347184980729e-27 6.5569118225095731e-28 0.0000000000000000e+00  3.8238678394803100e-28 1.0961110464679932e-28 0.0000000000000000e+00  -6.3308340707978611e-28 -1.8133872582301525e-28 0.0000000000000000e+00  -8.6722247386657764e-29 -2.8771167896646569e-29 0.0000000000000000e+00  1.4705687773370344e-28 4.8936982464745343e-29 0.0000000000000000e+00  6.5030312023393910e-30 2.9351670791499611e-30 0.0000000000000000e+00  -3.2928689661816869e-29 -1.2451329928222810e-29 0.0000000000000000e+00  2.8179123974371860e-30 9.7134142897415186e-31 0.0000000000000000e+00  6.2778235406159637e-30 2.6993257523373034e-30 0.0000000000000000e+00  -1.8436013346109656e-30 -7.7446209983908321e-31 0.0000000000000000e+00  -9.2664603228016523e-31 -4.4628798515976429e-31 0.0000000000000000e+00  5.9773872793237941e-31 2.8458610131676837e-31 0.0000000000000000e+00  3.2798712637172565e-32 2.1789906142503456e-32 0.0000000000000000e+00  -1.3181668565494707e-31 -6.8785225526222269e-32 0.0000000000000000e+00  2.9739721583196858e-32 1.4931288489762600e-32 0.0000000000000000e+00  1.8927051988044948e-32 1.0895979335941557e-32 0.0000000000000000e+00  -1.2133323672016989e-32 -6.8922802875177446e-33 0.0000000000000000e+00  1.8412822502141737e-34 1.3145293348450578e-35 0.0000000000000000e+00  2.1845636106535521e-33 1.3686621741722910e-33 0.0000000000000000e+00  -8.2930795429662942e-34 -5.1436592572177979e-34 0.0000000000000000e+00  -1.1558344355512633e-34 -8.3695596068634030e-35 0.0000000000000000e+00  1.9958875062841321e-34 1.3513445688726736e-34 0.0000000000000000e+00  -5.6230701324104087e-35 -3.8200354934218673e-35 0.0000000000000000e+00  -1.3052190798150236e-35 -9.7209176066125641e-36 0.0000000000000000e+00  1.4796348997743230e-35 1.0871532035544791e-35 0.0000000000000000e+00  -3.8532305432603481e-36 -2.8477867088490580e-36 0.0000000000000000e+00  -9.1282864118893389e-37 -7.2633462006656233e-37 0.0000000000000000e+00  1.0381873838431079e-36 8.2326437795025176e-37 0.0000000000000000e+00  -3.0009418712217674e-37 -2.4187314297453688e-37 0.0000000000000000e+00  -3.7167936664347994e-38 -3.1525556964274135e-38 0.0000000000000000e+00  6.5218509236045601e-38 5.5644771425091508e-38 0.0000000000000000e+00  -2.4805445499295948e-38 -2.1573165476967580e-38 0.0000000000000000e+00  8.7702695135934271e-40 7.6624401453696309e-40 0.0000000000000000e+00  3.4876973198011133e-39 3.1678565770200351e-39 0.0000000000000000e+00  -1.8195587125510019e-39 -1.6860075323638928e-39 0.0000000000000000e+00  3.9207039420760247e-40 3.7113574262812411e-40 0.0000000000000000e+00  1.8888621730023707e-40 1.8268569424026951e-40 0.0000000000000000e+00  3.6085004996461423e-40 3.8308862723774506e-40 0.0000000000000000e+00  -1.0570716619426843e-39 -1.1187535243137215e-39 0.0000000000000000e+00  2.0796133502163553e-39 2.2657651536915179e-39 0.0000000000000000e+00  -1.4098231614553876e-38 -1.5320324445096383e-38 0.0000000000000000e+00  1.0089307527468428e-37 1.1054538738037828e-37 0.0000000000000000e+00  -2.3298129213774422e-37 -2.5993479106870062e-37 0.0000000000000000e+00  2.6956551902773146e-37 3.1367705427560200e-37 0.0000000000000000e+00  -4.2036379955690107e-36 -5.0287134913404182e-36 0.0000000000000000e+00  1.3345943624048258e-35 1.6164478684164312e-35 0.0000000000000000e+00  -5.8042220187386949e-35 -7.1618680127025929e-35 0.0000000000000000e+00  1.2914114895530639e-34 1.6534682385901219e-34 0.0000000000000000e+00  -2.6773912151933423e-34 -3.6070154345991976e-34 0.0000000000000000e+00  1.3842981705123117e-33 1.8650084373482236e-33 0.0000000000000000e+00  -1.0596181035892762e-33 -1.4239048899408985e-33 0.0000000000000000e+00  5.6507716567402731e-33 7.4513600957026059e-33 0.0000000000000000e+00  4.2701581021214521e-32 6.5680385247407238e-32 0.0000000000000000e+00  -2.0160957142673167e-31 -3.0396467296414711e-31 0.0000000000000000e+00  -5.5446295110665996e-31 -9.0506497455609824e-31 0.0000000000000000e+00  1.0628707371647530e-30 1.7724824199541459e-30 0.0000000000000000e+00  -1.0858773984584831e-31 -1.7124239167193633e-31 0.0000000000000000e+00  -3.2853237140907482e-30 -5.6414308927512865e-30 0.0000000000000000e+00  9.7204265676769907e-30 1.6417533398352566e-29 0.0000000000000000e+00  1.4739867446934477e-29 2.7479036067606434e-29 0.0000000000000000e+00  -9.6367563992495238e-29 -1.7877348968872624e-28 0.0000000000000000e+00  3.1253959428275489e-29 5.9348714281501549e-29 0.0000000000000000e+00  1.0014051804100435e-28 2.0948067209847243e-28 0.0000000000000000e+00  3.8766446681377458e-29 7.4102900504621235e-29 0.0000000000000000e+00  3.3413357343071218e-28 6.9335475708284912e-28 0.0000000000000000e+00  1.4252684789669314e-28 3.3352951075673918e-28 0.0000000000000000e+00  -4.0539000571715885e-28 -8.7078790736901113e-28 0.0000000000000000e+00  -4.0197410162690843e-28 -1.0615694706599077e-27 0.0000000000000000e+00  4.0414631076873903e-28 9.9002428707596420e-28 0.0000000000000000e+00  7.3627722535582769e-28 1.9104220950104449e-27 0.0000000000000000e+00  3.8596869052092086e-28 1.1805369447881760e-27 0.0000000000000000e+00  8.2614420970848800e-29 4.6176886519829115e-28 0.0000000000000000e+00  -8.4165655954059269e-28 -2.5985410261498076e-27 0.0000000000000000e+00  -3.0673558865803396e-28 -8.9832916089551609e-28 0.0000000000000000e+00  -1.3969289376532146e-28 -4.0633699161658617e-28 0.0000000000000000e+00  -4.1165836231904615e-28 -1.6465444714459681e-27 0.0000000000000000e+00  -3.6334807775750369e-28 -1.5732435662779418e-27 0.0000000000000000e+00  -3.2739567459175098e-28 -1.9888327910651625e-27 0.0000000000000000e+00  3.6385371054276353e-29 -3.3188686361662134e-28 0.0000000000000000e+00  3.7802344365114216e-28 2.0600620351672413e-27 0.0000000000000000e+00  4.7657017475743725e-29 1.4677349642598930e-28 0.0000000000000000e+00  -2.6326582158817978e-28 -2.4761687750659604e-27 0.0000000000000000e+00  1.4765100699866171e-28 1.2705032246793163e-27 0.0000000000000000e+00  8.7379698924208964e-29 1.1289567582158413e-27 0.0000000000000000e+00  -6.3593410860161690e-29 -1.3910315174895293e-27 0.0000000000000000e+00  -8.6355810787313476e-30 -2.1160322821847195e-28 0.0000000000000000e+00  -1.2816946191211866e-29 -1.4780509336015201e-27 0.0000000000000000e+00  -4.8349770856184305e-29 2.3795544132684003e-27 0.0000000000000000e+00  -1.2139289919790886e-28 2.2246630557007677e-27 0.0000000000000000e+00  5.7520256034925951e-29 -1.6665745082390137e-27 0.0000000000000000e+00  -2.8537091421574238e-29 -1.7717591476800606e-28 0.0000000000000000e+00  2.3263202078989460e-28 -2.3442040198197724e-27 0.0000000000000000e+00  -3.0126392925558574e-28 1.7511260366676669e-27 0.0000000000000000e+00  -1.8536830566909941e-28 7.8191739188097299e-28 0.0000000000000000e+00  3.2467355829035722e-29 -7.1559839186026051e-28 0.0000000000000000e+00  -3.8790253303566864e-29 -2.1960486019227996e-28 0.0000000000000000e+00  5.7950346451645853e-28 -2.8063698129073559e-27 0.0000000000000000e+00  7.2756091535714767e-28 -3.3803070965198907e-27 0.0000000000000000e+00  1.2181399472367387e-27 -4.6831492662919156e-27 0.0000000000000000e+00  3.9797039982793192e-28 -1.2928206465697936e-27 0.0000000000000000e+00  -3.1930506367834706e-28 1.2342987275047193e-27 0.0000000000000000e+00  -8.1542151421479788e-28 2.4978730008537715e-27 0.0000000000000000e+00  -9.6889838593432532e-28 2.7306337635461553e-27 0.0000000000000000e+00  -2.7905981753189243e-28 6.9349364764135270e-28 0.0000000000000000e+00  1.6270188883592067e-28 -4.5017579396528273e-28 0.0000000000000000e+00  2.0777625303279213e-28 -5.2009705313000261e-28 0.0000000000000000e+00  8.5177384471792202e-28 -1.9003524150959439e-27 0.0000000000000000e+00  3.5237960807749561e-28 -7.4229808078862995e-28 0.0000000000000000e+00  -2.9059887175138086e-28 6.0016876320096918e-28 0.0000000000000000e+00  -1.0921071660668353e-29 2.8935482451856233e-29 0.0000000000000000e+00  3.1997945991534962e-29 -6.7224977370699010e-29 0.0000000000000000e+00  7.9678305248762066e-29 -1.5173814163952577e-28 0.0000000000000000e+00  -1.6205504389796066e-29 3.0983308135942125e-29 0.0000000000000000e+00  -2.3759678009090089e-29 4.2007022014340989e-29 0.0000000000000000e+00  2.29