<?xml version="1.0"?>
<VTKFile type="UnstructuredGrid"  version="0.1"  >
<UnstructuredGrid>
<Piece  NumberOfPoints="11902" NumberOfCells="23402">
<Points>
<DataArray  type="Float64"  NumberOfComponents="3"  format="ascii">-5 -5 0  5 -5 0  5 5 0  -5 5 0  1.179884729239832 0.00118805313963491 0  -4.9 -5 0  -4.8 -5 0  -4.7 -5 0  -4.6 -5 0  -4.5 -5 0  -4.4 -5 0  -4.3 -5 0  -4.2 -5 0  -4.1 -5 0  -4 -5 0  -3.9 -5 0  -3.8 -5 0  -3.7 -5 0  -3.6 -5 0  -3.5 -5 0  -3.4 -5 0  -3.3 -5 0  -3.2 -5 0  -3.1 -5 0  -3 -5 0  -2.9 -5 0  -2.8 -5 0  -2.7 -5 0  -2.6 -5 0  -2.5 -5 0  -2.4 -5 0  -2.3 -5 0  -2.2 -5 0  -2.1 -5 0  -2 -5 0  -1.9 -5 0  -1.8 -5 0  -1.7 -5 0  -1.6 -5 0  -1.5 -5 0  -1.4 -5 0  -1.3 -5 0  -1.2 -5 0  -1.1 -5 0  -1 -5 0  -0.9000000000000004 -5 0  -0.7999999999999998 -5 0  -0.7000000000000002 -5 0  -0.5999999999999996 -5 0  -0.5 -5 0  -0.4000000000000004 -5 0  -0.2999999999999998 -5 0  -0.2000000000000002 -5 0  -0.09999999999999964 -5 0  0 -5 0  0.09999999999999964 -5 0  0.2000000000000002 -5 0  0.2999999999999998 -5 0  0.4000000000000004 -5 0  0.5 -5 0  0.5999999999999996 -5 0  0.7000000000000002 -5 0  0.7999999999999998 -5 0  0.9000000000000004 -5 0  1 -5 0  1.1 -5 0  1.2 -5 0  1.3 -5 0  1.4 -5 0  1.5 -5 0  1.6 -5 0  1.7 -5 0  1.8 -5 0  1.9 -5 0  2 -5 0  2.1 -5 0  2.2 -5 0  2.3 -5 0  2.4 -5 0  2.5 -5 0  2.6 -5 0  2.7 -5 0  2.8 -5 0  2.9 -5 0  3 -5 0  3.1 -5 0  3.199999999999999 -5 0  3.300000000000001 -5 0  3.4 -5 0  3.5 -5 0  3.6 -5 0  3.699999999999999 -5 0  3.800000000000001 -5 0  3.9 -5 0  4 -5 0  4.1 -5 0  4.199999999999999 -5 0  4.300000000000001 -5 0  4.4 -5 0  4.5 -5 0  4.6 -5 0  4.699999999999999 -5 0  4.800000000000001 -5 0  4.9 -5 0  5 -4.9 0  5 -4.8 0  5 -4.7 0  5 -4.6 0  5 -4.5 0  5 -4.4 0  5 -4.3 0  5 -4.2 0  5 -4.1 0  5 -4 0  5 -3.9 0  5 -3.8 0  5 -3.7 0  5 -3.6 0  5 -3.5 0  5 -3.4 0  5 -3.3 0  5 -3.2 0  5 -3.1 0  5 -3 0  5 -2.9 0  5 -2.8 0  5 -2.7 0  5 -2.6 0  5 -2.5 0  5 -2.4 0  5 -2.3 0  5 -2.2 0  5 -2.1 0  5 -2 0  5 -1.9 0  5 -1.8 0  5 -1.7 0  5 -1.6 0  5 -1.5 0  5 -1.4 0  5 -1.3 0  5 -1.2 0  5 -1.1 0  5 -1 0  5 -0.9000000000000004 0  5 -0.7999999999999998 0  5 -0.7000000000000002 0  5 -0.5999999999999996 0  5 -0.5 0  5 -0.4000000000000004 0  5 -0.2999999999999998 0  5 -0.2000000000000002 0  5 -0.09999999999999964 0  5 0 0  5 0.09999999999999964 0  5 0.2000000000000002 0  5 0.2999999999999998 0  5 0.4000000000000004 0  5 0.5 0  5 0.5999999999999996 0  5 0.7000000000000002 0  5 0.7999999999999998 0  5 0.9000000000000004 0  5 1 0  5 1.1 0  5 1.2 0  5 1.3 0  5 1.4 0  5 1.5 0  5 1.6 0  5 1.7 0  5 1.8 0  5 1.9 0  5 2 0  5 2.1 0  5 2.2 0  5 2.3 0  5 2.4 0  5 2.5 0  5 2.6 0  5 2.7 0  5 2.8 0  5 2.9 0  5 3 0  5 3.1 0  5 3.199999999999999 0  5 3.300000000000001 0  5 3.4 0  5 3.5 0  5 3.6 0  5 3.699999999999999 0  5 3.800000000000001 0  5 3.9 0  5 4 0  5 4.1 0  5 4.199999999999999 0  5 4.300000000000001 0  5 4.4 0  5 4.5 0  5 4.6 0  5 4.699999999999999 0  5 4.800000000000001 0  5 4.9 0  4.9 5 0  4.8 5 0  4.7 5 0  4.6 5 0  4.5 5 0  4.4 5 0  4.3 5 0  4.2 5 0  4.1 5 0  4 5 0  3.9 5 0  3.8 5 0  3.7 5 0  3.6 5 0  3.5 5 0  3.4 5 0  3.3 5 0  3.2 5 0  3.1 5 0  3 5 0  2.9 5 0  2.8 5 0  2.7 5 0  2.6 5 0  2.5 5 0  2.4 5 0  2.3 5 0  2.2 5 0  2.1 5 0  2 5 0  1.9 5 0  1.8 5 0  1.7 5 0  1.6 5 0  1.5 5 0  1.4 5 0  1.3 5 0  1.2 5 0  1.1 5 0  1 5 0  0.9000000000000004 5 0  0.7999999999999998 5 0  0.7000000000000002 5 0  0.5999999999999996 5 0  0.5 5 0  0.4000000000000004 5 0  0.2999999999999998 5 0  0.2000000000000002 5 0  0.09999999999999964 5 0  0 5 0  -0.09999999999999964 5 0  -0.2000000000000002 5 0  -0.2999999999999998 5 0  -0.4000000000000004 5 0  -0.5 5 0  -0.5999999999999996 5 0  -0.7000000000000002 5 0  -0.7999999999999998 5 0  -0.9000000000000004 5 0  -1 5 0  -1.1 5 0  -1.2 5 0  -1.3 5 0  -1.4 5 0  -1.5 5 0  -1.6 5 0  -1.7 5 0  -1.8 5 0  -1.9 5 0  -2 5 0  -2.1 5 0  -2.2 5 0  -2.3 5 0  -2.4 5 0  -2.5 5 0  -2.6 5 0  -2.7 5 0  -2.8 5 0  -2.9 5 0  -3 5 0  -3.1 5 0  -3.199999999999999 5 0  -3.300000000000001 5 0  -3.4 5 0  -3.5 5 0  -3.6 5 0  -3.699999999999999 5 0  -3.800000000000001 5 0  -3.9 5 0  -4 5 0  -4.1 5 0  -4.199999999999999 5 0  -4.300000000000001 5 0  -4.4 5 0  -4.5 5 0  -4.6 5 0  -4.699999999999999 5 0  -4.800000000000001 5 0  -4.9 5 0  -5 4.9 0  -5 4.8 0  -5 4.7 0  -5 4.6 0  -5 4.5 0  -5 4.4 0  -5 4.3 0  -5 4.2 0  -5 4.1 0  -5 4 0  -5 3.9 0  -5 3.8 0  -5 3.7 0  -5 3.6 0  -5 3.5 0  -5 3.4 0  -5 3.3 0  -5 3.2 0  -5 3.1 0  -5 3 0  -5 2.9 0  -5 2.8 0  -5 2.7 0  -5 2.6 0  -5 2.5 0  -5 2.4 0  -5 2.3 0  -5 2.2 0  -5 2.1 0  -5 2 0  -5 1.9 0  -5 1.8 0  -5 1.7 0  -5 1.6 0  -5 1.5 0  -5 1.4 0  -5 1.3 0  -5 1.2 0  -5 1.1 0  -5 1 0  -5 0.9000000000000004 0  -5 0.7999999999999998 0  -5 0.7000000000000002 0  -5 0.5999999999999996 0  -5 0.5 0  -5 0.4000000000000004 0  -5 0.2999999999999998 0  -5 0.2000000000000002 0  -5 0.09999999999999964 0  -5 0 0  -5 -0.09999999999999964 0  -5 -0.2000000000000002 0  -5 -0.2999999999999998 0  -5 -0.4000000000000004 0  -5 -0.5 0  -5 -0.5999999999999996 0  -5 -0.7000000000000002 0  -5 -0.7999999999999998 0  -5 -0.9000000000000004 0  -5 -1 0  -5 -1.1 0  -5 -1.2 0  -5 -1.3 0  -5 -1.4 0  -5 -1.5 0  -5 -1.6 0  -5 -1.7 0  -5 -1.8 0  -5 -1.9 0  -5 -2 0  -5 -2.1 0  -5 -2.2 0  -5 -2.3 0  -5 -2.4 0  -5 -2.5 0  -5 -2.6 0  -5 -2.7 0  -5 -2.8 0  -5 -2.9 0  -5 -3 0  -5 -3.1 0  -5 -3.199999999999999 0  -5 -3.300000000000001 0  -5 -3.4 0  -5 -3.5 0  -5 -3.6 0  -5 -3.699999999999999 0  -5 -3.800000000000001 0  -5 -3.9 0  -5 -4 0  -5 -4.1 0  -5 -4.199999999999999 0  -5 -4.300000000000001 0  -5 -4.4 0  -5 -4.5 0  -5 -4.6 0  -5 -4.699999999999999 0  -5 -4.800000000000001 0  -5 -4.9 0  1.174103625661985 0.09960923980775505 0  1.155876208921716 0.1981696879236818 0  1.125241014310332 0.2956368171575897 0  1.085436297512667 0.3876979359987177 0  1.033853092399844 0.4784952505865576 0  0.9728902044052956 0.5637755318924641 0  0.9012613933693138 0.6435430774697362 0  0.8202990889557423 0.7163485543338766 0  0.7322847642819419 0.7822153272923922 0  0.6365317667493608 0.8408791264761271 0  0.533767322173912 0.8913858650538993 0  0.4264635204473307 0.9330732109157661 0  0.3166646958304426 0.9658151876427583 0  0.2019462367655682 0.9882053092413184 0  0.08766963035791692 1.002133140982994 0  -0.02761082682048144 1.004840683428935 0  -0.1429156710749903 0.9957403961787714 0  -0.2585572389090413 0.9782768991415808 0  -0.3713518715490925 0.9518288935662541 0  -0.4794877595988238 0.9152332578724045 0  -0.5827074189892865 0.8697956858648825 0  -0.6808576790430454 0.8150781998011946 0  -0.7720897206914901 0.7523964190311581 0  -0.8564769130327701 0.6822028434945526 0  -0.9333086049597336 0.6042741279549947 0  -1.000071954284012 0.5215898842375822 0  -1.057584609362947 0.4343792903555532 0  -1.103903342191029 0.3420102971382337 0  -1.138689202808426 0.247404061433274 0  -1.162185030787448 0.150321065331793 0  -1.174126171218626 0.0508415095211232 0  -1.174135992126686 -0.0492646075810976 0  -1.162168376383814 -0.1484637222697906 0  -1.139740166920965 -0.2455579001565558 0  -1.103565664593747 -0.341567726282495 0  -1.057959309770786 -0.433107810011661 0  -1.000956587026201 -0.5206086597788535 0  -0.9346052474356777 -0.6028870382208923 0  -0.8579691021983096 -0.6797487370867678 0  -0.7730928999650206 -0.7491581346244336 0  -0.6807719226989949 -0.8105769425651536 0  -0.5830134916644227 -0.865074054777308 0  -0.4771450813953027 -0.9114110599717834 0  -0.3686595863233718 -0.949230462275517 0  -0.2560150476947946 -0.9768056736129638 0  -0.1415335172679937 -0.994739843580646 0  -0.02702091559399388 -1.004054645090689 0  0.08827223681135389 -1.000119439227874 0  0.2043571799032412 -0.9861663024254249 0  0.318008853447754 -0.9641862599311286 0  0.4295121196722316 -0.9316732794935844 0  0.5352089210701189 -0.8904024057950416 0  0.637191882989653 -0.8403401811590879 0  0.7324893106731092 -0.7830633431033769 0  0.8203985606701144 -0.7169677358258205 0  0.9008029769157717 -0.6429638418881616 0  0.9716596160820875 -0.5630805449172412 0  1.033789302154855 -0.4779796941816916 0  1.086505661937628 -0.3877907659201794 0  1.12655878928551 -0.2944054561362191 0  1.156072159527764 -0.1974005538502216 0  1.174115126475816 -0.09917220716225064 0  -2.448865941771972 4.918674710819026 0  -2.448767525064978 -4.91110388275195 0  4.91104221841488 2.448330568364141 0  4.919111385487345 -2.449752604282951 0  2.446551334485134 -4.896441654646321 0  2.440972355236549 4.900181241813423 0  -4.911064292559799 -2.448352275211258 0  -4.911062999202222 2.448356123931269 0  -1.748831352523087 4.911811382785737 0  -1.744604489451099 -4.91522085876101 0  4.921383478167418 1.744464358517452 0  4.910023182794823 -1.748283179510664 0  -4.91030771661188 -1.748010800124258 0  -4.911123828877169 1.747751004256173 0  1.746123867879272 4.905727709019624 0  1.747577154908996 -4.893976595242794 0  -1.149078293256277 4.909764728960901 0  -1.129910423055042 -4.917599391897948 0  -4.910242162734784 -1.148260776337339 0  -4.910063900541247 1.148060763585211 0  1.144057461674268 -4.913823520030807 0  1.149085168970291 4.909754094535707 0  4.910390918069282 1.146538815906557 0  4.921093976896597 -1.152282046282584 0  -0.5467926736412915 -4.91103791093173 0  -0.5465623988279042 4.919627566010023 0  -4.909149303361316 -0.5488937082273597 0  -4.909173924888317 0.5474493604773957 0  4.908489078269533 -0.5492155368250803 0  4.919991801264473 0.5459476731279891 0  0.542586522487068 -4.898065699868628 0  0.5512933727085798 4.91648656920414 0  -4.912292364832199 -3.048635498333721 0  4.918836867996702 3.046629546099469 0  4.911804628467575 -3.048616680880767 0  -4.913138246100505 3.045724268510738 0  3.055559453078744 -4.917779116414548 0  -3.048909364473819 -4.911742175017184 0  3.052470798986607 4.913812546778518 0  -3.048353561676874 4.912628415794429 0  -4.908322747221542 -0.04992618089118649 0  0.04512767749280661 -4.912996389529046 0  0.04957589986349814 4.919944941359943 0  4.915292260763395 -0.0513071190320939 0  3.545823360339115 -4.919303836097697 0  -3.549122073018885 4.
[...]
<PointData  Vectors="f_2004"> 
<DataArray  type="Float64"  Name="f_2004"  NumberOfComponents="3" format="ascii">-1.3754670734168176e-40 -1.4806124636772942e-40 0.0000000000000000e+00  1.6807372695087898e-40 -1.7575237974305308e-40 0.0000000000000000e+00  -2.2050546729430936e-40 -2.1826046272707787e-40 0.0000000000000000e+00  -2.6554196720936361e-40 2.7216208585659771e-40 0.0000000000000000e+00  1.5344661365643722e+01 -3.2078710431166874e-01 0.0000000000000000e+00  3.1512223995321377e-40 3.3031799539177759e-40 0.0000000000000000e+00  7.5545941766041607e-40 8.0253488276771314e-40 0.0000000000000000e+00  -1.6921116398134417e-39 -1.9354703757335563e-39 0.0000000000000000e+00  1.6778676757678161e-38 1.8938021338099867e-38 0.0000000000000000e+00  -5.4214624751650574e-38 -6.0303555016766234e-38 0.0000000000000000e+00  2.0359920622575269e-37 2.3419723128227545e-37 0.0000000000000000e+00  -7.3113296823197886e-37 -8.6965147780302847e-37 0.0000000000000000e+00  4.3540787192001896e-36 5.4055260569579305e-36 0.0000000000000000e+00  -2.7062906429729807e-35 -3.4057339789178721e-35 0.0000000000000000e+00  1.0985451307114152e-34 1.4092890151571461e-34 0.0000000000000000e+00  -2.3752728931816907e-34 -3.1007913705396544e-34 0.0000000000000000e+00  4.7489039703766802e-34 6.2447253220406415e-34 0.0000000000000000e+00  1.7063400584546342e-33 2.2932856104433228e-33 0.0000000000000000e+00  -7.5876508565551132e-33 -1.0583902862252838e-32 0.0000000000000000e+00  2.1618743099760206e-32 3.1621628493360030e-32 0.0000000000000000e+00  -1.2345355811431914e-31 -1.8248806448599662e-31 0.0000000000000000e+00  3.2525550150989063e-31 4.8392479950490893e-31 0.0000000000000000e+00  1.8883078442546586e-31 2.9914482137076947e-31 0.0000000000000000e+00  -1.5736783019914139e-30 -2.4690384532312310e-30 0.0000000000000000e+00  -7.3789982355576150e-31 -1.2495050270722919e-30 0.0000000000000000e+00  -1.8403038916968890e-30 -3.1566691755793466e-30 0.0000000000000000e+00  4.8036719626194185e-30 8.6300576861064740e-30 0.0000000000000000e+00  -1.1223629782797137e-29 -2.3124177097603161e-29 0.0000000000000000e+00  3.9200896591966432e-29 7.7464039432580906e-29 0.0000000000000000e+00  2.2821500977478732e-29 4.8288165386611005e-29 0.0000000000000000e+00  -1.9510976427997468e-28 -4.0581289604075150e-28 0.0000000000000000e+00  -6.8225538355781482e-29 -1.5468617133961531e-28 0.0000000000000000e+00  -1.1624641712194081e-28 -2.9148292719920190e-28 0.0000000000000000e+00  1.9538049791945545e-28 4.6222363688855898e-28 0.0000000000000000e+00  5.7526721354983700e-28 1.4705071576007540e-27 0.0000000000000000e+00  -3.9578101125174396e-29 -1.0514446195043342e-28 0.0000000000000000e+00  1.4711639607147184e-28 4.1164292212094224e-28 0.0000000000000000e+00  -9.6041439841254344e-29 -2.6672444884083993e-28 0.0000000000000000e+00  -4.8679665590948404e-28 -1.4564485765857098e-27 0.0000000000000000e+00  -4.4501609663269075e-28 -1.4467942960114640e-27 0.0000000000000000e+00  -1.7931266698832492e-29 -1.5140565910144976e-28 0.0000000000000000e+00  4.6936607813600371e-28 1.7232884712274454e-27 0.0000000000000000e+00  2.6814354178936029e-28 1.0394066938407728e-27 0.0000000000000000e+00  -2.8030458707556438e-29 -1.8131689360306997e-28 0.0000000000000000e+00  1.0178302204670053e-28 4.2413843538794198e-28 0.0000000000000000e+00  1.2326067282639644e-28 1.0814229325088249e-27 0.0000000000000000e+00  2.3865697322155809e-28 1.8139307268794295e-27 0.0000000000000000e+00  -9.9846656305304827e-29 -1.0573165870306768e-27 0.0000000000000000e+00  5.9520397704735530e-28 5.8030374480119210e-27 0.0000000000000000e+00  -8.3468809465505435e-29 -2.0109912858137353e-29 0.0000000000000000e+00  -4.7582336585804827e-28 -4.9864322698225573e-27 0.0000000000000000e+00  -2.5510707944014850e-28 -2.8904893636319609e-27 0.0000000000000000e+00  -2.3233268485508970e-28 -4.1324905715304564e-27 0.0000000000000000e+00  -2.2894070476387041e-28 -1.0413175217915687e-26 0.0000000000000000e+00  -5.8877598213429147e-29 -1.1936113362736532e-26 0.0000000000000000e+00  9.8454886426107297e-32 -2.0631218057986058e-27 0.0000000000000000e+00  1.2053388633381174e-28 -6.4781613168924301e-27 0.0000000000000000e+00  1.3917508401668831e-28 -2.3161945785713315e-27 0.0000000000000000e+00  3.2812022875746844e-28 -4.1798157853780842e-27 0.0000000000000000e+00  -1.9140614151992635e-28 1.9207058206048265e-27 0.0000000000000000e+00  6.4403321722478142e-28 -5.5978952934287851e-27 0.0000000000000000e+00  7.4681598295596338e-28 -5.0823797493012542e-27 0.0000000000000000e+00  -1.2702534211709908e-28 1.0579191429617384e-27 0.0000000000000000e+00  -1.3258710821458288e-27 7.5929106422179269e-27 0.0000000000000000e+00  -6.0421692942569921e-28 3.0166792711081087e-27 0.0000000000000000e+00  -3.8039741982531531e-28 1.7417140253080042e-27 0.0000000000000000e+00  -1.0174910773385663e-27 4.3485625829808154e-27 0.0000000000000000e+00  -5.9978074340778684e-28 2.2992453065229348e-27 0.0000000000000000e+00  6.8092499338406698e-28 -2.6031219785077514e-27 0.0000000000000000e+00  3.6883661134913505e-28 -1.2239892615011194e-27 0.0000000000000000e+00  7.7412573716562832e-29 -2.4196313282999431e-28 0.0000000000000000e+00  3.2668655992403813e-28 -9.2847907435794090e-28 0.0000000000000000e+00  2.6268795908402804e-28 -7.2649668688239850e-28 0.0000000000000000e+00  -2.2545789417615787e-28 6.1335503060747529e-28 0.0000000000000000e+00  -1.6344576248456210e-28 4.1777339816361045e-28 0.0000000000000000e+00  -1.2264385564901246e-28 2.9678047440363259e-28 0.0000000000000000e+00  1.8990486641721282e-29 -5.2499407671466520e-29 0.0000000000000000e+00  8.6628404740657457e-29 -1.9652932258200769e-28 0.0000000000000000e+00  1.2405535707774963e-28 -2.6230819328199327e-28 0.0000000000000000e+00  -6.1587945821059917e-30 1.4068377370738350e-29 0.0000000000000000e+00  -8.8710158756741004e-29 1.7433650424030857e-28 0.0000000000000000e+00  1.4480500686856097e-29 -2.8528148770951732e-29 0.0000000000000000e+00  4.9035892856562039e-30 -8.8467586419223324e-30 0.0000000000000000e+00  -1.3408899827164586e-29 2.3685248555816738e-29 0.0000000000000000e+00  -1.0898513084680469e-30 1.6340818708803505e-30 0.0000000000000000e+00  1.5479254887407637e-30 -2.5146130356457319e-30 0.0000000000000000e+00  -7.9069534571726780e-31 1.2580382387806228e-30 0.0000000000000000e+00  1.0165113139564450e-31 -1.6126342079554134e-31 0.0000000000000000e+00  -1.1901723682708861e-32 1.8203483814211841e-32 0.0000000000000000e+00  -9.2347963537703492e-34 1.3126442838631948e-33 0.0000000000000000e+00  6.5661875844773203e-33 -9.0698064536781662e-33 0.0000000000000000e+00  2.8339826050590886e-34 -3.2435348249432057e-34 0.0000000000000000e+00  -3.9709260956866304e-34 5.1762093168419171e-34 0.0000000000000000e+00  4.3153867444148549e-35 -5.6523874297817771e-35 0.0000000000000000e+00  -1.6339716678551205e-35 2.0975596183081144e-35 0.0000000000000000e+00  4.0854809487322951e-36 -5.0126276764252840e-36 0.0000000000000000e+00  -1.5430009663294164e-36 1.7911790082478857e-36 0.0000000000000000e+00  4.8774964950242885e-37 -5.6194419760292078e-37 0.0000000000000000e+00  -2.4301677593433697e-37 2.7242660261680429e-37 0.0000000000000000e+00  8.1614578965069180e-38 -8.9960651647924051e-38 0.0000000000000000e+00  -1.6276577056241404e-38 1.7796516897330506e-38 0.0000000000000000e+00  6.5572492410250884e-39 -6.9750431146024542e-39 0.0000000000000000e+00  -4.2680231393506748e-40 4.4333359825467306e-40 0.0000000000000000e+00  -2.9014419075353569e-40 3.0501325413988149e-40 0.0000000000000000e+00  -6.7417982573306609e-42 4.6681725159202849e-42 0.0000000000000000e+00  3.8608138796111043e-40 -3.5979090594615364e-40 0.0000000000000000e+00  -8.8494835020518825e-40 8.0055276331083778e-40 0.0000000000000000e+00  3.2129459306507808e-39 -2.9406664476191172e-39 0.0000000000000000e+00  -1.8332204796520131e-39 1.7897035690542484e-39 0.0000000000000000e+00  -1.5141302279590166e-38 1.2849425629341552e-38 0.0000000000000000e+00  5.7895826386982295e-38 -4.9292073726301485e-38 0.0000000000000000e+00  -7.6716788483173767e-38 6.5802775004941557e-38 0.0000000000000000e+00  -1.4386664605110006e-37 1.1187629132794605e-37 0.0000000000000000e+00  8.9766952130917191e-37 -7.1081281122588343e-37 0.0000000000000000e+00  -1.5424550823751151e-36 1.2230859928744846e-36 0.0000000000000000e+00  -1.3811200166349821e-36 9.7095094888042778e-37 0.0000000000000000e+00  1.2435234837480179e-35 -9.1656684629313088e-36 0.0000000000000000e+00  -2.3782157648521583e-35 1.7419693601601679e-35 0.0000000000000000e+00  -1.7906838915662365e-35 1.1770715417207100e-35 0.0000000000000000e+00  1.7997990129006917e-34 -1.2291768210247258e-34 0.0000000000000000e+00  -2.8591832598211343e-34 1.9478277117030677e-34 0.0000000000000000e+00  -3.9563211237946157e-34 2.4917825676854066e-34 0.0000000000000000e+00  2.4294187292556671e-33 -1.5307040268499101e-33 0.0000000000000000e+00  -2.3760314320103582e-33 1.4937910415223371e-33 0.0000000000000000e+00  -8.8350076607232703e-33 5.1823143563734100e-33 0.0000000000000000e+00  2.7706567307536475e-32 -1.6080190692149774e-32 0.0000000000000000e+00  2.7872600979509584e-33 -1.0759892059340442e-33 0.0000000000000000e+00  -1.5090637337449923e-31 8.0953592888865864e-32 0.0000000000000000e+00  1.9825043046700445e-31 -1.0377799804873615e-31 0.0000000000000000e+00  5.0561462002815897e-31 -2.5021534668901675e-31 0.0000000000000000e+00  -1.4923952579709720e-30 7.1903894255797164e-31 0.0000000000000000e+00  -8.7478892259231053e-31 3.9857674439664398e-31 0.0000000000000000e+00  7.9758917104831208e-30 -3.5333704767988051e-30 0.0000000000000000e+00  -2.3241485173404095e-30 9.7089599480410852e-31 0.0000000000000000e+00  -3.5221303943899367e-29 1.4268030187114195e-29 0.0000000000000000e+00  2.9053047277801013e-29 -1.0843010399376161e-29 0.0000000000000000e+00  1.4344637352683460e-28 -5.3126127396854593e-29 0.0000000000000000e+00  -1.6248201396365426e-28 5.3633109195211569e-29 0.0000000000000000e+00  -5.9734136661390542e-28 1.9951056403055173e-28 0.0000000000000000e+00  6.3524958310338567e-28 -1.8238088973347192e-28 0.0000000000000000e+00  2.4865229664521133e-27 -7.3553534701727836e-28 0.0000000000000000e+00  -1.9062742215769925e-27 4.2231671760596038e-28 0.0000000000000000e+00  -9.5870913338183218e-27 2.3294307544082010e-27 0.0000000000000000e+00  2.5978796572931118e-27 -1.3730551243688727e-28 0.0000000000000000e+00  3.0151936310462076e-26 -5.7014975626902362e-27 0.0000000000000000e+00  1.4584398240648546e-26 -3.3293962310425477e-27 0.0000000000000000e+00  -8.5380631558978044e-26 1.2048798957087582e-26 0.0000000000000000e+00  -1.2941679459369571e-25 1.6815322642116334e-26 0.0000000000000000e+00  1.4320051334841827e-25 -1.9446052727783695e-26 0.0000000000000000e+00  8.3713158412042431e-25 -8.7263711178254605e-26 0.0000000000000000e+00  1.5244230553750326e-24 -1.2605769827039637e-25 0.0000000000000000e+00  1.8540856382415173e-24 -1.1104564799035855e-25 0.0000000000000000e+00  1.8079020358869422e-24 -5.6381965921237143e-26 0.0000000000000000e+00  1.8224783820254226e-24 4.7742135292517288e-27 0.0000000000000000e+00  1.9453330997811415e-24 6.5180698161600257e-26 0.0000000000000000e+00  1.8016785476359846e-24 1.0298952001895553e-25 0.0000000000000000e+00  1.1830506229542822e-24 9.0424218914554709e-26 0.0000000000000000e+00  3.5729896836148221e-25 3.3062269207882922e-26 0.0000000000000000e+00  -1.5008732952811633e-25 -1.7899118669475152e-26 0.0000000000000000e+00  -2.0364830338528604e-25 -2.6579251657448372e-26 0.0000000000000000e+00  -3.6233709421069669e-26 -3.9254089448079524e-27 0.0000000000000000e+00  5.7722985609003158e-26 1.1307021379182797e-26 0.0000000000000000e+00  3.5345314372849256e-26 7.1866520719631714e-27 0.0000000000000000e+00  -4.8345834297353924e-27 -1.1974497866429461e-27 0.0000000000000000e+00  -1.0212532527295102e-26 -2.5008219408335916e-27 0.0000000000000000e+00  -6.2322546797345100e-28 -1.4001389619126601e-28 0.0000000000000000e+00  2.5756463728162047e-27 7.3017155682355777e-28 0.0000000000000000e+00  3.4347229281521898e-28 9.9450595105562096e-29 0.0000000000000000e+00  -6.1530400924091243e-28 -1.9731597601657390e-28 0.0000000000000000e+00  -7.7466341361181016e-29 -2.5474686258741957e-29 0.0000000000000000e+00  1.4293734286986463e-28 5.1535352651459248e-29 0.0000000000000000e+00  4.8493543952397783e-30 1.6838634274577114e-30 0.0000000000000000e+00  -3.1801202112957943e-29 -1.2688808882978892e-29 0.0000000000000000e+00  2.9698832955720636e-30 1.2919593537765357e-30 0.0000000000000000e+00  6.0064815824827237e-30 2.6488397060011483e-30 0.0000000000000000e+00  -1.8024765224550777e-30 -8.3218361784671290e-31 0.0000000000000000e+00  -8.7687311286478000e-31 -4.1917617579564034e-31 0.0000000000000000e+00  5.7298787152498829e-31 2.8751598433446153e-31 0.0000000000000000e+00  2.9482269571148102e-32 1.5157090758743698e-32 0.0000000000000000e+00  -1.2482340627295211e-31 -6.7131077109919172e-32 0.0000000000000000e+00  2.8185898576759938e-32 1.5673493907823718e-32 0.0000000000000000e+00  1.7793716610146863e-32 1.0224361680588800e-32 0.0000000000000000e+00  -1.1376719659503020e-32 -6.7464249431460393e-33 0.0000000000000000e+00  1.6690685246197342e-34 9.0545058525388946e-35 0.0000000000000000e+00  2.0378871621500929e-33 1.2989445279944835e-33 0.0000000000000000e+00  -7.6996740020606023e-34 -4.9901502792170921e-34 0.0000000000000000e+00  -1.0758995530494397e-34 -7.5079503765347682e-35 0.0000000000000000e+00  1.8456257012581746e-34 1.2758402759649225e-34 0.0000000000000000e+00  -5.1933371816584734e-35 -3.6447177601081012e-35 0.0000000000000000e+00  -1.1930692729670498e-35 -8.9338630654709995e-36 0.0000000000000000e+00  1.3573539434845776e-35 1.0153063076194267e-35 0.0000000000000000e+00  -3.5524108887689144e-36 -2.6712383196029524e-36 0.0000000000000000e+00  -8.1846720745093488e-37 -6.6581528874572347e-37 0.0000000000000000e+00  9.4448626628611083e-37 7.5992074153096083e-37 0.0000000000000000e+00  -2.7585572200469718e-37 -2.2311071872295033e-37 0.0000000000000000e+00  -3.1699432480256332e-38 -2.8667175493483130e-38 0.0000000000000000e+00  5.8626643306392575e-38 5.0782197990434611e-38 0.0000000000000000e+00  -2.2604795604327856e-38 -1.9640776867854442e-38 0.0000000000000000e+00  9.8159720764950948e-40 6.9802206642716165e-40 0.0000000000000000e+00  3.0742421604273830e-39 2.8644466643807169e-39 0.0000000000000000e+00  -1.6356123896134422e-39 -1.5196800542228726e-39 0.0000000000000000e+00  3.6149118034660789e-40 3.3357429201082352e-40 0.0000000000000000e+00  1.6059698412442422e-40 1.6416326371649174e-40 0.0000000000000000e+00  3.3376345015189918e-40 3.4127274397283718e-40 0.0000000000000000e+00  -9.3263448832223008e-40 -1.0011406440622008e-39 0.0000000000000000e+00  1.8569319777028433e-39 2.0420779177612618e-39 0.0000000000000000e+00  -1.2561228386600880e-38 -1.3865839315974015e-38 0.0000000000000000e+00  9.2895587541889899e-38 9.9943587328236783e-38 0.0000000000000000e+00  -2.2453749417446142e-37 -2.3821687956566694e-37 0.0000000000000000e+00  2.6848673348210998e-37 2.9625967951567560e-37 0.0000000000000000e+00  -3.9063685911029392e-36 -4.5970887412160555e-36 0.0000000000000000e+00  1.1800557075955636e-35 1.4646683354530368e-35 0.0000000000000000e+00  -4.9568665958155408e-35 -6.4031257018967150e-35 0.0000000000000000e+00  1.0983898930129309e-34 1.4498334437474153e-34 0.0000000000000000e+00  -2.0987462851247066e-34 -2.9834056422687276e-34 0.0000000000000000e+00  1.1612136044633832e-33 1.5867229648947261e-33 0.0000000000000000e+00  -7.5424880936313706e-34 -1.0126499058150928e-33 0.0000000000000000e+00  4.4097413197677730e-33 6.1503597675776220e-33 0.0000000000000000e+00  3.9116136295472537e-32 5.7854250627426834e-32 0.0000000000000000e+00  -1.7899865310528814e-31 -2.6382929437866726e-31 0.0000000000000000e+00  -5.2317691342568394e-31 -8.1461151429089889e-31 0.0000000000000000e+00  1.0482841958671002e-30 1.6480556527476513e-30 0.0000000000000000e+00  -2.2585517498844635e-31 -3.2427667439038210e-31 0.0000000000000000e+00  -3.0627783672756241e-30 -5.4370336254043250e-30 0.0000000000000000e+00  9.1170973119013228e-30 1.7049644609204303e-29 0.0000000000000000e+00  1.3480871830160774e-29 2.6620172982062403e-29 0.0000000000000000e+00  -8.6653123920615805e-29 -1.7251465894781330e-28 0.0000000000000000e+00  2.7973000604206620e-29 5.4925718200723785e-29 0.0000000000000000e+00  9.5586184729293121e-29 1.9693897877887545e-28 0.0000000000000000e+00  3.1213043150489293e-29 7.2795189518100692e-29 0.0000000000000000e+00  2.7523960208381959e-28 6.5487315694235318e-28 0.0000000000000000e+00  1.1972636132900528e-28 3.0822606808147412e-28 0.0000000000000000e+00  -3.1472476304748992e-28 -7.7468705052011299e-28 0.0000000000000000e+00  -3.8846428907464404e-28 -1.0807058847983331e-27 0.0000000000000000e+00  3.4708259323762096e-28 9.5851443385668112e-28 0.0000000000000000e+00  6.1597899076408125e-28 1.8078918339241762e-27 0.0000000000000000e+00  3.5366694661644912e-28 1.1709191858465764e-27 0.0000000000000000e+00  1.3317416482844289e-28 5.3063978197827101e-28 0.0000000000000000e+00  -7.0205852581542372e-28 -2.4627389913311838e-27 0.0000000000000000e+00  -2.2149777604405846e-28 -7.8550200128042764e-28 0.0000000000000000e+00  -8.2463795659389788e-29 -3.1181036701363665e-28 0.0000000000000000e+00  -3.3646547403186193e-28 -1.5224166269633824e-27 0.0000000000000000e+00  -2.8831791916029697e-28 -1.4241711791988029e-27 0.0000000000000000e+00  -3.2625323115654274e-28 -2.0071028800446553e-27 0.0000000000000000e+00  -5.8982060192901687e-29 -5.8648241542770695e-28 0.0000000000000000e+00  2.3129062382019692e-28 1.5654267199025915e-27 0.0000000000000000e+00  -5.3300524272689774e-30 -7.7270115479969989e-29 0.0000000000000000e+00  -1.9198181079447998e-28 -2.2117151472635321e-27 0.0000000000000000e+00  6.0122005278189207e-29 8.4226093340808336e-28 0.0000000000000000e+00  2.6432247881286140e-29 7.0677183913865220e-28 0.0000000000000000e+00  -3.1422296161629716e-29 -1.3784254319947604e-27 0.0000000000000000e+00  -3.4616195899584040e-30 -3.9529512154382520e-28 0.0000000000000000e+00  4.1502382715943132e-29 -1.4998264170166971e-27 0.0000000000000000e+00  -8.5647309460460582e-29 1.8756621686342775e-27 0.0000000000000000e+00  -1.2662267081882523e-28 1.7459801548651330e-27 0.0000000000000000e+00  1.3423907086692086e-28 -1.6244475899142874e-27 0.0000000000000000e+00  3.3030116021760416e-29 -3.0400101968877489e-28 0.0000000000000000e+00  2.5634887030014383e-28 -2.1884395827285288e-27 0.0000000000000000e+00  -1.6567183193600252e-28 1.3706130319270674e-27 0.0000000000000000e+00  -8.5934457339063802e-29 5.2392563129232328e-28 0.0000000000000000e+00  1.4633004509814114e-28 -8.4180082917003987e-28 0.0000000000000000e+00  5.1713566224255780e-29 -3.6334703191767886e-28 0.0000000000000000e+00  5.2454912565952112e-28 -2.6346960093886718e-27 0.0000000000000000e+00  7.1330306554276666e-28 -3.3297416842676869e-27 0.0000000000000000e+00  1.0760148618104173e-27 -4.4941075787965816e-27 0.0000000000000000e+00  3.3109833649900382e-28 -1.2162492258769034e-27 0.0000000000000000e+00  -3.3313075033930568e-28 1.2880120376865444e-27 0.0000000000000000e+00  -7.1617139719801371e-28 2.4277167385563779e-27 0.0000000000000000e+00  -8.3459713287096764e-28 2.6341176548793654e-27 0.0000000000000000e+00  -2.2180361546750676e-28 6.3953220417044197e-28 0.0000000000000000e+00  1.5974638891520267e-28 -4.7225559215311206e-28 0.0000000000000000e+00  1.6533284868194493e-28 -4.7486102101166636e-28 0.0000000000000000e+00  6.8321842963874962e-28 -1.7602554569400444e-27 0.0000000000000000e+00  2.8754600176059809e-28 -6.9369305848271772e-28 0.0000000000000000e+00  -2.3878258707233338e-28 5.6883085081746277e-28 0.0000000000000000e+00  -1.0898348456031718e-29 2.0858626679176328e-29 0.0000000000000000e+00  2.8006616359523830e-29 -6.2764053682876315e-29 0.0000000000000000e+00  6.7070743192150994e-29 -1.3992184118793391e-28 0.0000000000000000e+00  -1.4127993830642038e-29 2.8934251153544701e-29 0.0000000000000000e+00  -2.0771162809923880e-29 3.9930123926215979e-29 0.0000000000000000e+00  1.780