<?xml version="1.0"?>
<VTKFile type="UnstructuredGrid"  version="0.1"  >
<UnstructuredGrid>
<Piece  NumberOfPoints="11902" NumberOfCells="23402">
<Points>
<DataArray  type="Float64"  NumberOfComponents="3"  format="ascii">-5 -5 0  5 -5 0  5 5 0  -5 5 0  1.2155346580585 0.00134892282269759 0  -4.9 -5 0  -4.8 -5 0  -4.7 -5 0  -4.6 -5 0  -4.5 -5 0  -4.4 -5 0  -4.3 -5 0  -4.2 -5 0  -4.1 -5 0  -4 -5 0  -3.9 -5 0  -3.8 -5 0  -3.7 -5 0  -3.6 -5 0  -3.5 -5 0  -3.4 -5 0  -3.3 -5 0  -3.2 -5 0  -3.1 -5 0  -3 -5 0  -2.9 -5 0  -2.8 -5 0  -2.7 -5 0  -2.6 -5 0  -2.5 -5 0  -2.4 -5 0  -2.3 -5 0  -2.2 -5 0  -2.1 -5 0  -2 -5 0  -1.9 -5 0  -1.8 -5 0  -1.7 -5 0  -1.6 -5 0  -1.5 -5 0  -1.4 -5 0  -1.3 -5 0  -1.2 -5 0  -1.1 -5 0  -1 -5 0  -0.9000000000000004 -5 0  -0.7999999999999998 -5 0  -0.7000000000000002 -5 0  -0.5999999999999996 -5 0  -0.5 -5 0  -0.4000000000000004 -5 0  -0.2999999999999998 -5 0  -0.2000000000000002 -5 0  -0.09999999999999964 -5 0  0 -5 0  0.09999999999999964 -5 0  0.2000000000000002 -5 0  0.2999999999999998 -5 0  0.4000000000000004 -5 0  0.5 -5 0  0.5999999999999996 -5 0  0.7000000000000002 -5 0  0.7999999999999998 -5 0  0.9000000000000004 -5 0  1 -5 0  1.1 -5 0  1.2 -5 0  1.3 -5 0  1.4 -5 0  1.5 -5 0  1.6 -5 0  1.7 -5 0  1.8 -5 0  1.9 -5 0  2 -5 0  2.1 -5 0  2.2 -5 0  2.3 -5 0  2.4 -5 0  2.5 -5 0  2.6 -5 0  2.7 -5 0  2.8 -5 0  2.9 -5 0  3 -5 0  3.1 -5 0  3.199999999999999 -5 0  3.300000000000001 -5 0  3.4 -5 0  3.5 -5 0  3.6 -5 0  3.699999999999999 -5 0  3.800000000000001 -5 0  3.9 -5 0  4 -5 0  4.1 -5 0  4.199999999999999 -5 0  4.300000000000001 -5 0  4.4 -5 0  4.5 -5 0  4.6 -5 0  4.699999999999999 -5 0  4.800000000000001 -5 0  4.9 -5 0  5 -4.9 0  5 -4.8 0  5 -4.7 0  5 -4.6 0  5 -4.5 0  5 -4.4 0  5 -4.3 0  5 -4.2 0  5 -4.1 0  5 -4 0  5 -3.9 0  5 -3.8 0  5 -3.7 0  5 -3.6 0  5 -3.5 0  5 -3.4 0  5 -3.3 0  5 -3.2 0  5 -3.1 0  5 -3 0  5 -2.9 0  5 -2.8 0  5 -2.7 0  5 -2.6 0  5 -2.5 0  5 -2.4 0  5 -2.3 0  5 -2.2 0  5 -2.1 0  5 -2 0  5 -1.9 0  5 -1.8 0  5 -1.7 0  5 -1.6 0  5 -1.5 0  5 -1.4 0  5 -1.3 0  5 -1.2 0  5 -1.1 0  5 -1 0  5 -0.9000000000000004 0  5 -0.7999999999999998 0  5 -0.7000000000000002 0  5 -0.5999999999999996 0  5 -0.5 0  5 -0.4000000000000004 0  5 -0.2999999999999998 0  5 -0.2000000000000002 0  5 -0.09999999999999964 0  5 0 0  5 0.09999999999999964 0  5 0.2000000000000002 0  5 0.2999999999999998 0  5 0.4000000000000004 0  5 0.5 0  5 0.5999999999999996 0  5 0.7000000000000002 0  5 0.7999999999999998 0  5 0.9000000000000004 0  5 1 0  5 1.1 0  5 1.2 0  5 1.3 0  5 1.4 0  5 1.5 0  5 1.6 0  5 1.7 0  5 1.8 0  5 1.9 0  5 2 0  5 2.1 0  5 2.2 0  5 2.3 0  5 2.4 0  5 2.5 0  5 2.6 0  5 2.7 0  5 2.8 0  5 2.9 0  5 3 0  5 3.1 0  5 3.199999999999999 0  5 3.300000000000001 0  5 3.4 0  5 3.5 0  5 3.6 0  5 3.699999999999999 0  5 3.800000000000001 0  5 3.9 0  5 4 0  5 4.1 0  5 4.199999999999999 0  5 4.300000000000001 0  5 4.4 0  5 4.5 0  5 4.6 0  5 4.699999999999999 0  5 4.800000000000001 0  5 4.9 0  4.9 5 0  4.8 5 0  4.7 5 0  4.6 5 0  4.5 5 0  4.4 5 0  4.3 5 0  4.2 5 0  4.1 5 0  4 5 0  3.9 5 0  3.8 5 0  3.7 5 0  3.6 5 0  3.5 5 0  3.4 5 0  3.3 5 0  3.2 5 0  3.1 5 0  3 5 0  2.9 5 0  2.8 5 0  2.7 5 0  2.6 5 0  2.5 5 0  2.4 5 0  2.3 5 0  2.2 5 0  2.1 5 0  2 5 0  1.9 5 0  1.8 5 0  1.7 5 0  1.6 5 0  1.5 5 0  1.4 5 0  1.3 5 0  1.2 5 0  1.1 5 0  1 5 0  0.9000000000000004 5 0  0.7999999999999998 5 0  0.7000000000000002 5 0  0.5999999999999996 5 0  0.5 5 0  0.4000000000000004 5 0  0.2999999999999998 5 0  0.2000000000000002 5 0  0.09999999999999964 5 0  0 5 0  -0.09999999999999964 5 0  -0.2000000000000002 5 0  -0.2999999999999998 5 0  -0.4000000000000004 5 0  -0.5 5 0  -0.5999999999999996 5 0  -0.7000000000000002 5 0  -0.7999999999999998 5 0  -0.9000000000000004 5 0  -1 5 0  -1.1 5 0  -1.2 5 0  -1.3 5 0  -1.4 5 0  -1.5 5 0  -1.6 5 0  -1.7 5 0  -1.8 5 0  -1.9 5 0  -2 5 0  -2.1 5 0  -2.2 5 0  -2.3 5 0  -2.4 5 0  -2.5 5 0  -2.6 5 0  -2.7 5 0  -2.8 5 0  -2.9 5 0  -3 5 0  -3.1 5 0  -3.199999999999999 5 0  -3.300000000000001 5 0  -3.4 5 0  -3.5 5 0  -3.6 5 0  -3.699999999999999 5 0  -3.800000000000001 5 0  -3.9 5 0  -4 5 0  -4.1 5 0  -4.199999999999999 5 0  -4.300000000000001 5 0  -4.4 5 0  -4.5 5 0  -4.6 5 0  -4.699999999999999 5 0  -4.800000000000001 5 0  -4.9 5 0  -5 4.9 0  -5 4.8 0  -5 4.7 0  -5 4.6 0  -5 4.5 0  -5 4.4 0  -5 4.3 0  -5 4.2 0  -5 4.1 0  -5 4 0  -5 3.9 0  -5 3.8 0  -5 3.7 0  -5 3.6 0  -5 3.5 0  -5 3.4 0  -5 3.3 0  -5 3.2 0  -5 3.1 0  -5 3 0  -5 2.9 0  -5 2.8 0  -5 2.7 0  -5 2.6 0  -5 2.5 0  -5 2.4 0  -5 2.3 0  -5 2.2 0  -5 2.1 0  -5 2 0  -5 1.9 0  -5 1.8 0  -5 1.7 0  -5 1.6 0  -5 1.5 0  -5 1.4 0  -5 1.3 0  -5 1.2 0  -5 1.1 0  -5 1 0  -5 0.9000000000000004 0  -5 0.7999999999999998 0  -5 0.7000000000000002 0  -5 0.5999999999999996 0  -5 0.5 0  -5 0.4000000000000004 0  -5 0.2999999999999998 0  -5 0.2000000000000002 0  -5 0.09999999999999964 0  -5 0 0  -5 -0.09999999999999964 0  -5 -0.2000000000000002 0  -5 -0.2999999999999998 0  -5 -0.4000000000000004 0  -5 -0.5 0  -5 -0.5999999999999996 0  -5 -0.7000000000000002 0  -5 -0.7999999999999998 0  -5 -0.9000000000000004 0  -5 -1 0  -5 -1.1 0  -5 -1.2 0  -5 -1.3 0  -5 -1.4 0  -5 -1.5 0  -5 -1.6 0  -5 -1.7 0  -5 -1.8 0  -5 -1.9 0  -5 -2 0  -5 -2.1 0  -5 -2.2 0  -5 -2.3 0  -5 -2.4 0  -5 -2.5 0  -5 -2.6 0  -5 -2.7 0  -5 -2.8 0  -5 -2.9 0  -5 -3 0  -5 -3.1 0  -5 -3.199999999999999 0  -5 -3.300000000000001 0  -5 -3.4 0  -5 -3.5 0  -5 -3.6 0  -5 -3.699999999999999 0  -5 -3.800000000000001 0  -5 -3.9 0  -5 -4 0  -5 -4.1 0  -5 -4.199999999999999 0  -5 -4.300000000000001 0  -5 -4.4 0  -5 -4.5 0  -5 -4.6 0  -5 -4.699999999999999 0  -5 -4.800000000000001 0  -5 -4.9 0  1.20928865145694 0.09843211311880477 0  1.190004129479901 0.1961967893344813 0  1.15800338210682 0.2932087128696629 0  1.116733138871858 0.3841343730751369 0  1.062838480916503 0.4746955946258715 0  0.999696228430771 0.5596619874366879 0  0.9253720298947984 0.6394351954850435 0  0.8419113771248979 0.7124165713297336 0  0.7515785268504537 0.7779258034077011 0  0.6525073637224883 0.8362240084947196 0  0.5462067890802657 0.8875163398719045 0  0.4362777916115361 0.9297367231525364 0  0.3242321196894335 0.9626112925843224 0  0.2056797449300325 0.9848838220732232 0  0.08904889531224271 1.000442073357285 0  -0.02772182908868599 1.003293710200737 0  -0.1448352693572439 0.992681971011529 0  -0.264745715420782 0.9747707096704622 0  -0.3806079991326148 0.9489611185051116 0  -0.4907523627867507 0.9125219177135723 0  -0.5965895243807977 0.8667155867132071 0  -0.6971943273959917 0.8120508562684507 0  -0.7904276428183287 0.7487523922683313 0  -0.8776741200486544 0.6777103575491662 0  -0.9579444137307923 0.5993863602754923 0  -1.027545782380836 0.5173001782423304 0  -1.087285116536673 0.4306622996428875 0  -1.13577941679518 0.3388283623690611 0  -1.172037913222032 0.2454353029041568 0  -1.196228035544633 0.1494738852995923 0  -1.208419616027174 0.05072356201700865 0  -1.208398104626012 -0.04880695163818484 0  -1.19611714445859 -0.1471531258655648 0  -1.172550453145788 -0.2430513946152992 0  -1.134959608655471 -0.338580401582552 0  -1.087596681569098 -0.4296173311646172 0  -1.028647006538406 -0.5165286865333301 0  -0.9596920551099561 -0.5981136154966742 0  -0.8798698990315734 -0.6751920177375865 0  -0.7923887772328846 -0.7450284502687223 0  -0.6976604182721678 -0.8061758812645727 0  -0.5966215002514789 -0.8602769983668698 0  -0.4876148006883937 -0.9077383490184143 0  -0.3766151096229357 -0.9460376166344862 0  -0.2616390598453779 -0.9736293913895139 0  -0.1434528642228597 -0.9919031378525237 0  -0.02758162416589637 -1.0023692703345 0  0.08960349461445637 -0.9973238674006383 0  0.2090925666543347 -0.9823717912924738 0  0.3261155144911413 -0.9609450480649332 0  0.4399554005120574 -0.9283221175810095 0  0.5480893837055176 -0.8865817558376425 0  0.6532909130281227 -0.8359673096274528 0  0.7517084628542742 -0.7790082909205086 0  0.841955929291513 -0.7132240562772956 0  0.924830597846811 -0.638956864709827 0  0.998013249781071 -0.5590268570795629 0  1.062659055218835 -0.4740450264909207 0  1.117726170782475 -0.3841815370282565 0  1.159524760636575 -0.2915529274099821 0  1.190345263210418 -0.1953239225168691 0  1.209340488440335 -0.09796744725166573 0  -2.44871560968398 4.918397454506399 0  -2.44860395110864 -4.910801553732227 0  4.910732790272998 2.448113163499466 0  4.918830662113849 -2.449554925719128 0  2.446360912944125 -4.896086327981691 0  2.440788200642859 4.89983764282999 0  -4.910757435019081 -2.44813727676315 0  -4.910755369293235 2.448141171157373 0  -1.748676026714321 4.911411715900586 0  -1.744455959503604 -4.914837319258963 0  4.920992280376048 1.744267408621442 0  4.909576341674965 -1.748057422278937 0  -4.909865901484946 -1.747788416099645 0  -4.910685165206395 1.747530972046198 0  1.745958961711446 4.905298395025313 0  1.747392330339337 -4.893494386754722 0  -1.148954614027639 4.909280405940721 0  -1.129799081803275 -4.917156731392923 0  -4.909688573292978 -1.14807764751176 0  -4.909508466184021 1.147877899040201 0  1.143941784001649 -4.913359973265915 0  1.148962869341618 4.90926825837948 0  4.909832701045294 1.14635423977518 0  4.920603686201932 -1.152118789097918 0  -0.5467283672527123 -4.910511713301492 0  -0.5465039505455569 4.91915074176918 0  -4.908505715135757 -0.5487918456677282 0  -4.908529981342059 0.5473486017606987 0  4.907834671486244 -0.5491116857598336 0  4.919419448350576 0.5458577508261969 0  0.5425159103706173 -4.897461180799301 0  0.5512339509392926 4.915990556534907 0  -4.912085536725848 -3.048457955790266 0  4.91864388444601 3.046463344157632 0  4.911595419517502 -3.048436211127048 0  -4.912932411482299 3.045548118486349 0  3.055425692453375 -4.917576052604591 0  -3.04876546921722 -4.911525194659864 0  3.052329975395698 4.913599062835321 0  -3.048210650519949 4.912412961800386 0  -4.907645451132076 -0.04991601014076207 0  0.04512377695601483 -4.912466174028276 0  0.04957137658627613 4.919455689864916 0  4.914660633590298 -0.05129760001453201 0  3.545717152884397 -4.919161749849528 0  -3.549006758286528 4.9120
[...]
<PointData  Vectors="f_2746"> 
<DataArray  type="Float64"  Name="f_2746"  NumberOfComponents="3" format="ascii">-1.1473702408927844e-40 -1.3386741117385170e-40 0.0000000000000000e+00  1.3644681948240603e-40 -1.5267001018380092e-40 0.0000000000000000e+00  -1.9975332710553733e-40 -1.9419327731335385e-40 0.0000000000000000e+00  -2.2918437166001736e-40 2.3189156563413432e-40 0.0000000000000000e+00  1.5975640791407718e+01 -1.2177270537223876e-01 0.0000000000000000e+00  2.7169688600985125e-40 2.9795077374612861e-40 0.0000000000000000e+00  7.1608345275161874e-40 7.2392099804371119e-40 0.0000000000000000e+00  -1.6449876034592692e-39 -1.8149164358660389e-39 0.0000000000000000e+00  1.5228351047944615e-38 1.7490942022386970e-38 0.0000000000000000e+00  -4.9907999944775525e-38 -5.7012857054207301e-38 0.0000000000000000e+00  1.8323582100317725e-37 2.2753834429302812e-37 0.0000000000000000e+00  -6.5868984332040650e-37 -8.5728522490446439e-37 0.0000000000000000e+00  3.8922398566126985e-36 5.0327711356226682e-36 0.0000000000000000e+00  -2.4284240558625921e-35 -3.0426988531290982e-35 0.0000000000000000e+00  9.9858683177167048e-35 1.2737083159150040e-34 0.0000000000000000e+00  -2.2001923663431111e-34 -2.7701031212339358e-34 0.0000000000000000e+00  4.4434148975002678e-34 5.4267235682065619e-34 0.0000000000000000e+00  1.6402172741995391e-33 2.0520111090446524e-33 0.0000000000000000e+00  -7.0735147866052149e-33 -9.5079693793653296e-33 0.0000000000000000e+00  1.9352628919476005e-32 2.8210794514686074e-32 0.0000000000000000e+00  -1.1321161522683915e-31 -1.6335741030986482e-31 0.0000000000000000e+00  3.0012390515401128e-31 4.3549526503450255e-31 0.0000000000000000e+00  1.9520267774072307e-31 2.6778501606320991e-31 0.0000000000000000e+00  -1.5788147674356089e-30 -2.2275216085355786e-30 0.0000000000000000e+00  -6.0696504968493139e-31 -1.1419806385656394e-30 0.0000000000000000e+00  -1.2983329867063819e-30 -2.5592041566943477e-30 0.0000000000000000e+00  4.1329284999333201e-30 7.7600164869361959e-30 0.0000000000000000e+00  -9.2588742676332373e-30 -2.4531849342919235e-29 0.0000000000000000e+00  3.3549887372974449e-29 7.5698892787921890e-29 0.0000000000000000e+00  1.9134151099853054e-29 4.6349870782452857e-29 0.0000000000000000e+00  -1.6846477931368030e-28 -3.8162193343357138e-28 0.0000000000000000e+00  -6.1949642514622028e-29 -1.5537705058020426e-28 0.0000000000000000e+00  -1.0297381136300465e-28 -3.1754761748877231e-28 0.0000000000000000e+00  1.6944601331027115e-28 4.6401304137072819e-28 0.0000000000000000e+00  4.8272064948128077e-28 1.4563757528684405e-27 0.0000000000000000e+00  -2.7559012709608034e-30 -9.7109860622006770e-29 0.0000000000000000e+00  1.5482646270683997e-28 4.1827845324138095e-28 0.0000000000000000e+00  -7.6990338414677509e-29 -2.6720890559079001e-28 0.0000000000000000e+00  -4.7240258797295803e-28 -1.4730755172313172e-27 0.0000000000000000e+00  -4.4087521688118825e-28 -1.4384065353409113e-27 0.0000000000000000e+00  -1.0855344398625757e-29 -1.0462095371131554e-28 0.0000000000000000e+00  4.5190730965623311e-28 1.7031322144436733e-27 0.0000000000000000e+00  2.7563136068308939e-28 1.0157058523501714e-27 0.0000000000000000e+00  -2.2343291510229864e-30 -1.5608057430893877e-28 0.0000000000000000e+00  1.1950723188034645e-28 4.1058786663568401e-28 0.0000000000000000e+00  -6.2721681272404578e-29 9.9308728411356171e-28 0.0000000000000000e+00  6.5714607551748462e-29 1.6932276774407710e-27 0.0000000000000000e+00  1.5879093250823920e-29 -1.0046381693760592e-27 0.0000000000000000e+00  3.3379472450204526e-28 5.4252850350053721e-27 0.0000000000000000e+00  -1.6055978588682735e-28 -1.0028579031636541e-29 0.0000000000000000e+00  -5.0651398909268485e-28 -4.6360095996632800e-27 0.0000000000000000e+00  -4.0662747696790585e-28 -2.6389096338453939e-27 0.0000000000000000e+00  -2.9205871790411409e-28 -3.8240347410369087e-27 0.0000000000000000e+00  -9.3658363175512322e-29 -9.8008136114896781e-27 0.0000000000000000e+00  6.1682091697945961e-29 -1.1232642601571344e-26 0.0000000000000000e+00  -1.7600309130446818e-29 -1.9226863863745568e-27 0.0000000000000000e+00  5.6334114341865078e-29 -6.0318189985001817e-27 0.0000000000000000e+00  5.9460550159624843e-29 -2.1113359360445464e-27 0.0000000000000000e+00  2.1301766676610835e-28 -3.8667028817433676e-27 0.0000000000000000e+00  -1.4134235207431170e-28 1.8706774545587839e-27 0.0000000000000000e+00  5.1159926727467251e-28 -5.1485808556475972e-27 0.0000000000000000e+00  6.3678286436497405e-28 -4.6885769715144761e-27 0.0000000000000000e+00  -7.6547661252480987e-29 1.0345465274121528e-27 0.0000000000000000e+00  -9.7948787453036793e-28 7.1425688282687962e-27 0.0000000000000000e+00  -4.6938453909208840e-28 2.8432368693000201e-27 0.0000000000000000e+00  -3.5112250305539109e-28 1.5907691570104575e-27 0.0000000000000000e+00  -8.2255671621360123e-28 4.0999206914498090e-27 0.0000000000000000e+00  -4.8220973083059555e-28 2.1706728380593721e-27 0.0000000000000000e+00  5.2205049855974001e-28 -2.4965626872475418e-27 0.0000000000000000e+00  3.1449665804180441e-28 -1.1731285111647930e-27 0.0000000000000000e+00  6.7666641281045557e-29 -2.0055769505991761e-28 0.0000000000000000e+00  3.0309521829046785e-28 -8.7129110616666115e-28 0.0000000000000000e+00  2.1903340935780472e-28 -6.8299158775609212e-28 0.0000000000000000e+00  -1.8909063142448977e-28 5.8712427092803118e-28 0.0000000000000000e+00  -1.2160982593916634e-28 3.5841864608953767e-28 0.0000000000000000e+00  -9.5110597327448885e-29 2.6847548559877419e-28 0.0000000000000000e+00  1.7998695043903600e-29 -5.6485814954438034e-29 0.0000000000000000e+00  6.6346544587690844e-29 -1.7311042130987170e-28 0.0000000000000000e+00  9.6760996143813240e-29 -2.3566468073986089e-28 0.0000000000000000e+00  -7.2194665695586973e-30 1.3638737235183701e-29 0.0000000000000000e+00  -7.3383786734944274e-29 1.6158477059477546e-28 0.0000000000000000e+00  1.1950550040610852e-29 -2.6113475332402481e-29 0.0000000000000000e+00  4.1326574673020096e-30 -8.4734756810211539e-30 0.0000000000000000e+00  -1.2218464503645023e-29 2.2249002831331452e-29 0.0000000000000000e+00  -1.1164329777070493e-30 1.5425835151992922e-30 0.0000000000000000e+00  1.4622735372997382e-30 -2.3487121159694445e-30 0.0000000000000000e+00  -7.3079852317987612e-31 1.1451105280777637e-30 0.0000000000000000e+00  9.8563416043819904e-32 -1.5614101025363418e-31 0.0000000000000000e+00  -1.1066446854086528e-32 1.7223862447219757e-32 0.0000000000000000e+00  -1.5265272599125273e-33 2.0164189497722253e-33 0.0000000000000000e+00  6.3264288912065421e-33 -8.2817681940717366e-33 0.0000000000000000e+00  1.5924477555773328e-34 -1.4589254306943810e-34 0.0000000000000000e+00  -3.3316717404789114e-34 4.0731535283351425e-34 0.0000000000000000e+00  3.3660873395067352e-35 -3.7567324904232800e-35 0.0000000000000000e+00  -1.2206914097339275e-35 1.5381791571637974e-35 0.0000000000000000e+00  3.4943184238361253e-36 -4.1741170571677720e-36 0.0000000000000000e+00  -1.5523303917899495e-36 1.7078645789286913e-36 0.0000000000000000e+00  4.7776939134918153e-37 -5.4167397076332139e-37 0.0000000000000000e+00  -2.3675876394508042e-37 2.5670384457606572e-37 0.0000000000000000e+00  7.8815991021545754e-38 -8.3365424806038668e-38 0.0000000000000000e+00  -1.5164779707459569e-38 1.6222843534444581e-38 0.0000000000000000e+00  6.0401918595809468e-39 -6.2439382515589529e-39 0.0000000000000000e+00  -4.2665932433186515e-40 4.0333892664917426e-40 0.0000000000000000e+00  -2.3842714891364469e-40 2.6541516843416663e-40 0.0000000000000000e+00  -8.0570895733281466e-43 2.7832694750315512e-42 0.0000000000000000e+00  3.7294115588743999e-40 -3.2541033125525805e-40 0.0000000000000000e+00  -8.4453204544701146e-40 7.2529513603944063e-40 0.0000000000000000e+00  2.8666368768277352e-39 -2.6229268042429441e-39 0.0000000000000000e+00  -1.2792791401805720e-39 1.4980695355651376e-39 0.0000000000000000e+00  -1.4666788132685674e-38 1.1876711547425335e-38 0.0000000000000000e+00  5.3196157882881298e-38 -4.4875162300727934e-38 0.0000000000000000e+00  -6.6082472179122951e-38 5.8783955505924176e-38 0.0000000000000000e+00  -1.4568189215753096e-37 1.0695671418913809e-37 0.0000000000000000e+00  8.4113746042747101e-37 -6.6035563733982201e-37 0.0000000000000000e+00  -1.3862919035853969e-36 1.1203859545304591e-36 0.0000000000000000e+00  -1.4467154496843156e-36 9.6807351834056781e-37 0.0000000000000000e+00  1.1733201508914499e-35 -8.6644257012270332e-36 0.0000000000000000e+00  -2.1745667281268920e-35 1.6259430299015191e-35 0.0000000000000000e+00  -1.8482182457023415e-35 1.1994280723781114e-35 0.0000000000000000e+00  1.6998010500442624e-34 -1.1817663233251373e-34 0.0000000000000000e+00  -2.6276238876527091e-34 1.8390007884015125e-34 0.0000000000000000e+00  -3.8838185733488743e-34 2.5142676605025744e-34 0.0000000000000000e+00  2.2902903152055469e-33 -1.4935453596901748e-33 0.0000000000000000e+00  -2.1652281612319105e-33 1.4062997267662984e-33 0.0000000000000000e+00  -8.4872136630230242e-33 5.2397461607574284e-33 0.0000000000000000e+00  2.6059564547594664e-32 -1.5834281653761882e-32 0.0000000000000000e+00  3.5707714817139328e-33 -2.0461837319865662e-33 0.0000000000000000e+00  -1.4395382633056830e-31 8.2441513563140204e-32 0.0000000000000000e+00  1.8477612565297616e-31 -1.0126716576374577e-31 0.0000000000000000e+00  4.9065586143186492e-31 -2.6692549785955298e-31 0.0000000000000000e+00  -1.4202559869632497e-30 7.3318181394425391e-31 0.0000000000000000e+00  -8.8581909825584448e-31 4.8199332215246380e-31 0.0000000000000000e+00  7.7003606580832210e-30 -3.7334777890527368e-30 0.0000000000000000e+00  -2.0746111640370596e-30 6.9270356124260969e-31 0.0000000000000000e+00  -3.4412256665021006e-29 1.5661176075869428e-29 0.0000000000000000e+00  2.7840079604836784e-29 -1.0216393571060708e-29 0.0000000000000000e+00  1.4167490991327708e-28 -6.0713058160293545e-29 0.0000000000000000e+00  -1.5888435648620287e-28 5.2404747538593814e-29 0.0000000000000000e+00  -5.9547408788748628e-28 2.3638968989105985e-28 0.0000000000000000e+00  6.2915106481753578e-28 -1.6875673454957159e-28 0.0000000000000000e+00  2.4940405073359194e-27 -8.9107079503739054e-28 0.0000000000000000e+00  -1.8991485625266788e-27 3.1006352651110274e-28 0.0000000000000000e+00  -9.6431950734211160e-27 2.7745533037030741e-27 0.0000000000000000e+00  2.6083391321290268e-27 4.7969804092316714e-28 0.0000000000000000e+00  3.0440060875079311e-26 -6.4585570011122286e-27 0.0000000000000000e+00  1.4999547316482429e-26 -5.3660171458014401e-27 0.0000000000000000e+00  -8.5171436604543977e-26 1.2032821469438819e-26 0.0000000000000000e+00  -1.2894371277808571e-25 1.8910526031322785e-26 0.0000000000000000e+00  1.4373210157885804e-25 -2.6824108236071638e-26 0.0000000000000000e+00  8.3284389856541070e-25 -1.2638350389132671e-25 0.0000000000000000e+00  1.5082062206901593e-24 -2.0085007003065638e-25 0.0000000000000000e+00  1.8229833216435763e-24 -1.9581954965258046e-25 0.0000000000000000e+00  1.7658199662776181e-24 -1.0735940749084201e-25 0.0000000000000000e+00  1.7722694924581553e-24 1.2043225232450469e-26 0.0000000000000000e+00  1.8916580444678071e-24 1.2145154388521517e-25 0.0000000000000000e+00  1.7568330952640438e-24 1.7082649118673797e-25 0.0000000000000000e+00  1.1604790978093799e-24 1.3501392761823949e-25 0.0000000000000000e+00  3.5836520029626187e-25 4.4267674114027769e-26 0.0000000000000000e+00  -1.3844866467242250e-25 -2.4170478688821692e-26 0.0000000000000000e+00  -1.9499989567298777e-25 -3.1732257477665962e-26 0.0000000000000000e+00  -3.4529044189620531e-26 -2.0577735075872645e-27 0.0000000000000000e+00  5.6383014729314106e-26 1.5117524816809608e-26 0.0000000000000000e+00  3.4558183407948035e-26 8.5870164394024886e-27 0.0000000000000000e+00  -4.5919775000217188e-27 -1.5769451224337071e-27 0.0000000000000000e+00  -9.8316338860545546e-27 -2.8321116003146800e-27 0.0000000000000000e+00  -5.3500660461187944e-28 -6.7857172995370173e-29 0.0000000000000000e+00  2.5025957937648358e-27 8.2512825574326872e-28 0.0000000000000000e+00  3.0676255807617455e-28 8.6369689417246352e-29 0.0000000000000000e+00  -6.0303213250823275e-28 -2.1899275774340549e-28 0.0000000000000000e+00  -6.8122293659156245e-29 -2.1502628443935450e-29 0.0000000000000000e+00  1.4032717705365904e-28 5.5498035361875117e-29 0.0000000000000000e+00  3.0018908712699015e-30 1.5782721785970843e-31 0.0000000000000000e+00  -3.1042744446460084e-29 -1.3226678480644336e-29 0.0000000000000000e+00  3.2072359495008734e-30 1.7067654927240678e-30 0.0000000000000000e+00  5.8054802302202944e-30 2.6525117924135929e-30 0.0000000000000000e+00  -1.7924737675634941e-30 -9.2059829052606329e-31 0.0000000000000000e+00  -8.3650926846498135e-31 -3.9884396006656201e-31 0.0000000000000000e+00  5.5678687757328017e-31 2.9858578250557734e-31 0.0000000000000000e+00  2.5920207678388482e-32 8.0273014705478818e-33 0.0000000000000000e+00  -1.1949404806931402e-31 -6.7083803091649314e-32 0.0000000000000000e+00  2.7150743736571453e-32 1.6946617755987123e-32 0.0000000000000000e+00  1.6836412707240580e-32 9.7347157802649277e-33 0.0000000000000000e+00  -1.0781161532923857e-32 -6.7647851852020271e-33 0.0000000000000000e+00  1.7111079842075767e-34 1.8511340253185930e-34 0.0000000000000000e+00  1.9120533081524937e-33 1.2529185337928360e-33 0.0000000000000000e+00  -7.2281811622806037e-34 -4.9559271733062275e-34 0.0000000000000000e+00  -9.8562456302286900e-35 -6.6350312696920775e-35 0.0000000000000000e+00  1.7134485170966908e-34 1.2213756892770648e-34 0.0000000000000000e+00  -4.8581858911886432e-35 -3.5546371397160232e-35 0.0000000000000000e+00  -1.0708367030011278e-35 -8.1527945650227425e-36 0.0000000000000000e+00  1.2467378982498565e-35 9.5768196463692062e-36 0.0000000000000000e+00  -3.3208839971264056e-36 -2.5538966780420388e-36 0.0000000000000000e+00  -7.1166159921556088e-37 -6.0275363203294970e-37 0.0000000000000000e+00  8.5633320881598525e-37 7.0491112204585624e-37 0.0000000000000000e+00  -2.5631991903460095e-37 -2.0852117597517459e-37 0.0000000000000000e+00  -2.4808318720541906e-38 -2.5179067180910268e-38 0.0000000000000000e+00  5.2089460021839221e-38 4.6277700041978687e-38 0.0000000000000000e+00  -2.0665104505777934e-38 -1.7987613920634832e-38 0.0000000000000000e+00  1.2135303829795069e-39 7.1128076096721693e-40 0.0000000000000000e+00  2.6358235526494379e-39 2.5631598887089573e-39 0.0000000000000000e+00  -1.4584638036176237e-39 -1.3669450931342236e-39 0.0000000000000000e+00  3.3782917694152962e-40 3.0258459892852551e-40 0.0000000000000000e+00  1.2850279777263237e-40 1.4395451794737243e-40 0.0000000000000000e+00  3.1100431663528195e-40 3.0444992576167160e-40 0.0000000000000000e+00  -8.0045914936059151e-40 -8.8276306277007733e-40 0.0000000000000000e+00  1.6212169822465387e-39 1.8181418241507687e-39 0.0000000000000000e+00  -1.0852780136720678e-38 -1.2349091172430993e-38 0.0000000000000000e+00  8.4658875189348682e-38 8.9671838514586754e-38 0.0000000000000000e+00  -2.1673861449311332e-37 -2.1843087508752255e-37 0.0000000000000000e+00  2.6795254405326041e-37 2.8160848710187951e-37 0.0000000000000000e+00  -3.6059134931658613e-36 -4.1920272647512827e-36 0.0000000000000000e+00  1.0215723014656809e-35 1.3187337914098740e-35 0.0000000000000000e+00  -4.0806441378996605e-35 -5.6589432683113835e-35 0.0000000000000000e+00  9.0231265210414546e-35 1.2522077881661395e-34 0.0000000000000000e+00  -1.4997961154712097e-34 -2.3574436750069378e-34 0.0000000000000000e+00  9.2120654037113786e-34 1.3020081612713106e-33 0.0000000000000000e+00  -3.8481575607647089e-34 -5.4391742434929395e-34 0.0000000000000000e+00  2.9738547712912420e-33 4.6756407779706365e-33 0.0000000000000000e+00  3.5784571878005950e-32 5.0720161366239613e-32 0.0000000000000000e+00  -1.5533248150231411e-31 -2.2420309910007065e-31 0.0000000000000000e+00  -5.0047308654264797e-31 -7.4175224691109076e-31 0.0000000000000000e+00  1.0681832096581905e-30 1.5835007206928715e-30 0.0000000000000000e+00  -4.0576352860192205e-31 -5.6931505409806018e-31 0.0000000000000000e+00  -2.8817833759251387e-30 -5.3582377972617503e-30 0.0000000000000000e+00  8.7706567073598745e-30 1.8321672206648873e-29 0.0000000000000000e+00  1.2250702898076434e-29 2.6125174611771969e-29 0.0000000000000000e+00  -7.6584460124043004e-29 -1.6781638880774702e-28 0.0000000000000000e+00  2.4169798974401730e-29 5.0234168321835263e-29 0.0000000000000000e+00  8.9652716481012611e-29 1.8392358024269649e-28 0.0000000000000000e+00  2.3967959124739539e-29 7.3305948170823483e-29 0.0000000000000000e+00  2.1591917819673688e-28 6.2143980005555775e-28 0.0000000000000000e+00  9.6479393077327909e-29 2.8322185764876313e-28 0.0000000000000000e+00  -2.2227067541529986e-28 -6.6618989836807866e-28 0.0000000000000000e+00  -3.7173864543622709e-28 -1.1332403587856347e-27 0.0000000000000000e+00  2.8604352381058243e-28 9.3949424940039435e-28 0.0000000000000000e+00  4.8223902224917654e-28 1.7075004673169527e-27 0.0000000000000000e+00  3.2576734957557324e-28 1.2017293955069694e-27 0.0000000000000000e+00  1.9220311623235141e-28 6.4230983746889226e-28 0.0000000000000000e+00  -5.5765531731027911e-28 -2.3654696748134335e-27 0.0000000000000000e+00  -1.2571790639272366e-28 -6.5335832400486884e-28 0.0000000000000000e+00  -2.5347394664777065e-29 -2.2394919179308774e-28 0.0000000000000000e+00  -2.6597885149389439e-28 -1.4482000134732098e-27 0.0000000000000000e+00  -2.2517221156679113e-28 -1.3508212585766216e-27 0.0000000000000000e+00  -3.5232117378095677e-28 -2.1767960817147060e-27 0.0000000000000000e+00  -1.6216498517475938e-28 -8.7600213007234903e-28 0.0000000000000000e+00  1.0685635561426105e-28 1.2412582689828900e-27 0.0000000000000000e+00  -6.1363414866204605e-29 -2.9184132834708707e-28 0.0000000000000000e+00  -1.3995526289675845e-28 -2.1529642863964185e-27 0.0000000000000000e+00  -1.7625876965644776e-29 5.6148523901048676e-28 0.0000000000000000e+00  -3.0613541420495455e-29 4.2521733305496888e-28 0.0000000000000000e+00  -1.9017823848974898e-30 -1.4686432592149560e-27 0.0000000000000000e+00  9.0900773284505985e-31 -5.6908264773253034e-28 0.0000000000000000e+00  1.0158713848377191e-28 -1.6089645709522537e-27 0.0000000000000000e+00  -1.3809573342031537e-28 1.5621438553239398e-27 0.0000000000000000e+00  -1.5223114885139959e-28 1.4520102275485172e-27 0.0000000000000000e+00  2.2700410261631044e-28 -1.6899880847868082e-27 0.0000000000000000e+00  9.8906755263934770e-29 -4.4013120428423372e-28 0.0000000000000000e+00  2.9811183420205010e-28 -2.1364413616444457e-27 0.0000000000000000e+00  -3.2922047044866275e-29 1.0437807228861444e-27 0.0000000000000000e+00  7.1734746604594843e-30 3.0525259008404594e-28 0.0000000000000000e+00  2.7855367412623688e-28 -1.0275506513946260e-27 0.0000000000000000e+00  1.4594943112034589e-28 -5.1936791035715888e-28 0.0000000000000000e+00  4.9099601148087043e-28 -2.5634661559823995e-27 0.0000000000000000e+00  7.2038900942911338e-28 -3.3930932372201476e-27 0.0000000000000000e+00  9.5279989038745405e-28 -4.4367697071531815e-27 0.0000000000000000e+00  2.6561326108780172e-28 -1.1626321761129846e-27 0.0000000000000000e+00  -3.5494471646903649e-28 1.3956791850781377e-27 0.0000000000000000e+00  -6.1508815947771827e-28 2.4088355610579499e-27 0.0000000000000000e+00  -6.9437763033816226e-28 2.5815628668552956e-27 0.0000000000000000e+00  -1.6370122583062506e-28 5.9196553894865524e-28 0.0000000000000000e+00  1.5411907160559473e-28 -5.0819963667130804e-28 0.0000000000000000e+00  1.2298428484406838e-28 -4.3380725607682735e-28 0.0000000000000000e+00  5.1409142938849407e-28 -1.6349360693262688e-27 0.0000000000000000e+00  2.2204274504749359e-28 -6.5233376246166824e-28 0.0000000000000000e+00  -1.8624281184876783e-28 5.4337102769875568e-28 0.0000000000000000e+00  -1.0879578747317450e-29 1.2660035792106573e-29 0.0000000000000000e+00  2.3849492278191539e-29 -5.8656865437585682e-29 0.0000000000000000e+00  5.4203341376256673e-29 -1.2907622827525890e-28 0.0000000000000000e+00  -1.1958893201323467e-29 2.6952191004948920e-29 0.0000000000000000e+00  -1.7640675496259495e-29 3.7945260348708964e-29 0.0000000000000000e+00  1.2602