<?xml version="1.0"?>
<VTKFile type="UnstructuredGrid"  version="0.1"  >
<UnstructuredGrid>
<Piece  NumberOfPoints="11902" NumberOfCells="23402">
<Points>
<DataArray  type="Float64"  NumberOfComponents="3"  format="ascii">-5 -5 0  5 -5 0  5 5 0  -5 5 0  1.197216567196905 0.001277479223619998 0  -4.9 -5 0  -4.8 -5 0  -4.7 -5 0  -4.6 -5 0  -4.5 -5 0  -4.4 -5 0  -4.3 -5 0  -4.2 -5 0  -4.1 -5 0  -4 -5 0  -3.9 -5 0  -3.8 -5 0  -3.7 -5 0  -3.6 -5 0  -3.5 -5 0  -3.4 -5 0  -3.3 -5 0  -3.2 -5 0  -3.1 -5 0  -3 -5 0  -2.9 -5 0  -2.8 -5 0  -2.7 -5 0  -2.6 -5 0  -2.5 -5 0  -2.4 -5 0  -2.3 -5 0  -2.2 -5 0  -2.1 -5 0  -2 -5 0  -1.9 -5 0  -1.8 -5 0  -1.7 -5 0  -1.6 -5 0  -1.5 -5 0  -1.4 -5 0  -1.3 -5 0  -1.2 -5 0  -1.1 -5 0  -1 -5 0  -0.9000000000000004 -5 0  -0.7999999999999998 -5 0  -0.7000000000000002 -5 0  -0.5999999999999996 -5 0  -0.5 -5 0  -0.4000000000000004 -5 0  -0.2999999999999998 -5 0  -0.2000000000000002 -5 0  -0.09999999999999964 -5 0  0 -5 0  0.09999999999999964 -5 0  0.2000000000000002 -5 0  0.2999999999999998 -5 0  0.4000000000000004 -5 0  0.5 -5 0  0.5999999999999996 -5 0  0.7000000000000002 -5 0  0.7999999999999998 -5 0  0.9000000000000004 -5 0  1 -5 0  1.1 -5 0  1.2 -5 0  1.3 -5 0  1.4 -5 0  1.5 -5 0  1.6 -5 0  1.7 -5 0  1.8 -5 0  1.9 -5 0  2 -5 0  2.1 -5 0  2.2 -5 0  2.3 -5 0  2.4 -5 0  2.5 -5 0  2.6 -5 0  2.7 -5 0  2.8 -5 0  2.9 -5 0  3 -5 0  3.1 -5 0  3.199999999999999 -5 0  3.300000000000001 -5 0  3.4 -5 0  3.5 -5 0  3.6 -5 0  3.699999999999999 -5 0  3.800000000000001 -5 0  3.9 -5 0  4 -5 0  4.1 -5 0  4.199999999999999 -5 0  4.300000000000001 -5 0  4.4 -5 0  4.5 -5 0  4.6 -5 0  4.699999999999999 -5 0  4.800000000000001 -5 0  4.9 -5 0  5 -4.9 0  5 -4.8 0  5 -4.7 0  5 -4.6 0  5 -4.5 0  5 -4.4 0  5 -4.3 0  5 -4.2 0  5 -4.1 0  5 -4 0  5 -3.9 0  5 -3.8 0  5 -3.7 0  5 -3.6 0  5 -3.5 0  5 -3.4 0  5 -3.3 0  5 -3.2 0  5 -3.1 0  5 -3 0  5 -2.9 0  5 -2.8 0  5 -2.7 0  5 -2.6 0  5 -2.5 0  5 -2.4 0  5 -2.3 0  5 -2.2 0  5 -2.1 0  5 -2 0  5 -1.9 0  5 -1.8 0  5 -1.7 0  5 -1.6 0  5 -1.5 0  5 -1.4 0  5 -1.3 0  5 -1.2 0  5 -1.1 0  5 -1 0  5 -0.9000000000000004 0  5 -0.7999999999999998 0  5 -0.7000000000000002 0  5 -0.5999999999999996 0  5 -0.5 0  5 -0.4000000000000004 0  5 -0.2999999999999998 0  5 -0.2000000000000002 0  5 -0.09999999999999964 0  5 0 0  5 0.09999999999999964 0  5 0.2000000000000002 0  5 0.2999999999999998 0  5 0.4000000000000004 0  5 0.5 0  5 0.5999999999999996 0  5 0.7000000000000002 0  5 0.7999999999999998 0  5 0.9000000000000004 0  5 1 0  5 1.1 0  5 1.2 0  5 1.3 0  5 1.4 0  5 1.5 0  5 1.6 0  5 1.7 0  5 1.8 0  5 1.9 0  5 2 0  5 2.1 0  5 2.2 0  5 2.3 0  5 2.4 0  5 2.5 0  5 2.6 0  5 2.7 0  5 2.8 0  5 2.9 0  5 3 0  5 3.1 0  5 3.199999999999999 0  5 3.300000000000001 0  5 3.4 0  5 3.5 0  5 3.6 0  5 3.699999999999999 0  5 3.800000000000001 0  5 3.9 0  5 4 0  5 4.1 0  5 4.199999999999999 0  5 4.300000000000001 0  5 4.4 0  5 4.5 0  5 4.6 0  5 4.699999999999999 0  5 4.800000000000001 0  5 4.9 0  4.9 5 0  4.8 5 0  4.7 5 0  4.6 5 0  4.5 5 0  4.4 5 0  4.3 5 0  4.2 5 0  4.1 5 0  4 5 0  3.9 5 0  3.8 5 0  3.7 5 0  3.6 5 0  3.5 5 0  3.4 5 0  3.3 5 0  3.2 5 0  3.1 5 0  3 5 0  2.9 5 0  2.8 5 0  2.7 5 0  2.6 5 0  2.5 5 0  2.4 5 0  2.3 5 0  2.2 5 0  2.1 5 0  2 5 0  1.9 5 0  1.8 5 0  1.7 5 0  1.6 5 0  1.5 5 0  1.4 5 0  1.3 5 0  1.2 5 0  1.1 5 0  1 5 0  0.9000000000000004 5 0  0.7999999999999998 5 0  0.7000000000000002 5 0  0.5999999999999996 5 0  0.5 5 0  0.4000000000000004 5 0  0.2999999999999998 5 0  0.2000000000000002 5 0  0.09999999999999964 5 0  0 5 0  -0.09999999999999964 5 0  -0.2000000000000002 5 0  -0.2999999999999998 5 0  -0.4000000000000004 5 0  -0.5 5 0  -0.5999999999999996 5 0  -0.7000000000000002 5 0  -0.7999999999999998 5 0  -0.9000000000000004 5 0  -1 5 0  -1.1 5 0  -1.2 5 0  -1.3 5 0  -1.4 5 0  -1.5 5 0  -1.6 5 0  -1.7 5 0  -1.8 5 0  -1.9 5 0  -2 5 0  -2.1 5 0  -2.2 5 0  -2.3 5 0  -2.4 5 0  -2.5 5 0  -2.6 5 0  -2.7 5 0  -2.8 5 0  -2.9 5 0  -3 5 0  -3.1 5 0  -3.199999999999999 5 0  -3.300000000000001 5 0  -3.4 5 0  -3.5 5 0  -3.6 5 0  -3.699999999999999 5 0  -3.800000000000001 5 0  -3.9 5 0  -4 5 0  -4.1 5 0  -4.199999999999999 5 0  -4.300000000000001 5 0  -4.4 5 0  -4.5 5 0  -4.6 5 0  -4.699999999999999 5 0  -4.800000000000001 5 0  -4.9 5 0  -5 4.9 0  -5 4.8 0  -5 4.7 0  -5 4.6 0  -5 4.5 0  -5 4.4 0  -5 4.3 0  -5 4.2 0  -5 4.1 0  -5 4 0  -5 3.9 0  -5 3.8 0  -5 3.7 0  -5 3.6 0  -5 3.5 0  -5 3.4 0  -5 3.3 0  -5 3.2 0  -5 3.1 0  -5 3 0  -5 2.9 0  -5 2.8 0  -5 2.7 0  -5 2.6 0  -5 2.5 0  -5 2.4 0  -5 2.3 0  -5 2.2 0  -5 2.1 0  -5 2 0  -5 1.9 0  -5 1.8 0  -5 1.7 0  -5 1.6 0  -5 1.5 0  -5 1.4 0  -5 1.3 0  -5 1.2 0  -5 1.1 0  -5 1 0  -5 0.9000000000000004 0  -5 0.7999999999999998 0  -5 0.7000000000000002 0  -5 0.5999999999999996 0  -5 0.5 0  -5 0.4000000000000004 0  -5 0.2999999999999998 0  -5 0.2000000000000002 0  -5 0.09999999999999964 0  -5 0 0  -5 -0.09999999999999964 0  -5 -0.2000000000000002 0  -5 -0.2999999999999998 0  -5 -0.4000000000000004 0  -5 -0.5 0  -5 -0.5999999999999996 0  -5 -0.7000000000000002 0  -5 -0.7999999999999998 0  -5 -0.9000000000000004 0  -5 -1 0  -5 -1.1 0  -5 -1.2 0  -5 -1.3 0  -5 -1.4 0  -5 -1.5 0  -5 -1.6 0  -5 -1.7 0  -5 -1.8 0  -5 -1.9 0  -5 -2 0  -5 -2.1 0  -5 -2.2 0  -5 -2.3 0  -5 -2.4 0  -5 -2.5 0  -5 -2.6 0  -5 -2.7 0  -5 -2.8 0  -5 -2.9 0  -5 -3 0  -5 -3.1 0  -5 -3.199999999999999 0  -5 -3.300000000000001 0  -5 -3.4 0  -5 -3.5 0  -5 -3.6 0  -5 -3.699999999999999 0  -5 -3.800000000000001 0  -5 -3.9 0  -5 -4 0  -5 -4.1 0  -5 -4.199999999999999 0  -5 -4.300000000000001 0  -5 -4.4 0  -5 -4.5 0  -5 -4.6 0  -5 -4.699999999999999 0  -5 -4.800000000000001 0  -5 -4.9 0  1.191257872860176 0.09913631885429244 0  1.172563822218183 0.1973385742341367 0  1.141278435252818 0.2946064278551154 0  1.100789433728738 0.3861552352844367 0  1.048147454690594 0.4768382958345607 0  0.9861384840312422 0.5619585634669119 0  0.9132386731335276 0.6417269898765539 0  0.8310627839620297 0.7145463771544117 0  0.7418505752903036 0.7802384608234655 0  0.6445030134678964 0.8387657025565818 0  0.5400517123167944 0.8895878921936563 0  0.4314066881701951 0.9314865781156176 0  0.3204085743917376 0.9642983618858662 0  0.2038908842455546 0.9866995413667023 0  0.08843749740440651 1.001270617128746 0  -0.02769968950159394 1.004040457566697 0  -0.1440089939610003 0.9943310927615649 0  -0.261604129304873 0.9766626326038983 0  -0.3759261394392112 0.9504720759757447 0  -0.4851556909370755 0.9139497891300167 0  -0.589638924534557 0.8683783187902953 0  -0.6890392638032111 0.8136538872498258 0  -0.7813246203720583 0.750747588616101 0  -0.8670792249939671 0.6802353134640912 0  -0.9454979123454754 0.6021525984799895 0  -1.013575846191745 0.5197179830918515 0  -1.07216663863993 0.4327736674389886 0  -1.119471107615517 0.3406465775044037 0  -1.154940654837448 0.2465490371800198 0  -1.178790066568287 0.1499485575896996 0  -1.190880005537445 0.05078715144160582 0  -1.190875914827473 -0.04904181348452077 0  -1.178729131337117 -0.1478743800806273 0  -1.155779886588572 -0.2444742374021523 0  -1.118959968316006 -0.3402803580620464 0  -1.072528740535579 -0.4315608825360437 0  -1.014561570682214 -0.5188060911960894 0  -0.9470049038719713 -0.6007969717680266 0  -0.8688972656120971 -0.6777151364052055 0  -0.7827350196920988 -0.7472411680830496 0  -0.6891630147789994 -0.8085344010898065 0  -0.5898468939483231 -0.8628713414557527 0  -0.4824379839109378 -0.9096662776161515 0  -0.3726713823993861 -0.9476916085624004 0  -0.2587705620196976 -0.9753086123870933 0  -0.1426127650958409 -0.9934146595221005 0  -0.02728924295281566 -1.003169230734721 0  0.08904976152070669 -0.9987838616359274 0  0.2067499353945854 -0.9844273380333491 0  0.3220100081928528 -0.9626323004501927 0  0.4347741326833728 -0.9300646507602066 0  0.5417088980651096 -0.8886268860867681 0  0.6452246090247815 -0.8383559046284135 0  0.7420227990408428 -0.7812085329879409 0  0.8311285874373608 -0.7152552892433337 0  0.9127405673326359 -0.6411680308882219 0  0.9847179084758221 -0.5612967559677438 0  1.048006969408053 -0.4762773710957175 0  1.101823794341482 -0.3862251828923524 0  1.142694062722169 -0.2931686308025447 0  1.172819236637338 -0.1965106514748471 0  1.19127862366063 -0.09867313820028034 0  -2.44879017594216 4.918534859293668 0  -2.448685084733015 -4.91095139221673 0  4.910886127781271 2.448220826798081 0  4.918969773097159 -2.449652818357482 0  2.446455370161898 -4.896262432364479 0  2.440879539182376 4.900007921019384 0  -4.910909510382829 -2.448243753532353 0  -4.910907818842888 2.448247624596597 0  -1.748753097928939 4.911609881709516 0  -1.744529662084156 -4.915027494119279 0  4.92118616541916 1.744364964257382 0  4.909797824938541 -1.748169242712912 0  -4.910084900227496 -1.747898572636376 0  -4.910902592362463 1.747639966293759 0  1.746040789219314 4.905511242089283 0  1.747484053792174 -4.893733486203147 0  -1.149016006047782 4.909520635294512 0  -1.129854367335455 -4.917376306037574 0  -4.909963022156993 -1.148168374024032 0  -4.90978382227029 1.147968500456065 0  1.143999221639718 -4.913589910118581 0  1.149023589220848 4.909509239578586 0  4.910109424925316 1.146445684100755 0  4.920846733661349 -1.152199665549209 0  -0.5467602864307944 -4.910772793527657 0  -0.5465329891456652 4.919387308821912 0  -4.908824822778417 -0.5488423149724301 0  -4.908849260231749 0.5473985341426645 0  4.908159128164875 -0.5491631416338245 0  4.919703210125128 0.5459023097268854 0  0.5425509862768441 -4.8977611168864 0  0.5512634729536552 4.916236649804169 0  -4.912188024915801 -3.04854586971424 0  4.918739498352641 3.046545640371775 0  4.91169908417957 -3.048525570559006 0  -4.913034399486961 3.045635343396127 0  3.055491996004089 -4.917676651474808 0  -3.048836807442532 -4.911632690241524 0  3.052399782533997 4.913704827593741 0  -3.048281485443127 4.912519705922744 0  -4.907981285549019 -0.04992104515954481 0  0.04512571512204248 -4.912729260011204 0  0.04957363070606104 4.919698440463447 0  4.914973802852637 -0.05130231307613953 0  3.545769802551115 -4.919232121801832 0  -3.54906390
[...]
<PointData  Vectors="f_2322"> 
<DataArray  type="Float64"  Name="f_2322"  NumberOfComponents="3" format="ascii">-1.2740065287757218e-40 -1.4135614145578711e-40 0.0000000000000000e+00  1.5398464086462943e-40 -1.6523990491114626e-40 0.0000000000000000e+00  -2.1076111957532437e-40 -2.0699295978026377e-40 0.0000000000000000e+00  -2.4888747917678025e-40 2.5344971369755734e-40 0.0000000000000000e+00  1.5672701958978912e+01 -2.3090875555397419e-01 0.0000000000000000e+00  2.9567669650418120e-40 3.1517609105177920e-40 0.0000000000000000e+00  7.3468558989975980e-40 7.6437509236390037e-40 0.0000000000000000e+00  -1.6597185545042902e-39 -1.8714697035415230e-39 0.0000000000000000e+00  1.6037763286186127e-38 1.8226251919017575e-38 0.0000000000000000e+00  -5.2052997713861678e-38 -5.8574876348068100e-38 0.0000000000000000e+00  1.9346434302035155e-37 2.3000284008162448e-37 0.0000000000000000e+00  -6.9391768426651846e-37 -8.5841883442601699e-37 0.0000000000000000e+00  4.1317528337694155e-36 5.2152383143523478e-36 0.0000000000000000e+00  -2.5783855891849683e-35 -3.2347695471141408e-35 0.0000000000000000e+00  1.0515599755370876e-34 1.3447439083297311e-34 0.0000000000000000e+00  -2.2927931966342291e-34 -2.9471485705904498e-34 0.0000000000000000e+00  4.6119638624497211e-34 5.8792638510385607e-34 0.0000000000000000e+00  1.6715812464625203e-33 2.1791227356498585e-33 0.0000000000000000e+00  -7.3404767157194863e-33 -1.0077132969745736e-32 0.0000000000000000e+00  2.0589219284377337e-32 3.0051265143287360e-32 0.0000000000000000e+00  -1.1870677928706905e-31 -1.7360397100444367e-31 0.0000000000000000e+00  3.1346646578797117e-31 4.6124804036270471e-31 0.0000000000000000e+00  1.9092886124614281e-31 2.8431272911115474e-31 0.0000000000000000e+00  -1.5705274661429473e-30 -2.3541978113957688e-30 0.0000000000000000e+00  -6.7968626416684417e-31 -1.1990235572203560e-30 0.0000000000000000e+00  -1.6074052283168379e-30 -2.8931003178090967e-30 0.0000000000000000e+00  4.5024734263646246e-30 8.2234766939805676e-30 0.0000000000000000e+00  -1.0294744385070354e-29 -2.3616826128620761e-29 0.0000000000000000e+00  3.6587299298777364e-29 7.6378523562884048e-29 0.0000000000000000e+00  2.1103835172956033e-29 4.7226409694924966e-29 0.0000000000000000e+00  -1.8280321577035501e-28 -3.9366464033378282e-28 0.0000000000000000e+00  -6.5266138351765351e-29 -1.5438471848465431e-28 0.0000000000000000e+00  -1.1049221846248632e-28 -3.0211581020187191e-28 0.0000000000000000e+00  1.8384483541731580e-28 4.6161991486627961e-28 0.0000000000000000e+00  5.3432706018312168e-28 1.4597325323008824e-27 0.0000000000000000e+00  -2.3686075295384045e-29 -1.0082860937363507e-28 0.0000000000000000e+00  1.5038551557756960e-28 4.1372933008956097e-28 0.0000000000000000e+00  -8.7861125771421009e-29 -2.6604709028787847e-28 0.0000000000000000e+00  -4.8077362778099790e-28 -1.4610047024983548e-27 0.0000000000000000e+00  -4.4292004357803660e-28 -1.4421987018448920e-27 0.0000000000000000e+00  -1.3757311764242140e-29 -1.3366802934553798e-28 0.0000000000000000e+00  4.6189662675947700e-28 1.7134196661898859e-27 0.0000000000000000e+00  2.7127461022921672e-28 1.0283766363763145e-27 0.0000000000000000e+00  -1.6386960901378331e-29 -1.7202771416099900e-28 0.0000000000000000e+00  1.0931631611994535e-28 4.1842434135406484e-28 0.0000000000000000e+00  4.1903707725637391e-29 1.0482382958074087e-27 0.0000000000000000e+00  1.6290786321308238e-28 1.7650167205390264e-27 0.0000000000000000e+00  -4.9431515092036802e-29 -1.0384177976501075e-27 0.0000000000000000e+00  4.7999833937918238e-28 5.6402250150428171e-27 0.0000000000000000e+00  -1.1635860655633672e-28 -1.3080883467744477e-29 0.0000000000000000e+00  -4.8672927374565119e-28 -4.8282449652460467e-27 0.0000000000000000e+00  -3.1884614209440078e-28 -2.7754086920444069e-27 0.0000000000000000e+00  -2.5632614186297800e-28 -3.9893537361931367e-27 0.0000000000000000e+00  -1.6849306964475141e-28 -1.0133220532138629e-26 0.0000000000000000e+00  -5.0870776673082070e-30 -1.1615076334409706e-26 0.0000000000000000e+00  -7.0852697276061959e-30 -1.9992207021257970e-27 0.0000000000000000e+00  9.4053767260962604e-29 -6.2713066338946306e-27 0.0000000000000000e+00  1.0587042937473635e-28 -2.2174481236304912e-27 0.0000000000000000e+00  2.7884004502541315e-28 -4.0328667645420563e-27 0.0000000000000000e+00  -1.6853779618923120e-28 1.8986230273855918e-27 0.0000000000000000e+00  5.8753314477842138e-28 -5.3850682282450790e-27 0.0000000000000000e+00  6.9963071385722389e-28 -4.8947426796364454e-27 0.0000000000000000e+00  -1.0451665933393454e-28 1.0466011911667823e-27 0.0000000000000000e+00  -1.1734884764257202e-27 7.3786674535276611e-27 0.0000000000000000e+00  -5.4484580730095010e-28 2.9336145960664881e-27 0.0000000000000000e+00  -3.6777577336077851e-28 1.6706411198297611e-27 0.0000000000000000e+00  -9.3167095734886759e-28 4.2289325231050933e-27 0.0000000000000000e+00  -5.4803418649578395e-28 2.2374984480693612e-27 0.0000000000000000e+00  6.1083680680968354e-28 -2.5502885826829883e-27 0.0000000000000000e+00  3.4501293004626895e-28 -1.1984010797959469e-27 0.0000000000000000e+00  7.3165554594522351e-29 -2.2367875254766591e-28 0.0000000000000000e+00  3.1690119451171593e-28 -9.0162222325240122e-28 0.0000000000000000e+00  2.4353766187939229e-28 -7.0623891339819815e-28 0.0000000000000000e+00  -2.0952094279468043e-28 6.0081643024842272e-28 0.0000000000000000e+00  -1.4444780563714986e-28 3.9228202146043945e-28 0.0000000000000000e+00  -1.1045138935464205e-28 2.8402008687930875e-28 0.0000000000000000e+00  1.8471887721093550e-29 -5.4295610210263645e-29 0.0000000000000000e+00  7.7630156600361978e-29 -1.8596491097443928e-28 0.0000000000000000e+00  1.1188282926388973e-28 -2.5023223907823679e-28 0.0000000000000000e+00  -6.5933682779995923e-30 1.3788560803213558e-29 0.0000000000000000e+00  -8.1789517530111813e-29 1.6837477675066493e-28 0.0000000000000000e+00  1.3339830041531145e-29 -2.7409413564300741e-29 0.0000000000000000e+00  4.5518097904385099e-30 -8.6601803517915194e-30 0.0000000000000000e+00  -1.2850694998161441e-29 2.2981672369504921e-29 0.0000000000000000e+00  -1.0986796593174221e-30 1.5872700280567856e-30 0.0000000000000000e+00  1.5064053628467206e-30 -2.4334586646520777e-30 0.0000000000000000e+00  -7.6296216477164634e-31 1.2051218310345219e-30 0.0000000000000000e+00  9.9825107043274920e-32 -1.5819896626312444e-31 0.0000000000000000e+00  -1.1492681874821804e-32 1.7698408873953520e-32 0.0000000000000000e+00  -1.1589401512503787e-33 1.5799764432102964e-33 0.0000000000000000e+00  6.4387405227818352e-33 -8.6851048257782933e-33 0.0000000000000000e+00  2.3297329052985784e-34 -2.5134574226804148e-34 0.0000000000000000e+00  -3.6983277072606758e-34 4.6980800281672429e-34 0.0000000000000000e+00  3.9317937669524914e-35 -4.8577380316538676e-35 0.0000000000000000e+00  -1.4597257781547994e-35 1.8587000142931136e-35 0.0000000000000000e+00  3.8244517812134030e-36 -4.6392097094707328e-36 0.0000000000000000e+00  -1.5386807183861233e-36 1.7439892458658646e-36 0.0000000000000000e+00  4.8068068896737358e-37 -5.4938987760370001e-37 0.0000000000000000e+00  -2.3910812062878761e-37 2.6404324609084715e-37 0.0000000000000000e+00  8.0037991015390896e-38 -8.6641353929155511e-38 0.0000000000000000e+00  -1.5729358320651084e-38 1.7034738402492699e-38 0.0000000000000000e+00  6.3110457012197620e-39 -6.6304099009296797e-39 0.0000000000000000e+00  -4.2493960300031601e-40 4.2394225751156305e-40 0.0000000000000000e+00  -2.6708999935130080e-40 2.8693395275956245e-40 0.0000000000000000e+00  -4.1977087281293641e-42 3.9122474885012316e-42 0.0000000000000000e+00  3.7896773306509831e-40 -3.4334945060938022e-40 0.0000000000000000e+00  -8.6445019362366461e-40 7.6489318384515805e-40 0.0000000000000000e+00  3.0549576653706987e-39 -2.7935263190423825e-39 0.0000000000000000e+00  -1.5957647083553415e-39 1.6613920381893791e-39 0.0000000000000000e+00  -1.4876221888031015e-38 1.2376915037388506e-38 0.0000000000000000e+00  5.5694989455474368e-38 -4.7217622271989544e-38 0.0000000000000000e+00  -7.2002758328191403e-38 6.2608813172962410e-38 0.0000000000000000e+00  -1.4389107875871406e-37 1.0919859172626965e-37 0.0000000000000000e+00  8.7023111289882062e-37 -6.8649287817092865e-37 0.0000000000000000e+00  -1.4715088735973923e-36 1.1753783037981525e-36 0.0000000000000000e+00  -1.4000241415453520e-36 9.6341783776596337e-37 0.0000000000000000e+00  1.2086813017086890e-35 -8.9146307621647578e-36 0.0000000000000000e+00  -2.2839261174811508e-35 1.6867145018238434e-35 0.0000000000000000e+00  -1.8032536981985746e-35 1.1785909569713979e-35 0.0000000000000000e+00  1.7498379989343858e-34 -1.2038537077716536e-34 0.0000000000000000e+00  -2.7510356045837950e-34 1.8947743124905421e-34 0.0000000000000000e+00  -3.9045307474835996e-34 2.4880101727001693e-34 0.0000000000000000e+00  2.3601703221727772e-33 -1.5085092008370252e-33 0.0000000000000000e+00  -2.2785319063129648e-33 1.4514797571209786e-33 0.0000000000000000e+00  -8.6463043200529010e-33 5.1831768279626796e-33 0.0000000000000000e+00  2.6892484751583740e-32 -1.5909479822638747e-32 0.0000000000000000e+00  3.0886213950030014e-33 -1.4779327931407016e-33 0.0000000000000000e+00  -1.4729370391075838e-31 8.1247255261259850e-32 0.0000000000000000e+00  1.9174845015862857e-31 -1.0229337949644111e-31 0.0000000000000000e+00  4.9697093496185486e-31 -2.5630888380380734e-31 0.0000000000000000e+00  -1.4556260857755844e-30 7.2219146743112761e-31 0.0000000000000000e+00  -8.7493388618327910e-31 4.3256291532080390e-31 0.0000000000000000e+00  7.8262402166705808e-30 -3.6049886357996567e-30 0.0000000000000000e+00  -2.2143073652937204e-30 8.4888249745454870e-31 0.0000000000000000e+00  -3.4735868915563810e-29 1.4807906025338859e-29 0.0000000000000000e+00  2.8457163957073385e-29 -1.0540264002780255e-29 0.0000000000000000e+00  1.4213003566176482e-28 -5.6154657960233549e-29 0.0000000000000000e+00  -1.6051941971005877e-28 5.2956569502174311e-29 0.0000000000000000e+00  -5.9431350815871241e-28 2.1440841238556727e-28 0.0000000000000000e+00  6.3119573213342343e-28 -1.7623756222153840e-28 0.0000000000000000e+00  2.4809790200696356e-27 -7.9869004299099694e-28 0.0000000000000000e+00  -1.8999392934666115e-27 3.7499676351054065e-28 0.0000000000000000e+00  -9.5803262203044898e-27 2.5107713876911072e-27 0.0000000000000000e+00  2.6066405660222257e-27 1.2118089594533805e-28 0.0000000000000000e+00  3.0193487832877077e-26 -6.0024057631054225e-27 0.0000000000000000e+00  1.4695628809942576e-26 -4.1616981807224422e-27 0.0000000000000000e+00  -8.5121840894648987e-26 1.2036911981144867e-26 0.0000000000000000e+00  -1.2902727429265139e-25 1.7685614802393514e-26 0.0000000000000000e+00  1.4262696497656552e-25 -2.2443629029499696e-26 0.0000000000000000e+00  8.3230254701945221e-25 -1.0343151176097391e-25 0.0000000000000000e+00  1.5128058740767118e-24 -1.5722446744776362e-25 0.0000000000000000e+00  1.8361721507556663e-24 -1.4659249360316162e-25 0.0000000000000000e+00  1.7866234649461617e-24 -7.7854290506693425e-26 0.0000000000000000e+00  1.7981718030957198e-24 7.8638905896916318e-27 0.0000000000000000e+00  1.9185153918226323e-24 8.8952579992277325e-26 0.0000000000000000e+00  1.7778896590926395e-24 1.3150386331874610e-25 0.0000000000000000e+00  1.1698580505155488e-24 1.0896600537164876e-25 0.0000000000000000e+00  3.5655166918442267e-25 3.7519690768291283e-26 0.0000000000000000e+00  -1.4468753519919511e-25 -2.0673612538443796e-26 0.0000000000000000e+00  -1.9932494045826692e-25 -2.8766585006413391e-26 0.0000000000000000e+00  -3.5404474459467590e-26 -3.1378534186879201e-27 0.0000000000000000e+00  5.6959061671087088e-26 1.2892605931719974e-26 0.0000000000000000e+00  3.4893260678186823e-26 7.7563897590171953e-27 0.0000000000000000e+00  -4.7205436647760152e-27 -1.3647395678521192e-27 0.0000000000000000e+00  -1.0020871047975925e-26 -2.6417957150602728e-27 0.0000000000000000e+00  -5.8272755570191818e-28 -1.1063536151031796e-28 0.0000000000000000e+00  2.5383494182484305e-27 7.6970573333113585e-28 0.0000000000000000e+00  3.2715476466887706e-28 9.4314961378172790e-29 0.0000000000000000e+00  -6.0858686372526114e-28 -2.0613794211439371e-28 0.0000000000000000e+00  -7.3427461174082889e-29 -2.3895088928829526e-29 0.0000000000000000e+00  1.4144901956665360e-28 5.3090701152965115e-29 0.0000000000000000e+00  4.0942978361695476e-30 1.0706340119576139e-30 0.0000000000000000e+00  -3.1389412130641065e-29 -1.2882328029749321e-29 0.0000000000000000e+00  3.0515620292698554e-30 1.4564750595619918e-30 0.0000000000000000e+00  5.9041553621256654e-30 2.6427319454766281e-30 0.0000000000000000e+00  -1.7904317720207744e-30 -8.6565409941744326e-31 0.0000000000000000e+00  -8.5749892696601426e-31 -4.0936089395228481e-31 0.0000000000000000e+00  5.6385868800198120e-31 2.9099416222774932e-31 0.0000000000000000e+00  2.8075101513575144e-32 1.2152593975065627e-32 0.0000000000000000e+00  -1.2209652980035157e-31 -6.6840145816504098e-32 0.0000000000000000e+00  2.7591877249943240e-32 1.6134747665514135e-32 0.0000000000000000e+00  1.7333097544927074e-32 9.9792637527916094e-33 0.0000000000000000e+00  -1.1073561677208925e-32 -6.7247221790723166e-33 0.0000000000000000e+00  1.6327783209674035e-34 1.2872908857600602e-34 0.0000000000000000e+00  1.9767905466418152e-33 1.2742536431088301e-33 0.0000000000000000e+00  -7.4603099013148825e-34 -4.9522626738494456e-34 0.0000000000000000e+00  -1.0373041039182543e-34 -7.1235838379257882e-35 0.0000000000000000e+00  1.7819265901355337e-34 1.2475612302150599e-34 0.0000000000000000e+00  -5.0218581522213946e-35 -3.5881064636596862e-35 0.0000000000000000e+00  -1.1394308957097515e-35 -8.5827094916543918e-36 0.0000000000000000e+00  1.3046663488780578e-35 9.8672833257972123e-36 0.0000000000000000e+00  -3.4333681901453812e-36 -2.6073595882252000e-36 0.0000000000000000e+00  -7.7218983972286897e-37 -6.3783602933152620e-37 0.0000000000000000e+00  9.0322736537751320e-37 7.3356596943909396e-37 0.0000000000000000e+00  -2.6604727066946003e-37 -2.1577135427006301e-37 0.0000000000000000e+00  -2.8829757451668352e-38 -2.7199615254763380e-38 0.0000000000000000e+00  5.5636525994594187e-38 4.8681754152207130e-38 0.0000000000000000e+00  -2.1671558649070396e-38 -1.8845032351581562e-38 0.0000000000000000e+00  1.0634723474697854e-39 6.9050804838065574e-40 0.0000000000000000e+00  2.8790804224145480e-39 2.7275933661338354e-39 0.0000000000000000e+00  -1.5536414527612378e-39 -1.4483035156767327e-39 0.0000000000000000e+00  3.4944071848274028e-40 3.1848733086551274e-40 0.0000000000000000e+00  1.4664788150188219e-40 1.5524781961211119e-40 0.0000000000000000e+00  3.2259736211199237e-40 3.2384995562417179e-40 0.0000000000000000e+00  -8.7366962521207612e-40 -9.4752613624370282e-40 0.0000000000000000e+00  1.7512866333987396e-39 1.9401725476237192e-39 0.0000000000000000e+00  -1.1808466827595855e-38 -1.3183117237652462e-38 0.0000000000000000e+00  8.9149503451055122e-38 9.5214074080630161e-38 0.0000000000000000e+00  -2.2070990404921088e-37 -2.2882899425697540e-37 0.0000000000000000e+00  2.6776748264361966e-37 2.8878013638594655e-37 0.0000000000000000e+00  -3.7670076056779893e-36 -4.4064203605653257e-36 0.0000000000000000e+00  1.1078861654986200e-35 1.3968228325315698e-35 0.0000000000000000e+00  -4.5617599172117128e-35 -6.0623029177676697e-35 0.0000000000000000e+00  1.0100096734449652e-34 1.3601285892972697e-34 0.0000000000000000e+00  -1.8337800637823838e-34 -2.7071051803459426e-34 0.0000000000000000e+00  1.0558039094412117e-33 1.4608900482083160e-33 0.0000000000000000e+00  -6.0055146119438097e-34 -8.1621245138005970e-34 0.0000000000000000e+00  3.7950386506469035e-33 5.5213416187055547e-33 0.0000000000000000e+00  3.7549535334081893e-32 5.4538125872354684e-32 0.0000000000000000e+00  -1.6841257070251395e-31 -2.4598642262414284e-31 0.0000000000000000e+00  -5.1119452024405414e-31 -7.7896069169386727e-31 0.0000000000000000e+00  1.0508064676687626e-30 1.6089349047511674e-30 0.0000000000000000e+00  -2.9655144187963050e-31 -4.1879063300167969e-31 0.0000000000000000e+00  -2.9697830708753287e-30 -5.3748639382855059e-30 0.0000000000000000e+00  8.9019944926284463e-30 1.7485358232317054e-29 0.0000000000000000e+00  1.2893270509668927e-29 2.6293645464197807e-29 0.0000000000000000e+00  -8.1999165217966491e-29 -1.6986334201050007e-28 0.0000000000000000e+00  2.6285408540186980e-29 5.2782765888675192e-29 0.0000000000000000e+00  9.2830766342418644e-29 1.9072565148591626e-28 0.0000000000000000e+00  2.7934175902552309e-29 7.2725544662588158e-29 0.0000000000000000e+00  2.4851339764607534e-28 6.3879772311181765e-28 0.0000000000000000e+00  1.0923689444378292e-28 2.9681989341808126e-28 0.0000000000000000e+00  -2.7332407415351008e-28 -7.2845326963167439e-28 0.0000000000000000e+00  -3.8070191829306182e-28 -1.0961677456224724e-27 0.0000000000000000e+00  3.1988647813037292e-28 9.4672365806605126e-28 0.0000000000000000e+00  5.5728611291316782e-28 1.7609384454643614e-27 0.0000000000000000e+00  3.4013581929180410e-28 1.1759776597575824e-27 0.0000000000000000e+00  1.5788208773619454e-28 5.7120496544954952e-28 0.0000000000000000e+00  -6.3765173211995242e-28 -2.4106327857893911e-27 0.0000000000000000e+00  -1.8011116003880337e-28 -7.2997387014356546e-28 0.0000000000000000e+00  -5.7288596414540165e-29 -2.7227392428548634e-28 0.0000000000000000e+00  -3.0443968204244532e-28 -1.4801512656639892e-27 0.0000000000000000e+00  -2.5897721413100205e-28 -1.3786759262960751e-27 0.0000000000000000e+00  -3.3441909229457187e-28 -2.0556617357463017e-27 0.0000000000000000e+00  -1.0316939500552985e-28 -7.0673506760721324e-28 0.0000000000000000e+00  1.7471078660415227e-28 1.3961894397985214e-27 0.0000000000000000e+00  -2.9290695501747463e-29 -1.7281501754975542e-28 0.0000000000000000e+00  -1.6731398528832688e-28 -2.1539158648696666e-27 0.0000000000000000e+00  2.5487194328941816e-29 6.9683947055901243e-28 0.0000000000000000e+00  1.6793009513779160e-30 5.6192907147020717e-28 0.0000000000000000e+00  -1.8078543542215977e-29 -1.4028735357495766e-27 0.0000000000000000e+00  -1.0534069675653735e-30 -4.7346407852596644e-28 0.0000000000000000e+00  6.7720645417723144e-29 -1.5355536947878392e-27 0.0000000000000000e+00  -1.0662018714353197e-28 1.7095651193692937e-27 0.0000000000000000e+00  -1.3506887447513831e-28 1.5893381765867265e-27 0.0000000000000000e+00  1.7373111097659299e-28 -1.6382912310843271e-27 0.0000000000000000e+00  6.2043414566265566e-29 -3.6324408769264977e-28 0.0000000000000000e+00  2.7292310474846401e-28 -2.1500860974947283e-27 0.0000000000000000e+00  -1.0597729619203322e-28 1.2173573819128134e-27 0.0000000000000000e+00  -4.3546639476838275e-29 4.2126407861700208e-28 0.0000000000000000e+00  2.0326482976913537e-28 -9.1508577882115715e-28 0.0000000000000000e+00  9.3371028249183629e-29 -4.3030150945396457e-28 0.0000000000000000e+00  5.0705913060608472e-28 -2.5871530917167944e-27 0.0000000000000000e+00  7.1381306174369717e-28 -3.3384956539070103e-27 0.0000000000000000e+00  1.0184701559221496e-27 -4.4457906421482309e-27 0.0000000000000000e+00  3.0163013614282882e-28 -1.1885987451786129e-27 0.0000000000000000e+00  -3.4174077049699478e-28 1.3256380182459453e-27 0.0000000000000000e+00  -6.7083206542653817e-28 2.4092449712253652e-27 0.0000000000000000e+00  -7.7220299128171588e-28 2.6019961194622921e-27 0.0000000000000000e+00  -1.9587408285409231e-28 6.1738330251227734e-28 0.0000000000000000e+00  1.5741453831594999e-28 -4.8510885997807722e-28 0.0000000000000000e+00  1.4632854631343260e-28 -4.5597828219704514e-28 0.0000000000000000e+00  6.0740687142396746e-28 -1.7020413753021159e-27 0.0000000000000000e+00  2.5820075109541197e-28 -6.7398478319550109e-28 0.0000000000000000e+00  -2.1527333076664037e-28 5.5632898890592064e-28 0.0000000000000000e+00  -1.0860303724799072e-29 1.7247619957487494e-29 0.0000000000000000e+00  2.6147318477828541e-29 -6.0841516054212232e-29 0.0000000000000000e+00  6.1302658338664372e-29 -1.3488786292071796e-28 0.0000000000000000e+00  -1.3159524219795371e-29 2.8028675211480324e-29 0.0000000000000000e+00  -1.9374381018602845e-29 3.9010047680943503e-29 0.0000000000000000e+00  1.547