<?xml version="1.0"?>
<VTKFile type="UnstructuredGrid"  version="0.1"  >
<UnstructuredGrid>
<Piece  NumberOfPoints="11902" NumberOfCells="23402">
<Points>
<DataArray  type="Float64"  NumberOfComponents="3"  format="ascii">-5 -5 0  5 -5 0  5 5 0  -5 5 0  1.173324282264175 0.001150423943899453 0  -4.9 -5 0  -4.8 -5 0  -4.7 -5 0  -4.6 -5 0  -4.5 -5 0  -4.4 -5 0  -4.3 -5 0  -4.2 -5 0  -4.1 -5 0  -4 -5 0  -3.9 -5 0  -3.8 -5 0  -3.7 -5 0  -3.6 -5 0  -3.5 -5 0  -3.4 -5 0  -3.3 -5 0  -3.2 -5 0  -3.1 -5 0  -3 -5 0  -2.9 -5 0  -2.8 -5 0  -2.7 -5 0  -2.6 -5 0  -2.5 -5 0  -2.4 -5 0  -2.3 -5 0  -2.2 -5 0  -2.1 -5 0  -2 -5 0  -1.9 -5 0  -1.8 -5 0  -1.7 -5 0  -1.6 -5 0  -1.5 -5 0  -1.4 -5 0  -1.3 -5 0  -1.2 -5 0  -1.1 -5 0  -1 -5 0  -0.9000000000000004 -5 0  -0.7999999999999998 -5 0  -0.7000000000000002 -5 0  -0.5999999999999996 -5 0  -0.5 -5 0  -0.4000000000000004 -5 0  -0.2999999999999998 -5 0  -0.2000000000000002 -5 0  -0.09999999999999964 -5 0  0 -5 0  0.09999999999999964 -5 0  0.2000000000000002 -5 0  0.2999999999999998 -5 0  0.4000000000000004 -5 0  0.5 -5 0  0.5999999999999996 -5 0  0.7000000000000002 -5 0  0.7999999999999998 -5 0  0.9000000000000004 -5 0  1 -5 0  1.1 -5 0  1.2 -5 0  1.3 -5 0  1.4 -5 0  1.5 -5 0  1.6 -5 0  1.7 -5 0  1.8 -5 0  1.9 -5 0  2 -5 0  2.1 -5 0  2.2 -5 0  2.3 -5 0  2.4 -5 0  2.5 -5 0  2.6 -5 0  2.7 -5 0  2.8 -5 0  2.9 -5 0  3 -5 0  3.1 -5 0  3.199999999999999 -5 0  3.300000000000001 -5 0  3.4 -5 0  3.5 -5 0  3.6 -5 0  3.699999999999999 -5 0  3.800000000000001 -5 0  3.9 -5 0  4 -5 0  4.1 -5 0  4.199999999999999 -5 0  4.300000000000001 -5 0  4.4 -5 0  4.5 -5 0  4.6 -5 0  4.699999999999999 -5 0  4.800000000000001 -5 0  4.9 -5 0  5 -4.9 0  5 -4.8 0  5 -4.7 0  5 -4.6 0  5 -4.5 0  5 -4.4 0  5 -4.3 0  5 -4.2 0  5 -4.1 0  5 -4 0  5 -3.9 0  5 -3.8 0  5 -3.7 0  5 -3.6 0  5 -3.5 0  5 -3.4 0  5 -3.3 0  5 -3.2 0  5 -3.1 0  5 -3 0  5 -2.9 0  5 -2.8 0  5 -2.7 0  5 -2.6 0  5 -2.5 0  5 -2.4 0  5 -2.3 0  5 -2.2 0  5 -2.1 0  5 -2 0  5 -1.9 0  5 -1.8 0  5 -1.7 0  5 -1.6 0  5 -1.5 0  5 -1.4 0  5 -1.3 0  5 -1.2 0  5 -1.1 0  5 -1 0  5 -0.9000000000000004 0  5 -0.7999999999999998 0  5 -0.7000000000000002 0  5 -0.5999999999999996 0  5 -0.5 0  5 -0.4000000000000004 0  5 -0.2999999999999998 0  5 -0.2000000000000002 0  5 -0.09999999999999964 0  5 0 0  5 0.09999999999999964 0  5 0.2000000000000002 0  5 0.2999999999999998 0  5 0.4000000000000004 0  5 0.5 0  5 0.5999999999999996 0  5 0.7000000000000002 0  5 0.7999999999999998 0  5 0.9000000000000004 0  5 1 0  5 1.1 0  5 1.2 0  5 1.3 0  5 1.4 0  5 1.5 0  5 1.6 0  5 1.7 0  5 1.8 0  5 1.9 0  5 2 0  5 2.1 0  5 2.2 0  5 2.3 0  5 2.4 0  5 2.5 0  5 2.6 0  5 2.7 0  5 2.8 0  5 2.9 0  5 3 0  5 3.1 0  5 3.199999999999999 0  5 3.300000000000001 0  5 3.4 0  5 3.5 0  5 3.6 0  5 3.699999999999999 0  5 3.800000000000001 0  5 3.9 0  5 4 0  5 4.1 0  5 4.199999999999999 0  5 4.300000000000001 0  5 4.4 0  5 4.5 0  5 4.6 0  5 4.699999999999999 0  5 4.800000000000001 0  5 4.9 0  4.9 5 0  4.8 5 0  4.7 5 0  4.6 5 0  4.5 5 0  4.4 5 0  4.3 5 0  4.2 5 0  4.1 5 0  4 5 0  3.9 5 0  3.8 5 0  3.7 5 0  3.6 5 0  3.5 5 0  3.4 5 0  3.3 5 0  3.2 5 0  3.1 5 0  3 5 0  2.9 5 0  2.8 5 0  2.7 5 0  2.6 5 0  2.5 5 0  2.4 5 0  2.3 5 0  2.2 5 0  2.1 5 0  2 5 0  1.9 5 0  1.8 5 0  1.7 5 0  1.6 5 0  1.5 5 0  1.4 5 0  1.3 5 0  1.2 5 0  1.1 5 0  1 5 0  0.9000000000000004 5 0  0.7999999999999998 5 0  0.7000000000000002 5 0  0.5999999999999996 5 0  0.5 5 0  0.4000000000000004 5 0  0.2999999999999998 5 0  0.2000000000000002 5 0  0.09999999999999964 5 0  0 5 0  -0.09999999999999964 5 0  -0.2000000000000002 5 0  -0.2999999999999998 5 0  -0.4000000000000004 5 0  -0.5 5 0  -0.5999999999999996 5 0  -0.7000000000000002 5 0  -0.7999999999999998 5 0  -0.9000000000000004 5 0  -1 5 0  -1.1 5 0  -1.2 5 0  -1.3 5 0  -1.4 5 0  -1.5 5 0  -1.6 5 0  -1.7 5 0  -1.8 5 0  -1.9 5 0  -2 5 0  -2.1 5 0  -2.2 5 0  -2.3 5 0  -2.4 5 0  -2.5 5 0  -2.6 5 0  -2.7 5 0  -2.8 5 0  -2.9 5 0  -3 5 0  -3.1 5 0  -3.199999999999999 5 0  -3.300000000000001 5 0  -3.4 5 0  -3.5 5 0  -3.6 5 0  -3.699999999999999 5 0  -3.800000000000001 5 0  -3.9 5 0  -4 5 0  -4.1 5 0  -4.199999999999999 5 0  -4.300000000000001 5 0  -4.4 5 0  -4.5 5 0  -4.6 5 0  -4.699999999999999 5 0  -4.800000000000001 5 0  -4.9 5 0  -5 4.9 0  -5 4.8 0  -5 4.7 0  -5 4.6 0  -5 4.5 0  -5 4.4 0  -5 4.3 0  -5 4.2 0  -5 4.1 0  -5 4 0  -5 3.9 0  -5 3.8 0  -5 3.7 0  -5 3.6 0  -5 3.5 0  -5 3.4 0  -5 3.3 0  -5 3.2 0  -5 3.1 0  -5 3 0  -5 2.9 0  -5 2.8 0  -5 2.7 0  -5 2.6 0  -5 2.5 0  -5 2.4 0  -5 2.3 0  -5 2.2 0  -5 2.1 0  -5 2 0  -5 1.9 0  -5 1.8 0  -5 1.7 0  -5 1.6 0  -5 1.5 0  -5 1.4 0  -5 1.3 0  -5 1.2 0  -5 1.1 0  -5 1 0  -5 0.9000000000000004 0  -5 0.7999999999999998 0  -5 0.7000000000000002 0  -5 0.5999999999999996 0  -5 0.5 0  -5 0.4000000000000004 0  -5 0.2999999999999998 0  -5 0.2000000000000002 0  -5 0.09999999999999964 0  -5 0 0  -5 -0.09999999999999964 0  -5 -0.2000000000000002 0  -5 -0.2999999999999998 0  -5 -0.4000000000000004 0  -5 -0.5 0  -5 -0.5999999999999996 0  -5 -0.7000000000000002 0  -5 -0.7999999999999998 0  -5 -0.9000000000000004 0  -5 -1 0  -5 -1.1 0  -5 -1.2 0  -5 -1.3 0  -5 -1.4 0  -5 -1.5 0  -5 -1.6 0  -5 -1.7 0  -5 -1.8 0  -5 -1.9 0  -5 -2 0  -5 -2.1 0  -5 -2.2 0  -5 -2.3 0  -5 -2.4 0  -5 -2.5 0  -5 -2.6 0  -5 -2.7 0  -5 -2.8 0  -5 -2.9 0  -5 -3 0  -5 -3.1 0  -5 -3.199999999999999 0  -5 -3.300000000000001 0  -5 -3.4 0  -5 -3.5 0  -5 -3.6 0  -5 -3.699999999999999 0  -5 -3.800000000000001 0  -5 -3.9 0  -5 -4 0  -5 -4.1 0  -5 -4.199999999999999 0  -5 -4.300000000000001 0  -5 -4.4 0  -5 -4.5 0  -5 -4.6 0  -5 -4.699999999999999 0  -5 -4.800000000000001 0  -5 -4.9 0  1.167596678895097 0.09975118127611494 0  1.149530454911199 0.1984286557556574 0  1.119133961121278 0.2959572522601429 0  1.079574846156799 0.3881947854587429 0  1.028369152465654 0.4790301915895721 0  0.9677907254737214 0.5643698827607408 0  0.8966289855764197 0.6441400280074957 0  0.8161285180896738 0.7169610571300327 0  0.7285868287618572 0.7828900852202177 0  0.6334253778263212 0.8415920856242881 0  0.5312905005854572 0.8920083163176177 0  0.4245190355610498 0.9336319731887209 0  0.3152110769223874 0.9663466569438807 0  0.2011522998419779 0.988713405794452 0  0.08733887401642945 1.002454130299157 0  -0.02756148240576325 1.005141828453421 0  -0.1424372010063063 0.9962232627029479 0  -0.2573820000764826 0.9788275025001637 0  -0.369585248727252 0.9523029457767593 0  -0.4772643010895753 0.9156823414194585 0  -0.5800028145157092 0.8702761382279395 0  -0.6776622971009562 0.8155704316329501 0  -0.7684669261725126 0.7529465566189897 0  -0.8523464521662739 0.6828382087368323 0  -0.9286114482437569 0.6049568220142819 0  -0.9949025836159305 0.5221943708456217 0  -1.05201506071397 0.4348917129834447 0  -1.09798497952835 0.3424450703631811 0  -1.132525251817539 0.2476764980527482 0  -1.155884506291871 0.1504378699075384 0  -1.167762762551852 0.05085613482994584 0  -1.167776815248065 -0.04934293383126432 0  -1.155881746150768 -0.148659317892141 0  -1.133633363148665 -0.245908712826772 0  -1.097695470483419 -0.3419809198681513 0  -1.052387082361095 -0.4336153812188495 0  -0.995749391925473 -0.5212007716777999 0  -0.9298327379702015 -0.6035699764017812 0  -0.8537258934402437 -0.6804242862110602 0  -0.7693422283314145 -0.7498189832108209 0  -0.6775180287884154 -0.8112828349735902 0  -0.5803319984932673 -0.8658302509000045 0  -0.4750570041607982 -0.9120307866161576 0  -0.3670784912245434 -0.9497813175304926 0  -0.254952529757264 -0.977331946880978 0  -0.1410684121546822 -0.995203196259174 0  -0.02692298433463876 -1.00439194711973 0  0.08792780322372228 -1.000592714712601 0  0.2034099852941914 -0.986763021832831 0  0.3164621357072754 -0.9647407328348179 0  0.4274433601960227 -0.9322472323282944 0  0.5326514170842077 -0.8910188686507219 0  0.6340619408839108 -0.8410103192868241 0  0.7288014795142121 -0.783690315932562 0  0.8162413965625621 -0.7175478962040998 0  0.896184870526791 -0.6435625177423866 0  0.96662332310351 -0.5636640322129673 0  1.02833611227361 -0.4785258604737755 0  1.080653753365738 -0.3882938235955487 0  1.120415026002253 -0.2948019336647668 0  1.149708272813528 -0.1976846255548605 0  1.167607723415475 -0.09932824837813801 0  -2.448896002805875 4.918730247273444 0  -2.448800234465546 -4.911164435588044 0  4.911104207296885 2.44837418192716 0  4.919167625254352 -2.44979226197631 0  2.446589407052667 -4.896512821934619 0  2.441009182389963 4.900250070688712 0  -4.911125758075406 -2.448395402413253 0  -4.911124625611552 2.448399242343871 0  -1.748862385466512 4.911891352271587 0  -1.744634161875883 -4.915297597350862 0  4.921461815719899 1.744503845759207 0  4.910112647389456 -1.74832844590041 0  -4.910396170831718 -1.7480553851267 0  -4.911211658874491 1.747795115688209 0  1.746156812769345 4.905813624395287 0  1.747614069763588 -4.894073074534795 0  -1.149102982415154 4.909861557572667 0  -1.129932635531097 -4.917687883161964 0  -4.910352945467221 -1.148297475169311 0  -4.910175057622853 1.148097405190847 0  1.144080540189029 -4.913916185019641 0  1.149109573016793 4.909851224474257 0  4.910502640139507 1.14657580407157 0  4.921192106928783 -1.152314766755014 0  -0.5468055103747489 -4.91114304122165 0  -0.5465740457357814 4.919722843820458 0  -4.90927805293027 -0.5489141162241676 0  -4.909302748971374 0.5474695400918589 0  4.908620002204976 -0.5492363423927182 0  4.920106318489002 0.5459656847329074 0  0.5426005977469661 -4.898186481176023 0  0.5513052137065804 4.916585676384403 0  -4.912333809051373 -3.048671126151994 0  4.918875548455696 3.046662899611678 0  4.91184655193315 -3.048652898852364 0  -4.913179497024681 3.04575961630988 0  3.055586236918479 -4.917819825581828 0  -3.048938169312641 -4.911785672533347 0  3.05249899518174 4.913855342125641 0  -3.048382181216205 4.91267160354809 0  -4.908458225327437 -0.04992822153449571 0  0.04512845453033215 -4.913102310320501 0  0.04957679597843449 4.920042686014097 0  4.915418618187212 -0.05130902862052188 0  3.545844626389794 -4.919332337834128 0  -3.549145175273676 4.91225
[...]
<PointData  Vectors="f_1898"> 
<DataArray  type="Float64"  Name="f_1898"  NumberOfComponents="3" format="ascii">-1.4092437124930417e-40 -1.5041632399669265e-40 0.0000000000000000e+00  1.7286376566285788e-40 -1.7942304941189647e-40 0.0000000000000000e+00  -2.2390594328675140e-40 -2.2220138705131487e-40 0.0000000000000000e+00  -2.7126001406271240e-40 2.7868857887123332e-40 0.0000000000000000e+00  1.5213046128375762e+01 -3.5187996058256732e-01 0.0000000000000000e+00  3.2161106149678424e-40 3.3557804342780613e-40 0.0000000000000000e+00  7.6315741577612748e-40 8.1607396141438177e-40 0.0000000000000000e+00  -1.7056203705883662e-39 -1.9593044728569080e-39 0.0000000000000000e+00  1.7036724968970458e-38 1.9192448196193798e-38 0.0000000000000000e+00  -5.4990388938950096e-38 -6.0942563035792520e-38 0.0000000000000000e+00  2.0723314311584730e-37 2.3589217311893432e-37 0.0000000000000000e+00  -7.4479734129018360e-37 -8.7483970859716653e-37 0.0000000000000000e+00  4.4325842139124595e-36 5.4757169746293806e-36 0.0000000000000000e+00  -2.7500143215897402e-35 -3.4655848823387357e-35 0.0000000000000000e+00  1.1148210235039474e-34 1.4320192729153314e-34 0.0000000000000000e+00  -2.4037464100848597e-34 -3.1538253668537338e-34 0.0000000000000000e+00  4.7940473706061966e-34 6.3668532478373772e-34 0.0000000000000000e+00  1.7191693492134415e-33 2.3333109926367240e-33 0.0000000000000000e+00  -7.6744658757519057e-33 -1.0761173160252429e-32 0.0000000000000000e+00  2.1967382141137119e-32 3.2162259462304210e-32 0.0000000000000000e+00  -1.2508112925210321e-31 -1.8556494329101447e-31 0.0000000000000000e+00  3.2932727231522725e-31 4.9182183123602199e-31 0.0000000000000000e+00  1.8836672452834968e-31 3.0447240655459504e-31 0.0000000000000000e+00  -1.5763174083234343e-30 -2.5101654525262693e-30 0.0000000000000000e+00  -7.5703647339038279e-31 -1.2665883509585321e-30 0.0000000000000000e+00  -1.9143486672601637e-30 -3.2416308003646565e-30 0.0000000000000000e+00  4.9037457881252333e-30 8.7698218366068975e-30 0.0000000000000000e+00  -1.1549771520718951e-29 -2.2992292369749211e-29 0.0000000000000000e+00  4.0096314003680064e-29 7.7895406672085008e-29 0.0000000000000000e+00  2.3417358833793435e-29 4.8697123683150622e-29 0.0000000000000000e+00  -1.9933313222214164e-28 -4.1024031324088558e-28 0.0000000000000000e+00  -6.9233455507593622e-29 -1.5489303438221335e-28 0.0000000000000000e+00  -1.1803854847110560e-28 -2.8795209170890631e-28 0.0000000000000000e+00  1.9916938125953302e-28 4.6265121287535858e-28 0.0000000000000000e+00  5.8874291003592029e-28 1.4749439453082312e-27 0.0000000000000000e+00  -4.4804674846865513e-29 -1.0685579351439749e-28 0.0000000000000000e+00  1.4598336122183038e-28 4.1098578914038949e-28 0.0000000000000000e+00  -9.8683484027567293e-29 -2.6713887751209707e-28 0.0000000000000000e+00  -4.8851830073516294e-28 -1.4551642436140981e-27 0.0000000000000000e+00  -4.4561633781132625e-28 -1.4481032727126943e-27 0.0000000000000000e+00  -1.9553407967400177e-29 -1.5651564475245865e-28 0.0000000000000000e+00  4.7171546546932215e-28 1.7264818869245530e-27 0.0000000000000000e+00  2.6711611310261131e-28 1.0430530945827551e-27 0.0000000000000000e+00  -3.1936597608505658e-29 -1.8386969553993534e-28 0.0000000000000000e+00  9.9334756159603993e-29 4.2588061602942161e-28 0.0000000000000000e+00  1.5010526949827877e-28 1.0908522124512848e-27 0.0000000000000000e+00  2.6368488125342065e-28 1.8289423958254728e-27 0.0000000000000000e+00  -1.1645854559404714e-28 -1.0623997957871073e-27 0.0000000000000000e+00  6.3347749975837234e-28 5.8557757962700635e-27 0.0000000000000000e+00  -7.2735351940834836e-29 -2.3018149301463977e-29 0.0000000000000000e+00  -4.7271220707219113e-28 -5.0393695206693501e-27 0.0000000000000000e+00  -2.3449339039290809e-28 -2.9291625518735725e-27 0.0000000000000000e+00  -2.2483794957384243e-28 -4.1813634218606793e-27 0.0000000000000000e+00  -2.4938451962415780e-28 -1.0508437008483913e-26 0.0000000000000000e+00  -7.7130462823630630e-29 -1.2045193013345025e-26 0.0000000000000000e+00  2.3347554906253916e-30 -2.0845665483453809e-27 0.0000000000000000e+00  1.2883889921220711e-28 -6.5488323596291668e-27 0.0000000000000000e+00  1.4981661753685689e-28 -2.3505618739877477e-27 0.0000000000000000e+00  3.4409167542751093e-28 -4.2303721036872061e-27 0.0000000000000000e+00  -1.9915096030797221e-28 1.9283479791175688e-27 0.0000000000000000e+00  6.6223950161440871e-28 -5.6715968931839240e-27 0.0000000000000000e+00  7.6204387535275403e-28 -5.1476238246644080e-27 0.0000000000000000e+00  -1.3457031092446778e-28 1.0619743303719471e-27 0.0000000000000000e+00  -1.3762981683006139e-27 7.6675489279067711e-27 0.0000000000000000e+00  -6.2386314760647497e-28 3.0456862711119284e-27 0.0000000000000000e+00  -3.8444629226119159e-28 1.7663131773568867e-27 0.0000000000000000e+00  -1.0458403457220948e-27 4.3903428872340089e-27 0.0000000000000000e+00  -6.1686773572168347e-28 2.3208013758044338e-27 0.0000000000000000e+00  7.0412544131358613e-28 -2.6217350450417395e-27 0.0000000000000000e+00  3.7662335339834956e-28 -1.2329924345707606e-27 0.0000000000000000e+00  7.8808340691086890e-29 -2.4812629253520183e-28 0.0000000000000000e+00  3.2964278557850791e-28 -9.3762420026629403e-28 0.0000000000000000e+00  2.6895529721829608e-28 -7.3339188074390774e-28 0.0000000000000000e+00  -2.3064487830728326e-28 6.1761088498502091e-28 0.0000000000000000e+00  -1.6989620295604978e-28 4.2615063128482701e-28 0.0000000000000000e+00  -1.2670500049224751e-28 3.0111293933033468e-28 0.0000000000000000e+00  1.9155863879928671e-29 -5.1839743066615477e-29 0.0000000000000000e+00  8.9646712682830485e-29 -2.0014697466170800e-28 0.0000000000000000e+00  1.2815006974190099e-28 -2.6645176038584675e-28 0.0000000000000000e+00  -6.0232023514790422e-30 1.4187261544290956e-29 0.0000000000000000e+00  -9.1056959368034817e-29 1.7642348150254455e-28 0.0000000000000000e+00  1.4866613984101660e-29 -2.8917010984147891e-29 0.0000000000000000e+00  5.0239833341340946e-30 -8.9151960100612118e-30 0.0000000000000000e+00  -1.3602040665992221e-29 2.3938009360995121e-29 0.0000000000000000e+00  -1.0873086032640663e-30 1.6511290415557958e-30 0.0000000000000000e+00  1.5624399847714382e-30 -2.5436187967728794e-30 0.0000000000000000e+00  -8.0014670279289601e-31 1.2764449603928463e-30 0.0000000000000000e+00  1.0235798268382210e-31 -1.6248557946445390e-31 0.0000000000000000e+00  -1.2046903576331157e-32 1.8390716829505349e-32 0.0000000000000000e+00  -8.5204552883617940e-34 1.2342174711996781e-33 0.0000000000000000e+00  6.6138443579114538e-33 -9.2085725703529804e-33 0.0000000000000000e+00  2.9925230853076546e-34 -3.4741446152885209e-34 0.0000000000000000e+00  -4.0600217600072329e-34 5.3348034336070935e-34 0.0000000000000000e+00  4.4357085383823823e-35 -5.9085961738737488e-35 0.0000000000000000e+00  -1.6907432270065888e-35 2.1763721470129373e-35 0.0000000000000000e+00  4.1731626509173618e-36 -5.1394302933487576e-36 0.0000000000000000e+00  -1.5461706840704426e-36 1.8092346244448915e-36 0.0000000000000000e+00  4.9069185006067234e-37 -5.6700377505800165e-37 0.0000000000000000e+00  -2.4456711702992153e-37 2.7556264953916781e-37 0.0000000000000000e+00  8.2213743250132163e-38 -9.1163137472590752e-38 0.0000000000000000e+00  -1.6472369008960634e-38 1.8067953407089775e-38 0.0000000000000000e+00  6.6437257085777463e-39 -7.0958594413957553e-39 0.0000000000000000e+00  -4.2774311696440557e-40 4.5010486344623381e-40 0.0000000000000000e+00  -2.9798299998569211e-40 3.1133000555465895e-40 0.0000000000000000e+00  -7.5876361513783455e-42 4.9229013428112248e-42 0.0000000000000000e+00  3.8868607193606119e-40 -3.6550674652969751e-40 0.0000000000000000e+00  -8.9228286874035386e-40 8.1292067891830148e-40 0.0000000000000000e+00  3.2671668122484707e-39 -2.9918616210628648e-39 0.0000000000000000e+00  -1.9124745924268348e-39 1.8342189879185301e-39 0.0000000000000000e+00  -1.5239462290276522e-38 1.3014659427445498e-38 0.0000000000000000e+00  5.8659879074142167e-38 -5.0016261965297144e-38 0.0000000000000000e+00  -7.8315486349549439e-38 6.6913128365747865e-38 0.0000000000000000e+00  -1.4397770583898704e-37 1.1284271596224399e-37 0.0000000000000000e+00  9.0734796218275465e-37 -7.1940395600376377e-37 0.0000000000000000e+00  -1.5668166105663683e-36 1.2397988162571360e-36 0.0000000000000000e+00  -1.3762556392059804e-36 9.7437086686231173e-37 0.0000000000000000e+00  1.2559484394774112e-35 -9.2564210864828085e-36 0.0000000000000000e+00  -2.4109440743830670e-35 1.7616347578642559e-35 0.0000000000000000e+00  -1.7883728355667573e-35 1.1779862819505360e-35 0.0000000000000000e+00  1.8177164925425237e-34 -1.2387101549467692e-34 0.0000000000000000e+00  -2.8970015323720584e-34 1.9670785446495974e-34 0.0000000000000000e+00  -3.9770316645232245e-34 2.4959367878887871e-34 0.0000000000000000e+00  2.4543174706952512e-33 -1.5396280458500618e-33 0.0000000000000000e+00  -2.4101370232903031e-33 1.5092063252775082e-33 0.0000000000000000e+00  -8.9051992329544216e-33 5.1879790087120009e-33 0.0000000000000000e+00  2.7999892877476867e-32 -1.6154473041883963e-32 0.0000000000000000e+00  2.6908058335411334e-33 -9.4527304698411151e-34 0.0000000000000000e+00  -1.5223784107672740e-31 8.0951207748505697e-32 0.0000000000000000e+00  2.0057755705769354e-31 -1.0438880317891979e-31 0.0000000000000000e+00  5.0894723519310886e-31 -2.4850216532412796e-31 0.0000000000000000e+00  -1.5058994727234631e-30 7.1884729923699608e-31 0.0000000000000000e+00  -8.7569377277267850e-31 3.8787151553044219e-31 0.0000000000000000e+00  8.0325383233182585e-30 -3.5139378985319283e-30 0.0000000000000000e+00  -2.3610759243004144e-30 1.0118156860319727e-30 0.0000000000000000e+00  -3.5413274067676663e-29 1.4107532643343731e-29 0.0000000000000000e+00  2.9264602080011853e-29 -1.0951844581496254e-29 0.0000000000000000e+00  1.4400888134190815e-28 -5.2199153454363477e-29 0.0000000000000000e+00  -1.6320301174439501e-28 5.3894228207740719e-29 0.0000000000000000e+00  -5.9885059383631374e-28 1.9490350286895746e-28 0.0000000000000000e+00  6.3676971718792692e-28 -1.8444860643646415e-28 0.0000000000000000e+00  2.4903266576497264e-27 -7.1593153621698558e-28 0.0000000000000000e+00  -1.9083504132305113e-27 4.3740425917326950e-28 0.0000000000000000e+00  -9.5956321567208235e-27 2.2729349117151015e-27 0.0000000000000000e+00  2.5905372034552709e-27 -2.1947549304269874e-28 0.0000000000000000e+00  3.0150566537539719e-26 -5.6097324604788541e-27 0.0000000000000000e+00  1.4566295398669961e-26 -3.0697432468636728e-27 0.0000000000000000e+00  -8.5478406458231648e-26 1.2055243234927377e-26 0.0000000000000000e+00  -1.2955663577828472e-25 1.6543477625394245e-26 0.0000000000000000e+00  1.4355634928343203e-25 -1.8515649004771386e-26 0.0000000000000000e+00  8.3929236303446979e-25 -8.2183536837926332e-26 0.0000000000000000e+00  1.5291163731459860e-24 -1.1619392146810298e-25 0.0000000000000000e+00  1.8607850536713827e-24 -9.9729638247513180e-26 0.0000000000000000e+00  1.8153960363705538e-24 -4.9516866645514380e-26 0.0000000000000000e+00  1.8308845388142704e-24 3.7766503906411233e-27 0.0000000000000000e+00  1.9548587620859444e-24 5.7558324006443865e-26 0.0000000000000000e+00  1.8104554335752593e-24 9.3896137927808763e-26 0.0000000000000000e+00  1.1881464319749413e-24 8.4579787652942064e-26 0.0000000000000000e+00  3.5777652138714823e-25 3.1725547301469623e-26 0.0000000000000000e+00  -1.5200209397882025e-25 -1.6969870099620664e-26 0.0000000000000000e+00  -2.0523870362746055e-25 -2.5876731635748519e-26 0.0000000000000000e+00  -3.6532943411534752e-26 -4.1784495701778119e-27 0.0000000000000000e+00  5.8023657416497991e-26 1.0806360853610236e-26 0.0000000000000000e+00  3.5523425049817488e-26 7.0106633412115248e-27 0.0000000000000000e+00  -4.8755670597349092e-27 -1.1423243366851144e-27 0.0000000000000000e+00  -1.0283694914459155e-26 -2.4558381594734985e-27 0.0000000000000000e+00  -6.3747883092200151e-28 -1.4914731213977662e-28 0.0000000000000000e+00  2.5895694898827850e-27 7.1783663339105765e-28 0.0000000000000000e+00  3.4906916538155909e-28 1.0104768958732433e-28 0.0000000000000000e+00  -6.1790926946583146e-28 -1.9462127184221476e-28 0.0000000000000000e+00  -7.8823803331095136e-29 -2.5976233566974384e-29 0.0000000000000000e+00  1.4352854572579420e-28 5.1078695385600325e-29 0.0000000000000000e+00  5.0933613414197739e-30 1.8776454865413929e-30 0.0000000000000000e+00  -3.1961102225996445e-29 -1.2638568152061504e-29 0.0000000000000000e+00  2.9471082498984008e-30 1.2410311989984709e-30 0.0000000000000000e+00  6.0448993864488355e-30 2.6536191689573983e-30 0.0000000000000000e+00  -1.8082723147648809e-30 -8.2239579855855571e-31 0.0000000000000000e+00  -8.8392004754426337e-31 -4.2283049110758547e-31 0.0000000000000000e+00  5.7653973100191933e-31 2.8674322127644289e-31 0.0000000000000000e+00  2.9942670655698115e-32 1.6148213863142697e-32 0.0000000000000000e+00  -1.2583541998366327e-31 -6.7308815648418269e-32 0.0000000000000000e+00  2.8414671002012179e-32 1.5543645455709000e-32 0.0000000000000000e+00  1.7959303659450912e-32 1.0316331606197326e-32 0.0000000000000000e+00  -1.1487955007434101e-32 -6.7618729403229567e-33 0.0000000000000000e+00  1.6915292873790196e-34 7.8430840685725180e-35 0.0000000000000000e+00  2.0597443999391145e-33 1.3084916364319283e-33 0.0000000000000000e+00  -7.7870941166892089e-34 -5.0088284399027218e-34 0.0000000000000000e+00  -1.0886458168003346e-34 -7.6383416073497189e-35 0.0000000000000000e+00  1.8682280452671095e-34 1.2864824919374133e-34 0.0000000000000000e+00  -5.2562216937051569e-35 -3.6680236833977946e-35 0.0000000000000000e+00  -1.2109531599188936e-35 -9.0540963062397402e-36 0.0000000000000000e+00  1.3758856687188379e-35 1.0257175610134142e-35 0.0000000000000000e+00  -3.5962146776071503e-36 -2.6957268188032846e-36 0.0000000000000000e+00  -8.3370769959751831e-37 -6.7526243642560114e-37 0.0000000000000000e+00  9.5882668749143758e-37 7.6929100275027662e-37 0.0000000000000000e+00  -2.7941907720823655e-37 -2.2579946346259913e-37 0.0000000000000000e+00  -3.2613461149596272e-38 -2.9140967171260701e-38 0.0000000000000000e+00  5.9649434549789457e-38 5.1514531497401305e-38 0.0000000000000000e+00  -2.2935224916720340e-38 -1.9924262421804926e-38 0.0000000000000000e+00  9.5955685141704257e-40 7.0406171653904148e-40 0.0000000000000000e+00  3.1396533843841582e-39 2.9112079449300384e-39 0.0000000000000000e+00  -1.6638859564481566e-39 -1.5445907992491985e-39 0.0000000000000000e+00  3.6592194710125825e-40 3.3899526040006544e-40 0.0000000000000000e+00  1.6517698095988188e-40 1.6713124895539266e-40 0.0000000000000000e+00  3.3778101317736902e-40 3.4741693466144830e-40 0.0000000000000000e+00  -9.5239890653034553e-40 -1.0193780393149811e-39 0.0000000000000000e+00  1.8924254093442669e-39 2.0768253526178863e-39 0.0000000000000000e+00  -1.2810704832682317e-38 -1.4096281385439056e-38 0.0000000000000000e+00  9.4169318655504256e-38 1.0157191818815583e-37 0.0000000000000000e+00  -2.2590596058383738e-37 -2.4151438966898690e-37 0.0000000000000000e+00  2.6881838719509322e-37 2.9897510617381902e-37 0.0000000000000000e+00  -3.9541360891755820e-36 -4.6634854755188292e-36 0.0000000000000000e+00  1.2045026252117977e-35 1.4880898414173481e-35 0.0000000000000000e+00  -5.0899981071679152e-35 -6.5198268332777158e-35 0.0000000000000000e+00  1.1282821337958261e-34 1.4805340702447286e-34 0.0000000000000000e+00  -2.1875154240020155e-34 -3.0765723778990682e-34 0.0000000000000000e+00  1.1962263055963778e-33 1.6290306882937186e-33 0.0000000000000000e+00  -8.0332515845640829e-34 -1.0762624935239921e-33 0.0000000000000000e+00  4.6094658341764377e-33 6.3555851242447581e-33 0.0000000000000000e+00  3.9662190834806769e-32 5.9009727105606424e-32 0.0000000000000000e+00  -1.8255473958775124e-31 -2.6990051559675775e-31 0.0000000000000000e+00  -5.2767968845084910e-31 -8.2750123688704541e-31 0.0000000000000000e+00  1.0491057620813145e-30 1.6640601012747336e-30 0.0000000000000000e+00  -2.0475803410714548e-31 -2.9644203364871491e-31 0.0000000000000000e+00  -3.0967209016850498e-30 -5.4645345994334232e-30 0.0000000000000000e+00  9.2036284167542627e-30 1.6934690201377416e-29 0.0000000000000000e+00  1.3684304387694341e-29 2.6752223897648989e-29 0.0000000000000000e+00  -8.8233203558678605e-29 -1.7351651740135431e-28 0.0000000000000000e+00  2.8526903442257207e-29 5.5647649860200742e-29 0.0000000000000000e+00  9.6487153763128081e-29 1.9906364308605770e-28 0.0000000000000000e+00  3.2337261998077115e-29 7.2909122806704537e-29 0.0000000000000000e+00  2.8428675179376833e-28 6.6061055401312006e-28 0.0000000000000000e+00  1.2326801476165143e-28 3.1213013694486495e-28 0.0000000000000000e+00  -3.2864948534122990e-28 -7.8978599512971474e-28 0.0000000000000000e+00  -3.9106784183234083e-28 -1.0772577279354079e-27 0.0000000000000000e+00  3.5616285192521385e-28 9.6321887631588309e-28 0.0000000000000000e+00  6.3531747409836398e-28 1.8241205865558835e-27 0.0000000000000000e+00  3.5851759066617623e-28 1.1712402904043507e-27 0.0000000000000000e+00  1.2527861037023487e-28 5.1906111611504921e-28 0.0000000000000000e+00  -7.2371053555197570e-28 -2.4823616189242557e-27 0.0000000000000000e+00  -2.3501715134718910e-28 -8.0340077839716139e-28 0.0000000000000000e+00  -9.0954425758258869e-29 -3.2536807837899118e-28 0.0000000000000000e+00  -3.4753112419283685e-28 -1.5390227891662575e-27 0.0000000000000000e+00  -2.9877775460726273e-28 -1.4429488595082306e-27 0.0000000000000000e+00  -3.2477699281612373e-28 -1.9978605395447421e-27 0.0000000000000000e+00  -4.4478646480801234e-29 -5.4795516646220498e-28 0.0000000000000000e+00  2.5134246522119690e-28 1.6296510539048489e-27 0.0000000000000000e+00  2.5984077806361244e-30 -4.4973941090894517e-29 0.0000000000000000e+00  -2.0116080517784094e-28 -2.2404047680374645e-27 0.0000000000000000e+00  7.2212506285682390e-29 8.9739207225895515e-28 0.0000000000000000e+00  3.4941151861862870e-29 7.6138470687825899e-28 0.0000000000000000e+00  -3.6034029355255478e-29 -1.3750126279625793e-27 0.0000000000000000e+00  -4.3038368990651490e-30 -3.6884605150789288e-28 0.0000000000000000e+00  3.2938105120315032e-29 -1.4919916017923221e-27 0.0000000000000000e+00  -7.9252336353239871e-29 1.9397775815838495e-27 0.0000000000000000e+00  -1.2467395198157228e-28 1.8066683944575375e-27 0.0000000000000000e+00  1.2166533928080839e-28 -1.6248039665004307e-27 0.0000000000000000e+00  2.3458601472792077e-29 -2.8465691697798930e-28 0.0000000000000000e+00  2.5160178388747313e-28 -2.2061883413476526e-27 0.0000000000000000e+00  -1.8592075737471861e-28 1.4244776067218094e-27 0.0000000000000000e+00  -1.0048657066123184e-28 5.6006651097558654e-28 0.0000000000000000e+00  1.2798870352477260e-28 -8.1998912176122747e-28 0.0000000000000000e+00  3.7868841962444717e-29 -3.4154114425029957e-28 0.0000000000000000e+00  5.3147358894230014e-28 -2.6554506880221155e-27 0.0000000000000000e+00  7.1422014705945667e-28 -3.3323703188956737e-27 0.0000000000000000e+00  1.0964552131026851e-27 -4.5168515130478211e-27 0.0000000000000000e+00  3.4115209440767132e-28 -1.2267400263869625e-27 0.0000000000000000e+00  -3.3066840067332645e-28 1.2779974469824111e-27 0.0000000000000000e+00  -7.3152913149283056e-28 2.4366153701549024e-27 0.0000000000000000e+00  -8.5554317723607386e-28 2.6473114660451337e-27 0.0000000000000000e+00  -2.3054495704180349e-28 6.4735380707352043e-28 0.0000000000000000e+00  1.6045964577108577e-28 -4.6864974543624744e-28 0.0000000000000000e+00  1.7177110898295773e-28 -4.8146408903789252e-28 0.0000000000000000e+00  7.0886259357578770e-28 -1.7807371980153276e-27 0.0000000000000000e+00  2.9746321122098398e-28 -7.0074946600757938e-28 0.0000000000000000e+00  -2.4671684186345809e-28 5.7338052599628886e-28 0.0000000000000000e+00  -1.0917914221020105e-29 2.2076597412167533e-29 0.0000000000000000e+00  2.8632299501413377e-29 -6.3437801787235367e-29 0.0000000000000000e+00  6.9019008799696206e-29 -1.4168309995994741e-28 0.0000000000000000e+00  -1.4453687682313153e-29 2.9247053277295362e-29 0.0000000000000000e+00  -2.1240385797786763e-29 4.0250673830921714e-29 0.0000000000000000e+00  1.8594