<?xml version="1.0"?>
<VTKFile type="UnstructuredGrid"  version="0.1"  >
<UnstructuredGrid>
<Piece  NumberOfPoints="11902" NumberOfCells="23402">
<Points>
<DataArray  type="Float64"  NumberOfComponents="3"  format="ascii">-5 -5 0  5 -5 0  5 5 0  -5 5 0  1.142671555627608 0.00095760486832195 0  -4.9 -5 0  -4.8 -5 0  -4.7 -5 0  -4.6 -5 0  -4.5 -5 0  -4.4 -5 0  -4.3 -5 0  -4.2 -5 0  -4.1 -5 0  -4 -5 0  -3.9 -5 0  -3.8 -5 0  -3.7 -5 0  -3.6 -5 0  -3.5 -5 0  -3.4 -5 0  -3.3 -5 0  -3.2 -5 0  -3.1 -5 0  -3 -5 0  -2.9 -5 0  -2.8 -5 0  -2.7 -5 0  -2.6 -5 0  -2.5 -5 0  -2.4 -5 0  -2.3 -5 0  -2.2 -5 0  -2.1 -5 0  -2 -5 0  -1.9 -5 0  -1.8 -5 0  -1.7 -5 0  -1.6 -5 0  -1.5 -5 0  -1.4 -5 0  -1.3 -5 0  -1.2 -5 0  -1.1 -5 0  -1 -5 0  -0.9000000000000004 -5 0  -0.7999999999999998 -5 0  -0.7000000000000002 -5 0  -0.5999999999999996 -5 0  -0.5 -5 0  -0.4000000000000004 -5 0  -0.2999999999999998 -5 0  -0.2000000000000002 -5 0  -0.09999999999999964 -5 0  0 -5 0  0.09999999999999964 -5 0  0.2000000000000002 -5 0  0.2999999999999998 -5 0  0.4000000000000004 -5 0  0.5 -5 0  0.5999999999999996 -5 0  0.7000000000000002 -5 0  0.7999999999999998 -5 0  0.9000000000000004 -5 0  1 -5 0  1.1 -5 0  1.2 -5 0  1.3 -5 0  1.4 -5 0  1.5 -5 0  1.6 -5 0  1.7 -5 0  1.8 -5 0  1.9 -5 0  2 -5 0  2.1 -5 0  2.2 -5 0  2.3 -5 0  2.4 -5 0  2.5 -5 0  2.6 -5 0  2.7 -5 0  2.8 -5 0  2.9 -5 0  3 -5 0  3.1 -5 0  3.199999999999999 -5 0  3.300000000000001 -5 0  3.4 -5 0  3.5 -5 0  3.6 -5 0  3.699999999999999 -5 0  3.800000000000001 -5 0  3.9 -5 0  4 -5 0  4.1 -5 0  4.199999999999999 -5 0  4.300000000000001 -5 0  4.4 -5 0  4.5 -5 0  4.6 -5 0  4.699999999999999 -5 0  4.800000000000001 -5 0  4.9 -5 0  5 -4.9 0  5 -4.8 0  5 -4.7 0  5 -4.6 0  5 -4.5 0  5 -4.4 0  5 -4.3 0  5 -4.2 0  5 -4.1 0  5 -4 0  5 -3.9 0  5 -3.8 0  5 -3.7 0  5 -3.6 0  5 -3.5 0  5 -3.4 0  5 -3.3 0  5 -3.2 0  5 -3.1 0  5 -3 0  5 -2.9 0  5 -2.8 0  5 -2.7 0  5 -2.6 0  5 -2.5 0  5 -2.4 0  5 -2.3 0  5 -2.2 0  5 -2.1 0  5 -2 0  5 -1.9 0  5 -1.8 0  5 -1.7 0  5 -1.6 0  5 -1.5 0  5 -1.4 0  5 -1.3 0  5 -1.2 0  5 -1.1 0  5 -1 0  5 -0.9000000000000004 0  5 -0.7999999999999998 0  5 -0.7000000000000002 0  5 -0.5999999999999996 0  5 -0.5 0  5 -0.4000000000000004 0  5 -0.2999999999999998 0  5 -0.2000000000000002 0  5 -0.09999999999999964 0  5 0 0  5 0.09999999999999964 0  5 0.2000000000000002 0  5 0.2999999999999998 0  5 0.4000000000000004 0  5 0.5 0  5 0.5999999999999996 0  5 0.7000000000000002 0  5 0.7999999999999998 0  5 0.9000000000000004 0  5 1 0  5 1.1 0  5 1.2 0  5 1.3 0  5 1.4 0  5 1.5 0  5 1.6 0  5 1.7 0  5 1.8 0  5 1.9 0  5 2 0  5 2.1 0  5 2.2 0  5 2.3 0  5 2.4 0  5 2.5 0  5 2.6 0  5 2.7 0  5 2.8 0  5 2.9 0  5 3 0  5 3.1 0  5 3.199999999999999 0  5 3.300000000000001 0  5 3.4 0  5 3.5 0  5 3.6 0  5 3.699999999999999 0  5 3.800000000000001 0  5 3.9 0  5 4 0  5 4.1 0  5 4.199999999999999 0  5 4.300000000000001 0  5 4.4 0  5 4.5 0  5 4.6 0  5 4.699999999999999 0  5 4.800000000000001 0  5 4.9 0  4.9 5 0  4.8 5 0  4.7 5 0  4.6 5 0  4.5 5 0  4.4 5 0  4.3 5 0  4.2 5 0  4.1 5 0  4 5 0  3.9 5 0  3.8 5 0  3.7 5 0  3.6 5 0  3.5 5 0  3.4 5 0  3.3 5 0  3.2 5 0  3.1 5 0  3 5 0  2.9 5 0  2.8 5 0  2.7 5 0  2.6 5 0  2.5 5 0  2.4 5 0  2.3 5 0  2.2 5 0  2.1 5 0  2 5 0  1.9 5 0  1.8 5 0  1.7 5 0  1.6 5 0  1.5 5 0  1.4 5 0  1.3 5 0  1.2 5 0  1.1 5 0  1 5 0  0.9000000000000004 5 0  0.7999999999999998 5 0  0.7000000000000002 5 0  0.5999999999999996 5 0  0.5 5 0  0.4000000000000004 5 0  0.2999999999999998 5 0  0.2000000000000002 5 0  0.09999999999999964 5 0  0 5 0  -0.09999999999999964 5 0  -0.2000000000000002 5 0  -0.2999999999999998 5 0  -0.4000000000000004 5 0  -0.5 5 0  -0.5999999999999996 5 0  -0.7000000000000002 5 0  -0.7999999999999998 5 0  -0.9000000000000004 5 0  -1 5 0  -1.1 5 0  -1.2 5 0  -1.3 5 0  -1.4 5 0  -1.5 5 0  -1.6 5 0  -1.7 5 0  -1.8 5 0  -1.9 5 0  -2 5 0  -2.1 5 0  -2.2 5 0  -2.3 5 0  -2.4 5 0  -2.5 5 0  -2.6 5 0  -2.7 5 0  -2.8 5 0  -2.9 5 0  -3 5 0  -3.1 5 0  -3.199999999999999 5 0  -3.300000000000001 5 0  -3.4 5 0  -3.5 5 0  -3.6 5 0  -3.699999999999999 5 0  -3.800000000000001 5 0  -3.9 5 0  -4 5 0  -4.1 5 0  -4.199999999999999 5 0  -4.300000000000001 5 0  -4.4 5 0  -4.5 5 0  -4.6 5 0  -4.699999999999999 5 0  -4.800000000000001 5 0  -4.9 5 0  -5 4.9 0  -5 4.8 0  -5 4.7 0  -5 4.6 0  -5 4.5 0  -5 4.4 0  -5 4.3 0  -5 4.2 0  -5 4.1 0  -5 4 0  -5 3.9 0  -5 3.8 0  -5 3.7 0  -5 3.6 0  -5 3.5 0  -5 3.4 0  -5 3.3 0  -5 3.2 0  -5 3.1 0  -5 3 0  -5 2.9 0  -5 2.8 0  -5 2.7 0  -5 2.6 0  -5 2.5 0  -5 2.4 0  -5 2.3 0  -5 2.2 0  -5 2.1 0  -5 2 0  -5 1.9 0  -5 1.8 0  -5 1.7 0  -5 1.6 0  -5 1.5 0  -5 1.4 0  -5 1.3 0  -5 1.2 0  -5 1.1 0  -5 1 0  -5 0.9000000000000004 0  -5 0.7999999999999998 0  -5 0.7000000000000002 0  -5 0.5999999999999996 0  -5 0.5 0  -5 0.4000000000000004 0  -5 0.2999999999999998 0  -5 0.2000000000000002 0  -5 0.09999999999999964 0  -5 0 0  -5 -0.09999999999999964 0  -5 -0.2000000000000002 0  -5 -0.2999999999999998 0  -5 -0.4000000000000004 0  -5 -0.5 0  -5 -0.5999999999999996 0  -5 -0.7000000000000002 0  -5 -0.7999999999999998 0  -5 -0.9000000000000004 0  -5 -1 0  -5 -1.1 0  -5 -1.2 0  -5 -1.3 0  -5 -1.4 0  -5 -1.5 0  -5 -1.6 0  -5 -1.7 0  -5 -1.8 0  -5 -1.9 0  -5 -2 0  -5 -2.1 0  -5 -2.2 0  -5 -2.3 0  -5 -2.4 0  -5 -2.5 0  -5 -2.6 0  -5 -2.7 0  -5 -2.8 0  -5 -2.9 0  -5 -3 0  -5 -3.1 0  -5 -3.199999999999999 0  -5 -3.300000000000001 0  -5 -3.4 0  -5 -3.5 0  -5 -3.6 0  -5 -3.699999999999999 0  -5 -3.800000000000001 0  -5 -3.9 0  -5 -4 0  -5 -4.1 0  -5 -4.199999999999999 0  -5 -4.300000000000001 0  -5 -4.4 0  -5 -4.5 0  -5 -4.6 0  -5 -4.699999999999999 0  -5 -4.800000000000001 0  -5 -4.9 0  1.13713756376774 0.1002067913594512 0  1.119752413180268 0.1992933478073259 0  1.090428907656609 0.2970026396824118 0  1.051940949853455 0.3899420490959815 0  1.002375781040418 0.480895024768821 0  0.9435064393519506 0.5664712532552617 0  0.8744513836904296 0.6462695316192014 0  0.7961345761848234 0.7192319467265996 0  0.7108594807801737 0.7854051924251404 0  0.6183797361188924 0.844219831334003 0  0.5191463352889912 0.8943681855796324 0  0.4149905342565463 0.9357810726898868 0  0.3081431052286154 0.9683593850530381 0  0.1970835726198026 0.9905753754218311 0  0.08555980450847749 1.003722017781519 0  -0.02723497601549426 1.006341555093289 0  -0.1398431446260121 0.9980184433120428 0  -0.2517181393255984 0.9808520119403873 0  -0.3610992055124623 0.9540821707680069 0  -0.4664315507527779 0.9173705955594488 0  -0.5668697412922802 0.8720113534956205 0  -0.6621598086441345 0.8173836572029122 0  -0.7508368587115714 0.754904999596032 0  -0.8324015119095406 0.6850224189909038 0  -0.9062035180365264 0.6073268757261109 0  -0.9704322491421731 0.5242996990502788 0  -1.025738797969527 0.4366438540095611 0  -1.070202186275947 0.343944535407558 0  -1.103670973101692 0.2485957827760757 0  -1.126389228933804 0.1507978513523527 0  -1.137950478222229 0.05086987378487464 0  -1.137976188117482 -0.04964910785964444 0  -1.126428275457628 -0.1493714292701678 0  -1.104901500108395 -0.2471654566060083 0  -1.070063429571611 -0.3434271639640138 0  -1.026063129404154 -0.4354322154645965 0  -0.9711030203579388 -0.5233288882278576 0  -0.9071041038145883 -0.6060201214793771 0  -0.8333354667123389 -0.6828841593033426 0  -0.7512697976150643 -0.7523250662402026 0  -0.661848382572768 -0.8139890938561291 0  -0.5672353411837615 -0.8687140435851373 0  -0.4647994392182535 -0.9144814491975196 0  -0.3593088659652919 -0.9519571841502256 0  -0.2498048692825285 -0.9793695876792273 0  -0.1385945829564909 -0.9969924466036818 0  -0.02649355926309062 -1.005761815868214 0  0.08604418066217284 -1.002424463147445 0  0.1987221658412258 -0.9890285154122982 0  0.3090011504696419 -0.9669188062014979 0  0.417327003640085 -0.9345129199637076 0  0.5201479033201928 -0.8933832202384435 0  0.6189064033933158 -0.8434955469672323 0  0.7111028969208102 -0.7859845590576479 0  0.7962991843693283 -0.7196793140473848 0  0.8740713125919819 -0.6457416078536191 0  0.9425993802014099 -0.565743916868884 0  1.002468062885783 -0.4804261404756301 0  1.053019034170011 -0.3900471280945329 0  1.091534106777828 -0.2961755862668106 0  1.11986866157428 -0.1986785583172342 0  1.137157064929552 -0.0998666872397289 0  -2.449046915039804 4.919009369964449 0  -2.448964442662372 -4.911468758002903 0  4.911415774769231 2.448593613486995 0  4.919450301367619 -2.449991794877736 0  2.446780524166575 -4.896870479240699 0  2.441194066569012 4.900596002215355 0  -4.911434681588553 -2.448612382995541 0  -4.91143436902711 2.448616177728505 0  -1.749018045358659 4.912292886779573 0  -1.744782988883006 -4.915682901844459 0  4.921855326058095 1.744702387600398 0  4.910562011319776 -1.748556055207807 0  -4.910840462948318 -1.74827955936467 0  -4.911652826657996 1.748016903337709 0  1.746322056173384 4.906245043680747 0  1.747799202244202 -4.894557484877347 0  -1.149226731043753 4.910347392516777 0  -1.130043932963544 -4.918131865107134 0  -4.910909093850149 -1.148481900968462 0  -4.910733092350912 1.148281534907054 0  1.144196181414638 -4.914381100616889 0  1.149231867539467 4.910338564472805 0  4.911063519616154 1.146761680074427 0  4.921684760552965 -1.152479208300767 0  -0.5468698363246223 -4.911670245618668 0  -0.5466323580800804 4.920200668721783 0  -4.909924141085519 -0.5490166372328023 0  -4.909949215958171 0.5475709000983982 0  4.909277008648764 -0.5493408598463462 0  4.92068101615703 0.546056157311671 0  0.5426710809060254 -4.898792174761276 0  0.5513644988468402 4.917082691793612 0  -4.912542202500218 -3.048850459889592 0  4.919070068044673 3.046830785456048 0  4.912057356220409 -3.048835205910889 0  -4.913386930429692 3.045937536810556 0  3.055720836020088 -4.918024583966973 0  -3.049082904055125 -4.912004455573078 0  3.052640686794895 4.914070585993824 0  -3.048526014499689 4.912888816248167 0  -4.909137989314844 -0.04993847704535533 0  0.04513234510967346 -4.913633412733586 0  0.04958126946655783 4.920532808689079 0  4.916052639374131 -0.05131862712378303 0  3.545951522246513 -4.919475776289449 0  -3.5492613341
[...]
<PointData  Vectors="f_1474"> 
<DataArray  type="Float64"  Name="f_1474"  NumberOfComponents="3" format="ascii">-1.5345954855090190e-40 -1.5965295563549658e-40 0.0000000000000000e+00  1.9161046525529228e-40 -1.9432408675617781e-40 0.0000000000000000e+00  -2.3718225963675510e-40 -2.3781066382576366e-40 0.0000000000000000e+00  -2.9347186418979846e-40 3.0465007117697665e-40 0.0000000000000000e+00  1.4560660364844589e+01 -4.7832348155496662e-01 0.0000000000000000e+00  3.4558073682777451e-40 3.5589278737400332e-40 0.0000000000000000e+00  7.9418000575085451e-40 8.6987188359290307e-40 0.0000000000000000e+00  -1.7646660514218451e-39 -2.0574435510883455e-39 0.0000000000000000e+00  1.8024154835789278e-38 2.0198375309663985e-38 0.0000000000000000e+00  -5.8036631469260273e-38 -6.3520597369829541e-38 0.0000000000000000e+00  2.2165236296387184e-37 2.4316490059700923e-37 0.0000000000000000e+00  -8.0068957748214305e-37 -8.9952732997697201e-37 0.0000000000000000e+00  4.7424149808406622e-36 5.7654944686132897e-36 0.0000000000000000e+00  -2.9160235975615576e-35 -3.7013496194921027e-35 0.0000000000000000e+00  1.1771914174576718e-34 1.5218238050094323e-34 0.0000000000000000e+00  -2.5107480473811226e-34 -3.3583291942588693e-34 0.0000000000000000e+00  4.9502786103545746e-34 6.8194168709310972e-34 0.0000000000000000e+00  1.7696518403413711e-33 2.4909252027902960e-33 0.0000000000000000e+00  -8.0084389478326860e-33 -1.1458293499168196e-32 0.0000000000000000e+00  2.3276140468339798e-32 3.4255186841969647e-32 0.0000000000000000e+00  -1.3122391911695049e-31 -1.9754387581153281e-31 0.0000000000000000e+00  3.4477008287706082e-31 5.2271177993957667e-31 0.0000000000000000e+00  1.8762200651249171e-31 3.2676426225814833e-31 0.0000000000000000e+00  -1.5920605751363959e-30 -2.6800134279301725e-30 0.0000000000000000e+00  -8.2554716783837831e-31 -1.3278787997300488e-30 0.0000000000000000e+00  -2.1681643100495909e-30 -3.5320396040982014e-30 0.0000000000000000e+00  5.2682026209783608e-30 9.2993114597273402e-30 0.0000000000000000e+00  -1.2843672571844253e-29 -2.2585759400559762e-29 0.0000000000000000e+00  4.3511894511695309e-29 7.9666540754192697e-29 0.0000000000000000e+00  2.5748718089786696e-29 5.0427881357289063e-29 0.0000000000000000e+00  -2.1554269927096071e-28 -4.2812469930446076e-28 0.0000000000000000e+00  -7.2905021602669861e-29 -1.5562563501299671e-28 0.0000000000000000e+00  -1.2360651927451106e-28 -2.7284623707844211e-28 0.0000000000000000e+00  2.1264935774853026e-28 4.6372937636939241e-28 0.0000000000000000e+00  6.3744588487491800e-28 1.4909934511442365e-27 0.0000000000000000e+00  -6.4476404276151067e-29 -1.1444365345238895e-28 0.0000000000000000e+00  1.4081334460415896e-28 4.0706856017066269e-28 0.0000000000000000e+00  -1.0808941030173651e-28 -2.6865429150246914e-28 0.0000000000000000e+00  -4.9189538906312385e-28 -1.4459300526843223e-27 0.0000000000000000e+00  -4.4575659094034635e-28 -1.4475182063656462e-27 0.0000000000000000e+00  -2.6712276845405037e-29 -1.7361789440745546e-28 0.0000000000000000e+00  4.7842300441093913e-28 1.7325796842556004e-27 0.0000000000000000e+00  2.6231164005967391e-28 1.0534605274036056e-27 0.0000000000000000e+00  -4.6875179413823912e-29 -1.9174173455313506e-28 0.0000000000000000e+00  8.9863281398261964e-29 4.3045568515994011e-28 0.0000000000000000e+00  2.5128947700305911e-28 1.1201732437374780e-27 0.0000000000000000e+00  3.5775303276097971e-28 1.8788250514690236e-27 0.0000000000000000e+00  -1.7889851597266363e-28 -1.0757830276833932e-27 0.0000000000000000e+00  7.7747187380506294e-28 6.0409131866465461e-27 0.0000000000000000e+00  -3.2181818760602654e-29 -3.5694502641285074e-29 0.0000000000000000e+00  -4.6104359570872120e-28 -5.2320462000322970e-27 0.0000000000000000e+00  -1.5681021530808810e-28 -3.0710693439903315e-27 0.0000000000000000e+00  -1.9720743924882221e-28 -4.3642720619925813e-27 0.0000000000000000e+00  -3.2843117779552628e-28 -1.0862285153101563e-26 0.0000000000000000e+00  -1.4844979969415258e-28 -1.2449759725655568e-26 0.0000000000000000e+00  1.0373750788252904e-29 -2.1628751693216142e-27 0.0000000000000000e+00  1.5824439991534214e-28 -6.8134742328080399e-27 0.0000000000000000e+00  1.8843953302392151e-28 -2.4824019868531744e-27 0.0000000000000000e+00  4.0248704037929495e-28 -4.4216549235547012e-27 0.0000000000000000e+00  -2.2858230220028080e-28 1.9562137161664639e-27 0.0000000000000000e+00  7.2754196080695812e-28 -5.9532914313571195e-27 0.0000000000000000e+00  8.1611780963970301e-28 -5.3977788104654725e-27 0.0000000000000000e+00  -1.6321858438421495e-28 1.0767162006172184e-27 0.0000000000000000e+00  -1.5638691320430032e-27 7.9514239359308294e-27 0.0000000000000000e+00  -6.9665174695596854e-28 3.1558101668460594e-27 0.0000000000000000e+00  -3.9815536978415184e-28 1.8605717261228136e-27 0.0000000000000000e+00  -1.1501244493075868e-27 4.5483724942730108e-27 0.0000000000000000e+00  -6.7972504849980602e-28 2.4022657585538934e-27 0.0000000000000000e+00  7.8996777512237162e-28 -2.6905189825561748e-27 0.0000000000000000e+00  4.0439378736066008e-28 -1.2657250008277124e-27 0.0000000000000000e+00  8.3940158912347780e-29 -2.7203329134834155e-28 0.0000000000000000e+00  3.3836594995018929e-28 -9.7076228230618193e-28 0.0000000000000000e+00  2.9149699123913724e-28 -7.5858240778689133e-28 0.0000000000000000e+00  -2.4900518534560627e-28 6.3233041573107690e-28 0.0000000000000000e+00  -1.9464015914933557e-28 4.5751425648248395e-28 0.0000000000000000e+00  -1.4196562531245507e-28 3.1770642012279520e-28 0.0000000000000000e+00  1.9526127851718742e-29 -4.8665784005740501e-29 0.0000000000000000e+00  1.0119260668922196e-28 -2.1437445024660391e-28 0.0000000000000000e+00  1.4380962004222462e-28 -2.8269310161022734e-28 0.0000000000000000e+00  -5.5378277028482571e-30 1.4738811596401543e-29 0.0000000000000000e+00  -1.0005424133888976e-28 1.8467840990901484e-28 0.0000000000000000e+00  1.6343593021982258e-29 -3.0447427586733010e-29 0.0000000000000000e+00  5.4898729712129721e-30 -9.1950080444026104e-30 0.0000000000000000e+00  -1.4341840099678822e-29 2.4948948732316498e-29 0.0000000000000000e+00  -1.0758959481808818e-30 1.7185620864145175e-30 0.0000000000000000e+00  1.6169169061243261e-30 -2.6584936200183553e-30 0.0000000000000000e+00  -8.3526914754364671e-31 1.3480481430158677e-30 0.0000000000000000e+00  1.0520422825147990e-31 -1.6772090255770244e-31 0.0000000000000000e+00  -1.2612073450798693e-32 1.9159671375495600e-32 0.0000000000000000e+00  -6.0291327004884061e-34 9.7386024322256698e-34 0.0000000000000000e+00  6.8061814032585587e-33 -9.7756432390398678e-33 0.0000000000000000e+00  3.5638855829846967e-34 -4.3114459602860634e-34 0.0000000000000000e+00  -4.3914588240011802e-34 5.9395501893940775e-34 0.0000000000000000e+00  4.8685030740428767e-35 -6.8596859617425226e-35 0.0000000000000000e+00  -1.9048251956958705e-35 2.4793436345803010e-35 0.0000000000000000e+00  4.5087799047996843e-36 -5.6354856498266939e-36 0.0000000000000000e+00  -1.5601614867075184e-36 1.8826735215568689e-36 0.0000000000000000e+00  5.0289306593253931e-37 -5.8859926295612386e-37 0.0000000000000000e+00  -2.5080233109829633e-37 2.8830313668285333e-37 0.0000000000000000e+00  8.4580093693051436e-38 -9.5948830896601333e-38 0.0000000000000000e+00  -1.7240337807266456e-38 1.9149019144098083e-38 0.0000000000000000e+00  6.9796780309315671e-39 -7.5722841277335473e-39 0.0000000000000000e+00  -4.3107379091749927e-40 4.7572201448731850e-40 0.0000000000000000e+00  -3.2862425605876089e-40 3.3694134583711390e-40 0.0000000000000000e+00  -1.0902790945093493e-41 6.0320279983432454e-42 0.0000000000000000e+00  3.9835207343738803e-40 -3.8723537067905705e-40 0.0000000000000000e+00  -9.1986902008177437e-40 8.6009496247375252e-40 0.0000000000000000e+00  3.4766359654777336e-39 -3.1937671171085520e-39 0.0000000000000000e+00  -2.2230397332254955e-39 2.0187673921014500e-39 0.0000000000000000e+00  -1.5605334780838286e-38 1.3639726453317332e-38 0.0000000000000000e+00  6.1597289447676681e-38 -5.2845272935613217e-38 0.0000000000000000e+00  -8.4526288600991304e-38 7.1355809584665226e-38 0.0000000000000000e+00  -1.4423768253801754e-37 1.1636662989864213e-37 0.0000000000000000e+00  9.4450198845508724e-37 -7.5291146434140233e-37 0.0000000000000000e+00  -1.6613084660610541e-36 1.3061776020187344e-36 0.0000000000000000e+00  -1.3556021819477283e-36 9.8598767525361975e-37 0.0000000000000000e+00  1.3038675496898045e-35 -9.6151473796693937e-36 0.0000000000000000e+00  -2.5383511057295159e-35 1.8403116855913137e-35 0.0000000000000000e+00  -1.7775681140311468e-35 1.1817710460226832e-35 0.0000000000000000e+00  1.8874227668386675e-34 -1.2775377281174408e-34 0.0000000000000000e+00  -3.0454592931052619e-34 2.0454612862803902e-34 0.0000000000000000e+00  -4.0564335909407858e-34 2.5167433558865117e-34 0.0000000000000000e+00  2.5522413964307629e-33 -1.5778073124849880e-33 0.0000000000000000e+00  -2.5456160240673567e-33 1.5729507239361436e-33 0.0000000000000000e+00  -9.1815937833070438e-33 5.2243888474520056e-33 0.0000000000000000e+00  2.9167172558394255e-32 -1.6491452816398310e-32 0.0000000000000000e+00  2.2979618080848638e-33 -4.4075777006632098e-34 0.0000000000000000e+00  -1.5755956723283305e-31 8.1217962601429693e-32 0.0000000000000000e+00  2.0991903941945205e-31 -1.0712797364920407e-31 0.0000000000000000e+00  5.2238982242026582e-31 -2.4280544488505471e-31 0.0000000000000000e+00  -1.5602975107852564e-30 7.2080537032049222e-31 0.0000000000000000e+00  -8.8020966382931120e-31 3.4832362057138822e-31 0.0000000000000000e+00  8.2622481916221142e-30 -3.4527598918777597e-30 0.0000000000000000e+00  -2.5033542696930126e-30 1.1701587037653741e-30 0.0000000000000000e+00  -3.6200132107728939e-29 1.3549940529586150e-29 0.0000000000000000e+00  3.0075965406577570e-29 -1.1389981564759128e-29 0.0000000000000000e+00  1.4635965112191320e-28 -4.8895736394920494e-29 0.0000000000000000e+00  -1.6587083810649638e-28 5.4964319180826760e-29 0.0000000000000000e+00  -6.0532858622525528e-28 1.7837695400325333e-28 0.0000000000000000e+00  6.4156688220688569e-28 -1.9214961826047646e-28 0.0000000000000000e+00  2.5071430918830860e-27 -6.4551655078099269e-28 0.0000000000000000e+00  -1.9097427905036872e-27 4.9162743703830955e-28 0.0000000000000000e+00  -9.6299057227194754e-27 2.0688979087315112e-27 0.0000000000000000e+00  2.5264921281228522e-27 -5.1731596888097408e-28 0.0000000000000000e+00  3.0104517156374364e-26 -5.2842108816234766e-27 0.0000000000000000e+00  1.4549289400809748e-26 -2.1411689137652544e-27 0.0000000000000000e+00  -8.5624954935324035e-26 1.2083406899814886e-26 0.0000000000000000e+00  -1.2974703118683336e-25 1.5571606236951474e-26 0.0000000000000000e+00  1.4523963453499249e-25 -1.5218820448992827e-26 0.0000000000000000e+00  8.4776600414580362e-25 -6.3984675432016610e-26 0.0000000000000000e+00  1.5469153650984370e-24 -8.0608182410102032e-26 0.0000000000000000e+00  1.8854283466228985e-24 -5.8643928514935117e-26 0.0000000000000000e+00  1.8421820059749044e-24 -2.4466847899044102e-26 0.0000000000000000e+00  1.8610802676022028e-24 9.1963335856787862e-29 0.0000000000000000e+00  1.9905132608943469e-24 2.9636836523549634e-26 0.0000000000000000e+00  1.8445855706428913e-24 6.0806144220509301e-26 0.0000000000000000e+00  1.2084321248259152e-24 6.3628115472743821e-26 0.0000000000000000e+00  3.5961058544672192e-25 2.7257638643158624e-26 0.0000000000000000e+00  -1.5993850231273297e-25 -1.3374553349360514e-26 0.0000000000000000e+00  -2.1183427408020782e-25 -2.3293123893708277e-26 0.0000000000000000e+00  -3.7758785704059519e-26 -5.1134829674489651e-27 0.0000000000000000e+00  5.9299938970712434e-26 8.9977389030688706e-27 0.0000000000000000e+00  3.6279859963871568e-26 6.3908471085040026e-27 0.0000000000000000e+00  -5.0424845518501671e-27 -9.3443869675334771e-28 0.0000000000000000e+00  -1.0579492814911392e-26 -2.2920512628013112e-27 0.0000000000000000e+00  -6.9700208169107124e-28 -1.8184005855924927e-28 0.0000000000000000e+00  2.6464911346632501e-27 6.7403549789229627e-28 0.0000000000000000e+00  3.7159729943226967e-28 1.0695833890673275e-28 0.0000000000000000e+00  -6.2865881108174900e-28 -1.8523647458048941e-28 0.0000000000000000e+00  -8.4191453826758084e-29 -2.7885466942979231e-29 0.0000000000000000e+00  1.4601393261331863e-28 4.9554451638135882e-29 0.0000000000000000e+00  6.0431874041200637e-30 2.6038929220653054e-30 0.0000000000000000e+00  -3.2634016394405199e-29 -1.2498622135189733e-29 0.0000000000000000e+00  2.8637285077573407e-30 1.0548432528381007e-30 0.0000000000000000e+00  6.2053009417238907e-30 2.6827180521192363e-30 0.0000000000000000e+00  -1.8338309987055533e-30 -7.8885775748061917e-31 0.0000000000000000e+00  -9.1310117599008505e-31 -4.3855316944932906e-31 0.0000000000000000e+00  5.9134791566301398e-31 2.8504720881759931e-31 0.0000000000000000e+00  3.1823964246980525e-32 1.9999172404302263e-32 0.0000000000000000e+00  -1.2998326452508127e-31 -6.8274218971420911e-32 0.0000000000000000e+00  2.9348589296667985e-32 1.5113952274185158e-32 0.0000000000000000e+00  1.8628686665268121e-32 1.0708296086859482e-32 0.0000000000000000e+00  -1.1937525957888441e-32 -6.8478526297248448e-33 0.0000000000000000e+00  1.7972007530935752e-34 3.3292040791210038e-35 0.0000000000000000e+00  2.1467978722365877e-33 1.3494591900537627e-33 0.0000000000000000e+00  -8.1392905980352487e-34 -5.0994153560407677e-34 0.0000000000000000e+00  -1.1363121823109597e-34 -8.1456079978265474e-35 0.0000000000000000e+00  1.9574772820882847e-34 1.3309985363138952e-34 0.0000000000000000e+00  -5.5108251046952943e-35 -3.7711863482479552e-35 0.0000000000000000e+00  -1.2779026712504371e-35 -9.5203836103240972e-36 0.0000000000000000e+00  1.4485278371302284e-35 1.0681354523955540e-35 0.0000000000000000e+00  -3.7742599949668216e-36 -2.7994956665375605e-36 0.0000000000000000e+00  -8.9006728127475031e-37 -7.1125548083281828e-37 0.0000000000000000e+00  1.0145078684377440e-36 8.0671947437506579e-37 0.0000000000000000e+00  -2.9377235540975198e-37 -2.3683431540144897e-37 0.0000000000000000e+00  -3.5886178068690511e-38 -3.0856892944192665e-38 0.0000000000000000e+00  6.3568795974685436e-38 5.4390982990707237e-38 0.0000000000000000e+00  -2.4240049021190352e-38 -2.1062333671958171e-38 0.0000000000000000e+00  8.9558916190700893e-40 7.4170276094609228e-40 0.0000000000000000e+00  3.3857856737411849e-39 3.0912083196084134e-39 0.0000000000000000e+00  -1.7731236491771261e-39 -1.6427594753866650e-39 0.0000000000000000e+00  3.8399471870888838e-40 3.6102349831214335e-40 0.0000000000000000e+00  1.8205272822963469e-40 1.7819637949527323e-40 0.0000000000000000e+00  3.5385041476601878e-40 3.7198453894988284e-40 0.0000000000000000e+00  -1.0265861875876079e-39 -1.0891927623956476e-39 0.0000000000000000e+00  2.0254763888887396e-39 2.2097971200376543e-39 0.0000000000000000e+00  -1.3731762456305967e-38 -1.4964969422092982e-38 0.0000000000000000e+00  9.8968997950745195e-38 1.0786573655194527e-37 0.0000000000000000e+00  -2.3110601290926634e-37 -2.5442789065241100e-37 0.0000000000000000e+00  2.6983637625952991e-37 3.0953973808614512e-37 0.0000000000000000e+00  -4.1335479933593930e-36 -4.9206771753526552e-36 0.0000000000000000e+00  1.2967304775321708e-35 1.5783804090863683e-35 0.0000000000000000e+00  -5.5933720153392005e-35 -6.9694984898432995e-35 0.0000000000000000e+00  1.2424766720319656e-34 1.6003023273015285e-34 0.0000000000000000e+00  -2.5276053088530302e-34 -3.4405107459025690e-34 0.0000000000000000e+00  1.3281812954083540e-33 1.7923805145094149e-33 0.0000000000000000e+00  -9.8332686574373216e-34 -1.3164655723510058e-33 0.0000000000000000e+00  5.3451338105555708e-33 7.1227680919607326e-33 0.0000000000000000e+00  4.1791009121635523e-32 6.3600134304671213e-32 0.0000000000000000e+00  -1.9599050585000044e-31 -2.9349550869742307e-31 0.0000000000000000e+00  -5.4625273460442701e-31 -8.8039996917995100e-31 0.0000000000000000e+00  1.0576883362443952e-30 1.7362285172921610e-30 0.0000000000000000e+00  -1.3447535851344920e-31 -2.0469856163095180e-31 0.0000000000000000e+00  -3.2305905471705465e-30 -5.5871982314134492e-30 0.0000000000000000e+00  9.5667171675677171e-30 1.6574433870044140e-29 0.0000000000000000e+00  1.4446542009871938e-29 2.7284809735441741e-29 0.0000000000000000e+00  -9.4095087316153033e-29 -1.7739480632194609e-28 0.0000000000000000e+00  3.0513432175277554e-29 5.8315592868865144e-29 0.0000000000000000e+00  9.9423884347686458e-29 2.0677093950217903e-28 0.0000000000000000e+00  3.6760277357803124e-29 7.3669867965045908e-29 0.0000000000000000e+00  3.1902756906210209e-28 6.8346917226023809e-28 0.0000000000000000e+00  1.3676059451256994e-28 3.2715873001565026e-28 0.0000000000000000e+00  -3.8198888690801573e-28 -8.4643683184093304e-28 0.0000000000000000e+00  -3.9981577224971339e-28 -1.0672750513609829e-27 0.0000000000000000e+00  3.9013839383373504e-28 9.8247179061557859e-28 0.0000000000000000e+00  7.0689301198854109e-28 1.8858132657547552e-27 0.0000000000000000e+00  3.7776755097555484e-28 1.1775556453584488e-27 0.0000000000000000e+00  9.5860834505883763e-29 4.7938345121837843e-28 0.0000000000000000e+00  -8.0620841638843450e-28 -2.5630295200333786e-27 0.0000000000000000e+00  -2.8531101779677790e-28 -8.6983950731985181e-28 0.0000000000000000e+00  -1.2425156526222392e-28 -3.7991689313569163e-28 0.0000000000000000e+00  -3.9149831052821659e-28 -1.6112869453069855e-27 0.0000000000000000e+00  -3.4220312523840124e-28 -1.5286994951423492e-27 0.0000000000000000e+00  -3.2474289692256561e-28 -1.9859863385621439e-27 0.0000000000000000e+00  1.1002669758216068e-29 -4.0129286655371581e-28 0.0000000000000000e+00  3.3554940750739677e-28 1.9118746607529087e-27 0.0000000000000000e+00  3.3355376690974838e-29 8.3802667102404517e-29 0.0000000000000000e+00  -2.4178554057475887e-28 -2.3895090447636884e-27 0.0000000000000000e+00  1.2243942024693489e-28 1.1409319731461151e-27 0.0000000000000000e+00  6.9931610266058111e-29 1.0015431172593885e-27 0.0000000000000000e+00  -5.4655273271478600e-29 -1.3805473791241561e-27 0.0000000000000000e+00  -7.4031063686484826e-30 -2.6343061992190480e-28 0.0000000000000000e+00  1.0303958286941801e-30 -1.4779652656509742e-27 0.0000000000000000e+00  -5.7110640078555483e-29 2.2265659493881207e-27 0.0000000000000000e+00  -1.2099949964509129e-28 2.0789732737094817e-27 0.0000000000000000e+00  7.6352445254420546e-29 -1.6469895972253950e-27 0.0000000000000000e+00  -1.2630066201137222e-29 -2.1116756598762053e-28 0.0000000000000000e+00  2.3717961967626742e-28 -2.2949056684427005e-27 0.0000000000000000e+00  -2.6501666138313424e-28 1.6442943355939356e-27 0.0000000000000000e+00  -1.5825958795477769e-28 7.0852944427175594e-28 0.0000000000000000e+00  6.0902860074723198e-29 -7.4581248950505724e-28 0.0000000000000000e+00  -1.5007446404170875e-29 -2.5839529728840618e-28 0.0000000000000000e+00  5.6304007572599350e-28 -2.7542070300847532e-27 0.0000000000000000e+00  7.2232657138046651e-28 -3.3616399227086713e-27 0.0000000000000000e+00  1.1796306303011827e-27 -4.6270451249338172e-27 0.0000000000000000e+00  3.8040945532320426e-28 -1.2715144470307345e-27 0.0000000000000000e+00  -3.2268560052198080e-28 1.2470242119899009e-27 0.0000000000000000e+00  -7.9032636832301825e-28 2.4785496085252442e-27 0.0000000000000000e+00  -9.3507492804346724e-28 2.7048209399326602e-27 0.0000000000000000e+00  -2.6420070546845495e-28 6.7896495255774544e-28 0.0000000000000000e+00  1.6251441250249913e-28 -4.5619008998151923e-28 0.0000000000000000e+00  1.9669765521108458e-28 -5.0795650376828580e-28 0.0000000000000000e+00  8.0791518549511053e-28 -1.8629931467792554e-27 0.0000000000000000e+00  3.3563521184060117e-28 -7.2935975654175163e-28 0.0000000000000000e+00  -2.7722272587169825e-28 5.9190978042428396e-28 0.0000000000000000e+00  -1.0965544947195539e-29 2.6810697713053375e-29 0.0000000000000000e+00  3.1002454044753403e-29 -6.6085864516224498e-29 0.0000000000000000e+00  7.6471588947459907e-29 -1.4865906637960608e-28 0.0000000000000000e+00  -1.5687268501059990e-29 3.0464030857430143e-29 0.0000000000000000e+00  -2.3015224265656534e-29 4.1493581722079654e-29 0.0000000000000000e+00  2.1645