<?xml version="1.0"?>
<VTKFile type="UnstructuredGrid"  version="0.1"  >
<UnstructuredGrid>
<Piece  NumberOfPoints="11902" NumberOfCells="23402">
<Points>
<DataArray  type="Float64"  NumberOfComponents="3"  format="ascii">-5 -5 0  5 -5 0  5 5 0  -5 5 0  1.219377744119727 0.001359680822794248 0  -4.9 -5 0  -4.8 -5 0  -4.7 -5 0  -4.6 -5 0  -4.5 -5 0  -4.4 -5 0  -4.3 -5 0  -4.2 -5 0  -4.1 -5 0  -4 -5 0  -3.9 -5 0  -3.8 -5 0  -3.7 -5 0  -3.6 -5 0  -3.5 -5 0  -3.4 -5 0  -3.3 -5 0  -3.2 -5 0  -3.1 -5 0  -3 -5 0  -2.9 -5 0  -2.8 -5 0  -2.7 -5 0  -2.6 -5 0  -2.5 -5 0  -2.4 -5 0  -2.3 -5 0  -2.2 -5 0  -2.1 -5 0  -2 -5 0  -1.9 -5 0  -1.8 -5 0  -1.7 -5 0  -1.6 -5 0  -1.5 -5 0  -1.4 -5 0  -1.3 -5 0  -1.2 -5 0  -1.1 -5 0  -1 -5 0  -0.9000000000000004 -5 0  -0.7999999999999998 -5 0  -0.7000000000000002 -5 0  -0.5999999999999996 -5 0  -0.5 -5 0  -0.4000000000000004 -5 0  -0.2999999999999998 -5 0  -0.2000000000000002 -5 0  -0.09999999999999964 -5 0  0 -5 0  0.09999999999999964 -5 0  0.2000000000000002 -5 0  0.2999999999999998 -5 0  0.4000000000000004 -5 0  0.5 -5 0  0.5999999999999996 -5 0  0.7000000000000002 -5 0  0.7999999999999998 -5 0  0.9000000000000004 -5 0  1 -5 0  1.1 -5 0  1.2 -5 0  1.3 -5 0  1.4 -5 0  1.5 -5 0  1.6 -5 0  1.7 -5 0  1.8 -5 0  1.9 -5 0  2 -5 0  2.1 -5 0  2.2 -5 0  2.3 -5 0  2.4 -5 0  2.5 -5 0  2.6 -5 0  2.7 -5 0  2.8 -5 0  2.9 -5 0  3 -5 0  3.1 -5 0  3.199999999999999 -5 0  3.300000000000001 -5 0  3.4 -5 0  3.5 -5 0  3.6 -5 0  3.699999999999999 -5 0  3.800000000000001 -5 0  3.9 -5 0  4 -5 0  4.1 -5 0  4.199999999999999 -5 0  4.300000000000001 -5 0  4.4 -5 0  4.5 -5 0  4.6 -5 0  4.699999999999999 -5 0  4.800000000000001 -5 0  4.9 -5 0  5 -4.9 0  5 -4.8 0  5 -4.7 0  5 -4.6 0  5 -4.5 0  5 -4.4 0  5 -4.3 0  5 -4.2 0  5 -4.1 0  5 -4 0  5 -3.9 0  5 -3.8 0  5 -3.7 0  5 -3.6 0  5 -3.5 0  5 -3.4 0  5 -3.3 0  5 -3.2 0  5 -3.1 0  5 -3 0  5 -2.9 0  5 -2.8 0  5 -2.7 0  5 -2.6 0  5 -2.5 0  5 -2.4 0  5 -2.3 0  5 -2.2 0  5 -2.1 0  5 -2 0  5 -1.9 0  5 -1.8 0  5 -1.7 0  5 -1.6 0  5 -1.5 0  5 -1.4 0  5 -1.3 0  5 -1.2 0  5 -1.1 0  5 -1 0  5 -0.9000000000000004 0  5 -0.7999999999999998 0  5 -0.7000000000000002 0  5 -0.5999999999999996 0  5 -0.5 0  5 -0.4000000000000004 0  5 -0.2999999999999998 0  5 -0.2000000000000002 0  5 -0.09999999999999964 0  5 0 0  5 0.09999999999999964 0  5 0.2000000000000002 0  5 0.2999999999999998 0  5 0.4000000000000004 0  5 0.5 0  5 0.5999999999999996 0  5 0.7000000000000002 0  5 0.7999999999999998 0  5 0.9000000000000004 0  5 1 0  5 1.1 0  5 1.2 0  5 1.3 0  5 1.4 0  5 1.5 0  5 1.6 0  5 1.7 0  5 1.8 0  5 1.9 0  5 2 0  5 2.1 0  5 2.2 0  5 2.3 0  5 2.4 0  5 2.5 0  5 2.6 0  5 2.7 0  5 2.8 0  5 2.9 0  5 3 0  5 3.1 0  5 3.199999999999999 0  5 3.300000000000001 0  5 3.4 0  5 3.5 0  5 3.6 0  5 3.699999999999999 0  5 3.800000000000001 0  5 3.9 0  5 4 0  5 4.1 0  5 4.199999999999999 0  5 4.300000000000001 0  5 4.4 0  5 4.5 0  5 4.6 0  5 4.699999999999999 0  5 4.800000000000001 0  5 4.9 0  4.9 5 0  4.8 5 0  4.7 5 0  4.6 5 0  4.5 5 0  4.4 5 0  4.3 5 0  4.2 5 0  4.1 5 0  4 5 0  3.9 5 0  3.8 5 0  3.7 5 0  3.6 5 0  3.5 5 0  3.4 5 0  3.3 5 0  3.2 5 0  3.1 5 0  3 5 0  2.9 5 0  2.8 5 0  2.7 5 0  2.6 5 0  2.5 5 0  2.4 5 0  2.3 5 0  2.2 5 0  2.1 5 0  2 5 0  1.9 5 0  1.8 5 0  1.7 5 0  1.6 5 0  1.5 5 0  1.4 5 0  1.3 5 0  1.2 5 0  1.1 5 0  1 5 0  0.9000000000000004 5 0  0.7999999999999998 5 0  0.7000000000000002 5 0  0.5999999999999996 5 0  0.5 5 0  0.4000000000000004 5 0  0.2999999999999998 5 0  0.2000000000000002 5 0  0.09999999999999964 5 0  0 5 0  -0.09999999999999964 5 0  -0.2000000000000002 5 0  -0.2999999999999998 5 0  -0.4000000000000004 5 0  -0.5 5 0  -0.5999999999999996 5 0  -0.7000000000000002 5 0  -0.7999999999999998 5 0  -0.9000000000000004 5 0  -1 5 0  -1.1 5 0  -1.2 5 0  -1.3 5 0  -1.4 5 0  -1.5 5 0  -1.6 5 0  -1.7 5 0  -1.8 5 0  -1.9 5 0  -2 5 0  -2.1 5 0  -2.2 5 0  -2.3 5 0  -2.4 5 0  -2.5 5 0  -2.6 5 0  -2.7 5 0  -2.8 5 0  -2.9 5 0  -3 5 0  -3.1 5 0  -3.199999999999999 5 0  -3.300000000000001 5 0  -3.4 5 0  -3.5 5 0  -3.6 5 0  -3.699999999999999 5 0  -3.800000000000001 5 0  -3.9 5 0  -4 5 0  -4.1 5 0  -4.199999999999999 5 0  -4.300000000000001 5 0  -4.4 5 0  -4.5 5 0  -4.6 5 0  -4.699999999999999 5 0  -4.800000000000001 5 0  -4.9 5 0  -5 4.9 0  -5 4.8 0  -5 4.7 0  -5 4.6 0  -5 4.5 0  -5 4.4 0  -5 4.3 0  -5 4.2 0  -5 4.1 0  -5 4 0  -5 3.9 0  -5 3.8 0  -5 3.7 0  -5 3.6 0  -5 3.5 0  -5 3.4 0  -5 3.3 0  -5 3.2 0  -5 3.1 0  -5 3 0  -5 2.9 0  -5 2.8 0  -5 2.7 0  -5 2.6 0  -5 2.5 0  -5 2.4 0  -5 2.3 0  -5 2.2 0  -5 2.1 0  -5 2 0  -5 1.9 0  -5 1.8 0  -5 1.7 0  -5 1.6 0  -5 1.5 0  -5 1.4 0  -5 1.3 0  -5 1.2 0  -5 1.1 0  -5 1 0  -5 0.9000000000000004 0  -5 0.7999999999999998 0  -5 0.7000000000000002 0  -5 0.5999999999999996 0  -5 0.5 0  -5 0.4000000000000004 0  -5 0.2999999999999998 0  -5 0.2000000000000002 0  -5 0.09999999999999964 0  -5 0 0  -5 -0.09999999999999964 0  -5 -0.2000000000000002 0  -5 -0.2999999999999998 0  -5 -0.4000000000000004 0  -5 -0.5 0  -5 -0.5999999999999996 0  -5 -0.7000000000000002 0  -5 -0.7999999999999998 0  -5 -0.9000000000000004 0  -5 -1 0  -5 -1.1 0  -5 -1.2 0  -5 -1.3 0  -5 -1.4 0  -5 -1.5 0  -5 -1.6 0  -5 -1.7 0  -5 -1.8 0  -5 -1.9 0  -5 -2 0  -5 -2.1 0  -5 -2.2 0  -5 -2.3 0  -5 -2.4 0  -5 -2.5 0  -5 -2.6 0  -5 -2.7 0  -5 -2.8 0  -5 -2.9 0  -5 -3 0  -5 -3.1 0  -5 -3.199999999999999 0  -5 -3.300000000000001 0  -5 -3.4 0  -5 -3.5 0  -5 -3.6 0  -5 -3.699999999999999 0  -5 -3.800000000000001 0  -5 -3.9 0  -5 -4 0  -5 -4.1 0  -5 -4.199999999999999 0  -5 -4.300000000000001 0  -5 -4.4 0  -5 -4.5 0  -5 -4.6 0  -5 -4.699999999999999 0  -5 -4.800000000000001 0  -5 -4.9 0  1.213049485652238 0.09824814526079043 0  1.193622390150938 0.1959192107354325 0  1.161469934703601 0.2928746450786939 0  1.120029947587661 0.3836564756723693 0  1.065848137503679 0.4741961622601688 0  1.002469840009638 0.5591344115430754 0  0.927831839865716 0.6389068905186895 0  0.8440987458898023 0.7119513614798078 0  0.7535606056792669 0.7774261425659239 0  0.6541271909378022 0.8356605577246222 0  0.5474235935408569 0.8870686276397387 0  0.4372469240188152 0.9293766110683289 0  0.3250207581904224 0.9622594589607825 0  0.2060179326329342 0.9844793903167767 0  0.08914592134002945 1.000293411502865 0  -0.02771611700876457 1.003164685673685 0  -0.1449577952850426 0.9923231129138521 0  -0.2653963097411879 0.9743591411624313 0  -0.3815701719248064 0.9486471837216264 0  -0.4918659183854556 0.9122247221277585 0  -0.5979947166145348 0.8663570766371461 0  -0.6988288059451871 0.8117167138179331 0  -0.7922338459549377 0.7483102593937462 0  -0.8797996141811075 0.6771261730737225 0  -0.9604848533982911 0.5987356511220608 0  -1.030428589403303 0.5167364387554031 0  -1.090403373488741 0.4301647833808373 0  -1.139175973967927 0.3383913848293111 0  -1.175609866120132 0.2451773140345239 0  -1.199862381938344 0.1493683748514116 0  -1.212061386071782 0.05071454055921057 0  -1.212036170988327 -0.04876453930483869 0  -1.199742972009627 -0.1469935911258183 0  -1.176040719084408 -0.2427121343007244 0  -1.138263526080609 -0.3381753234531046 0  -1.090699855692507 -0.4291752035091282 0  -1.031556892244147 -0.5160041117878509 0  -0.9622855861338664 -0.5974858331416594 0  -0.8820766349678024 -0.6746183405384472 0  -0.7943262198262213 -0.7445533913473895 0  -0.6993884716670703 -0.8056692128970808 0  -0.5979795450365455 -0.8597074287692062 0  -0.4886366753936611 -0.9073347610752905 0  -0.3773993732431555 -0.9457034534475868 0  -0.2622414040066088 -0.9732743117395519 0  -0.1435808376164106 -0.9915787096436689 0  -0.02764211603780128 -1.00223703984886 0  0.08967446105148776 -0.9970244273194776 0  0.2095591376458592 -0.9819177602726957 0  0.3269633231073532 -0.9605983624648555 0  0.4409842750441085 -0.9279676606052415 0  0.5493523106995641 -0.8861390681963363 0  0.6549231124302013 -0.8354369360914738 0  0.7536804919850733 -0.7785283580887998 0  0.8441424291205863 -0.7127791519297073 0  0.9272816584347409 -0.6384563863964405 0  1.000719253289586 -0.5585007094489557 0  1.065673693163349 -0.4735191024415469 0  1.121014891410641 -0.3837018409165297 0  1.163013520593333 -0.2911746032182806 0  1.193985121970817 -0.1950399023269663 0  1.213112132717059 -0.09778790790694518 0  -2.448700641362552 4.918369911254153 0  -2.448587664872335 -4.910771515087029 0  4.910702057545268 2.448091608219353 0  4.918802781506826 -2.449535327258551 0  2.446341949696149 -4.896051024272494 0  2.4407698671427 4.899803512133103 0  -4.910726950728268 -2.448115956989036 0  -4.910724813330757 2.448119856433566 0  -1.748660548839516 4.91137196666749 0  -1.744441157053012 -4.914799170865266 0  4.920953419370213 1.744247872941284 0  4.909531941706827 -1.748035031583012 0  -4.909821996558377 -1.747766355970697 0  -4.91064157909893 1.747509143747115 0  1.745942527829448 4.905255707982595 0  1.747373904499536 -4.893446424485504 0  -1.148942278369456 4.909232194836425 0  -1.129787966689928 -4.917112661799287 0  -4.909633544464717 -1.148059476214114 0  -4.909453258453603 1.147859750584614 0  1.143930236625455 -4.913313823251938 0  1.148950664167893 4.909219895949938 0  4.909777223763372 1.146335924483444 0  4.920554961565895 -1.152102592494624 0  -0.5467219550110862 -4.910459294005941 0  -0.546498106734673 4.919103250009188 0  -4.908441725210766 -0.5487817371919562 0  -4.908465959075381 0.5473385969617163 0  4.907769615219938 -0.5491013790027039 0  4.919362556290835 0.5458488240905572 0  0.5425088540111483 -4.897400961917265 0  0.551228010077058 4.915941150029006 0  -4.912064994272175 -3.048440354915135 0  4.918624725084396 3.046446868851212 0  4.911574642657524 -3.04841832243542 0  -4.912911972291516 3.045530655473317 0  3.055412396264412 -4.917555897019737 0  -3.048751159243529 -4.91150365629329 0  3.052315975579527 4.913577870791446 0  -3.04819644718842 4.912391572318361 0  -4.907578104965256 -0.0499150033807387 0  0.04512338686657623 -4.912413349489212 0  0.04957092049980705 4.919406951860114 0  4.914597840682835 -0.05129665720723712 0  3.545706591737624 -4.919147655124605 0  -3.548995300
[...]
<PointData  Vectors="f_2852"> 
<DataArray  type="Float64"  Name="f_2852"  NumberOfComponents="3" format="ascii">-1.1182673845134382e-40 -1.3230248752694325e-40 0.0000000000000000e+00  1.3231932994449233e-40 -1.4977537761669830e-40 0.0000000000000000e+00  -1.9744524753329232e-40 -1.9148837604063115e-40 0.0000000000000000e+00  -2.2485551259743560e-40 2.2725233150711424e-40 0.0000000000000000e+00  1.6031294366614560e+01 -9.6657483480410950e-02 0.0000000000000000e+00  2.6626580432473895e-40 2.9430686182988987e-40 0.0000000000000000e+00  7.1356822921745532e-40 7.1634675093651485e-40 0.0000000000000000e+00  -1.6478868681169259e-39 -1.8077691741712298e-39 0.0000000000000000e+00  1.5071231922420460e-38 1.7357037486891880e-38 0.0000000000000000e+00  -4.9553082717324853e-38 -5.6798240752621537e-38 0.0000000000000000e+00  1.8148023738324907e-37 2.2763548669931466e-37 0.0000000000000000e+00  -6.5329602776160717e-37 -8.6008692964357262e-37 0.0000000000000000e+00  3.8460050565010456e-36 5.0030119536310951e-36 0.0000000000000000e+00  -2.3960591573610032e-35 -3.0028189306605763e-35 0.0000000000000000e+00  9.8770306141040730e-35 1.2593841652559877e-34 0.0000000000000000e+00  -2.1812944212197392e-34 -2.7324998680719261e-34 0.0000000000000000e+00  4.4052704507842646e-34 5.3231031744316023e-34 0.0000000000000000e+00  1.6357529084881084e-33 2.0260221836531069e-33 0.0000000000000000e+00  -7.0215053018864743e-33 -9.3901497628133126e-33 0.0000000000000000e+00  1.9078081401704052e-32 2.7810000713612785e-32 0.0000000000000000e+00  -1.1204198098723750e-31 -1.6116733475385527e-31 0.0000000000000000e+00  2.9736611122110087e-31 4.3009430325088375e-31 0.0000000000000000e+00  1.9648689871719635e-31 2.6426069797500870e-31 0.0000000000000000e+00  -1.5831435429971791e-30 -2.2011325944539077e-30 0.0000000000000000e+00  -5.9051318483597170e-31 -1.1306503715162112e-30 0.0000000000000000e+00  -1.2249011904973346e-30 -2.4839371084865072e-30 0.0000000000000000e+00  4.0506589818840935e-30 7.6642291707523726e-30 0.0000000000000000e+00  -9.0465780288996304e-30 -2.4810507216291002e-29 0.0000000000000000e+00  3.2904977790598862e-29 7.5700546112881707e-29 0.0000000000000000e+00  1.8718127020337987e-29 4.6244764509436819e-29 0.0000000000000000e+00  -1.6540070498371480e-28 -3.7952658788785092e-28 0.0000000000000000e+00  -6.1295225695019938e-29 -1.5596124535548403e-28 0.0000000000000000e+00  -1.0125373083900963e-28 -3.2176625245277866e-28 0.0000000000000000e+00  1.6619094980412400e-28 4.6534839826681416e-28 0.0000000000000000e+00  4.7084399978116253e-28 1.4579452414995393e-27 0.0000000000000000e+00  2.3641392337687154e-30 -9.6434102417791325e-29 0.0000000000000000e+00  1.5600042245949034e-28 4.1993109207166409e-28 0.0000000000000000e+00  -7.4338751551250500e-29 -2.6787912083797941e-28 0.0000000000000000e+00  -4.7039921262491344e-28 -1.4775164612080258e-27 0.0000000000000000e+00  -4.4063845984670871e-28 -1.4382376170204223e-27 0.0000000000000000e+00  -1.0840833511570120e-29 -9.6718011020052021e-29 0.0000000000000000e+00  4.4934036760958895e-28 1.7009441635186372e-27 0.0000000000000000e+00  2.7662951731428612e-28 1.0127918445526260e-27 0.0000000000000000e+00  8.3642852195116355e-31 -1.5168888046890470e-28 0.0000000000000000e+00  1.2198960188876534e-28 4.0856542231619276e-28 0.0000000000000000e+00  -8.7296067526536796e-29 9.7768615079003608e-28 0.0000000000000000e+00  4.2829029360988635e-29 1.6743314587118325e-27 0.0000000000000000e+00  3.1424100009861620e-29 -9.9459006607255903e-28 0.0000000000000000e+00  2.9951514022643044e-28 5.3726833311192073e-27 0.0000000000000000e+00  -1.7149179041685423e-28 -1.0738759806439019e-29 0.0000000000000000e+00  -5.1245334228113243e-28 -4.5928556829536869e-27 0.0000000000000000e+00  -4.2878423525593403e-28 -2.6096451123768883e-27 0.0000000000000000e+00  -3.0164966394312510e-28 -3.7892155367268230e-27 0.0000000000000000e+00  -7.6305159878718561e-29 -9.7267002553598769e-27 0.0000000000000000e+00  7.7312731781626889e-29 -1.1147133218404038e-26 0.0000000000000000e+00  -2.0344747214464628e-29 -1.9059438993158728e-27 0.0000000000000000e+00  4.6654205947436691e-29 -5.9810169006696662e-27 0.0000000000000000e+00  4.7554187688167059e-29 -2.0917126862847924e-27 0.0000000000000000e+00  1.9688844874290375e-28 -3.8327812939671670e-27 0.0000000000000000e+00  -1.3551063638631050e-28 1.8631311541388614e-27 0.0000000000000000e+00  4.9281835721659283e-28 -5.1015503561873211e-27 0.0000000000000000e+00  6.2132518998775309e-28 -4.6481579422930656e-27 0.0000000000000000e+00  -7.0155332301949852e-29 1.0319315882356823e-27 0.0000000000000000e+00  -9.3396499777955736e-28 7.0951727356231024e-27 0.0000000000000000e+00  -4.5169018750910759e-28 2.8254674857224658e-27 0.0000000000000000e+00  -3.4705363446529906e-28 1.5744783453937712e-27 0.0000000000000000e+00  -7.9696274745418654e-28 4.0750344251296521e-27 0.0000000000000000e+00  -4.6677711685254175e-28 2.1576654258005642e-27 0.0000000000000000e+00  5.0134511520619979e-28 -2.4871949105548553e-27 0.0000000000000000e+00  3.0732465632776338e-28 -1.1690573550400067e-27 0.0000000000000000e+00  6.6348160922057515e-29 -1.9504248985507789e-28 0.0000000000000000e+00  2.9963446974600678e-28 -8.6513093578605541e-28 0.0000000000000000e+00  2.1329767573526124e-28 -6.7813684299906025e-28 0.0000000000000000e+00  -1.8432431739911929e-28 5.8451634138872296e-28 0.0000000000000000e+00  -1.1655614998278609e-28 3.5000140637981936e-28 0.0000000000000000e+00  -9.1552997844164210e-29 2.6493979828256212e-28 0.0000000000000000e+00  1.7952093746237952e-29 -5.7017381061099721e-29 0.0000000000000000e+00  6.3722708828610128e-29 -1.7016832887251025e-28 0.0000000000000000e+00  9.3278550973055514e-29 -2.3235882748412576e-28 0.0000000000000000e+00  -7.3810273261168257e-30 1.3645654054369722e-29 0.0000000000000000e+00  -7.1490873388881284e-29 1.6013520826464768e-28 0.0000000000000000e+00  1.1637299764827462e-29 -2.5832434429766912e-29 0.0000000000000000e+00  4.0397718766333539e-30 -8.4392356811876366e-30 0.0000000000000000e+00  -1.2087625334066538e-29 2.2110725165089488e-29 0.0000000000000000e+00  -1.1223643221053391e-30 1.5355460829784413e-30 0.0000000000000000e+00  1.4540270321456812e-30 -2.3328368838567446e-30 0.0000000000000000e+00  -7.2399771307644321e-31 1.1325639032711305e-30 0.0000000000000000e+00  9.8524354854130252e-32 -1.5606791034382167e-31 0.0000000000000000e+00  -1.0988330652757804e-32 1.7148536480557740e-32 0.0000000000000000e+00  -1.6296430264908508e-33 2.1415332628276077e-33 0.0000000000000000e+00  6.3111551671122900e-33 -8.2046701656859825e-33 0.0000000000000000e+00  1.3945427886160836e-34 -1.1796368975161027e-34 0.0000000000000000e+00  -3.2395906947771221e-34 3.9203793158233818e-34 0.0000000000000000e+00  3.2129655535679523e-35 -3.4748711867349141e-35 0.0000000000000000e+00  -1.1595203864122405e-35 1.4575406778239625e-35 0.0000000000000000e+00  3.4159568943838755e-36 -4.0649880444271362e-36 0.0000000000000000e+00  -1.5600937620552858e-36 1.7049459602707253e-36 0.0000000000000000e+00  4.7848999188873501e-37 -5.4170284658569461e-37 0.0000000000000000e+00  -2.3680923444166483e-37 2.5572524483490062e-37 0.0000000000000000e+00  7.8706785858336803e-38 -8.2807093435350138e-38 0.0000000000000000e+00  -1.5060344369346124e-38 1.6064857127810888e-38 0.0000000000000000e+00  5.9851427052262531e-39 -6.1635418351476102e-39 0.0000000000000000e+00  -4.2805619760869828e-40 3.9951793112260624e-40 0.0000000000000000e+00  -2.3168796284119306e-40 2.6049049608522979e-40 0.0000000000000000e+00  4.3967466113942796e-44 2.4539059257644783e-42 0.0000000000000000e+00  3.7225015807355163e-40 -3.2192604331831050e-40 0.0000000000000000e+00  -8.4127937349711263e-40 7.1735677117965072e-40 0.0000000000000000e+00  2.8243017487012733e-39 -2.5856798248620656e-39 0.0000000000000000e+00  -1.1988338912680632e-39 1.4570417300106769e-39 0.0000000000000000e+00  -1.4649336986496260e-38 1.1784401588900148e-38 0.0000000000000000e+00  5.2668224013528723e-38 -4.4383493209927418e-38 0.0000000000000000e+00  -6.4662857405680912e-38 5.7901072358975820e-38 0.0000000000000000e+00  -1.4658545400270978e-37 1.0675146635200004e-37 0.0000000000000000e+00  8.3559259569838245e-37 -6.5524517216357042e-37 0.0000000000000000e+00  -1.3668248164999402e-36 1.1082831679804356e-36 0.0000000000000000e+00  -1.4642454246966814e-36 9.7321556156744255e-37 0.0000000000000000e+00  1.1670760270518172e-35 -8.6206292757325475e-36 0.0000000000000000e+00  -2.1505716926523566e-35 1.6132317676673811e-35 0.0000000000000000e+00  -1.8671950432048690e-35 1.2094742997675055e-35 0.0000000000000000e+00  1.6911461815774157e-34 -1.1787227805424176e-34 0.0000000000000000e+00  -2.6009661091644856e-34 1.8278117932166073e-34 0.0000000000000000e+00  -3.8910470848469497e-34 2.5280043074461955e-34 0.0000000000000000e+00  2.2779048821216114e-33 -1.4927237309520917e-33 0.0000000000000000e+00  -2.1399614456071109e-33 1.3968388738838499e-33 0.0000000000000000e+00  -8.4694151761121536e-33 5.2652331069138926e-33 0.0000000000000000e+00  2.5906171562092790e-32 -1.5843848406693971e-32 0.0000000000000000e+00  3.7165308706310009e-33 -2.1975421434965467e-33 0.0000000000000000e+00  -1.4344798304710160e-31 8.2889448447991440e-32 0.0000000000000000e+00  1.8337935442625295e-31 -1.0117343347585640e-31 0.0000000000000000e+00  4.9024582968714952e-31 -2.7003128975011976e-31 0.0000000000000000e+00  -1.4143184573544048e-30 7.3709800581695126e-31 0.0000000000000000e+00  -8.9093474804469665e-31 4.9504069459647470e-31 0.0000000000000000e+00  7.6845664212847817e-30 -3.7710626578662578e-30 0.0000000000000000e+00  -2.0413058111355016e-30 6.5511809997179402e-31 0.0000000000000000e+00  -3.4399439306020124e-29 1.5895047691621736e-29 0.0000000000000000e+00  2.7727303397812676e-29 -1.0150720388641999e-29 0.0000000000000000e+00  1.4182964987827847e-28 -6.1925783234984635e-29 0.0000000000000000e+00  -1.5871328395829518e-28 5.2334313881093067e-29 0.0000000000000000e+00  -5.9682484742714394e-28 2.4215836922535512e-28 0.0000000000000000e+00  6.2954219200372321e-28 -1.6707724411763724e-28 0.0000000000000000e+00  2.5014896657369720e-27 -9.1515715469627476e-28 0.0000000000000000e+00  -1.9016161197843573e-27 2.9396916667121314e-28 0.0000000000000000e+00  -9.6745050757032391e-27 2.8431292472134686e-27 0.0000000000000000e+00  2.6114564135038876e-27 5.6931268941416186e-28 0.0000000000000000e+00  3.0548913767621152e-26 -6.5810230716940219e-27 0.0000000000000000e+00  1.5102619199382332e-26 -5.6787149108708427e-27 0.0000000000000000e+00  -8.5294997615128727e-26 1.2030773094523244e-26 0.0000000000000000e+00  -1.2903186334517249e-25 1.9212445595508701e-26 0.0000000000000000e+00  1.4447051208480829e-25 -2.7978538318615018e-26 0.0000000000000000e+00  8.3466946999494118e-25 -1.3225483521803778e-25 0.0000000000000000e+00  1.5096797282130280e-24 -2.1188041299815421e-25 0.0000000000000000e+00  1.8222925928761628e-24 -2.0816438405800957e-25 0.0000000000000000e+00  1.7625274760844613e-24 -1.1471396614492225e-25 0.0000000000000000e+00  1.7674470123917814e-24 1.3075725199962423e-26 0.0000000000000000e+00  1.8870699693202459e-24 1.2952029983542316e-25 0.0000000000000000e+00  1.7540051516891337e-24 1.8064046437063168e-25 0.0000000000000000e+00  1.1599768708065978e-24 1.4159140203373334e-25 0.0000000000000000e+00  3.5946803043301495e-25 4.6053150287741216e-26 0.0000000000000000e+00  -1.3705790142930008e-25 -2.4981881654543978e-26 0.0000000000000000e+00  -1.9420383621403148e-25 -3.2458285646408245e-26 0.0000000000000000e+00  -3.4356851382764746e-26 -1.7883003511183976e-27 0.0000000000000000e+00  5.6326278290661128e-26 1.5677983747632180e-26 0.0000000000000000e+00  3.4528081577358632e-26 8.8021336538649245e-27 0.0000000000000000e+00  -4.5627422515994317e-27 -1.6250216663810718e-27 0.0000000000000000e+00  -9.7961976764205237e-27 -2.8776503898296859e-27 0.0000000000000000e+00  -5.2426896896562984e-28 -5.6738252758197678e-29 0.0000000000000000e+00  2.4960698588480440e-27 8.3873168222316234e-28 0.0000000000000000e+00  3.0186570595617412e-28 8.4117369583381696e-29 0.0000000000000000e+00  -6.0222574136394144e-28 -2.2223730134629574e-28 0.0000000000000000e+00  -6.6788163014377126e-29 -2.0824497589492457e-29 0.0000000000000000e+00  1.4019508987183329e-28 5.6127426637439120e-29 0.0000000000000000e+00  2.7057704106215827e-30 -9.3114978371905590e-32 0.0000000000000000e+00  -3.0991016932306817e-29 -1.3322058813713510e-29 0.0000000000000000e+00  3.2566800332786984e-30 1.7756682493744228e-30 0.0000000000000000e+00  5.7872003196286961e-30 2.6570649876727639e-30 0.0000000000000000e+00  -1.7967771061440462e-30 -9.3620634943958286e-31 0.0000000000000000e+00  -8.3199864022215657e-31 -3.9648680045537734e-31 0.0000000000000000e+00  5.5605741562491244e-31 3.0099721387970957e-31 0.0000000000000000e+00  2.5279251462337041e-32 6.9458735873821605e-33 0.0000000000000000e+00  -1.1905064989668675e-31 -6.7252175709501716e-32 0.0000000000000000e+00  2.7121155593108735e-32 1.7189593607800890e-32 0.0000000000000000e+00  1.6734032018772730e-32 9.6865413316975691e-33 0.0000000000000000e+00  -1.0732403447301743e-32 -6.7878864929019635e-33 0.0000000000000000e+00  1.7639341500289778e-34 2.0066802598930171e-34 0.0000000000000000e+00  1.8994119037364168e-33 1.2497278186931195e-33 0.0000000000000000e+00  -7.1898399854972595e-34 -4.9678332234452405e-34 0.0000000000000000e+00  -9.7233799343929115e-35 -6.5147388397181287e-35 0.0000000000000000e+00  1.6999741441720308e-34 1.2171087931088851e-34 0.0000000000000000e+00  -4.8321200964899955e-35 -3.5551450998347933e-35 0.0000000000000000e+00  -1.0542503164198240e-35 -8.0515433043621624e-36 0.0000000000000000e+00  1.2350445251435680e-35 9.5229420478567538e-36 0.0000000000000000e+00  -3.3033035284043172e-36 -2.5473771282635643e-36 0.0000000000000000e+00  -6.9681800989237688e-37 -5.9437366939034022e-37 0.0000000000000000e+00  8.4647310523952812e-37 6.9912757027330696e-37 0.0000000000000000e+00  -2.5464647334178713e-37 -2.0726178444890551e-37 0.0000000000000000e+00  -2.3766964826813688e-38 -2.4657383916447803e-38 0.0000000000000000e+00  5.1306344654826451e-38 4.5763151072199994e-38 0.0000000000000000e+00  -2.0467483510464553e-38 -1.7818011209267683e-38 0.0000000000000000e+00  1.2593969722292213e-39 7.2316477980695619e-40 0.0000000000000000e+00  2.5793698660444652e-39 2.5261345489802530e-39 0.0000000000000000e+00  -1.4379578143438881e-39 -1.3496872152321635e-39 0.0000000000000000e+00  3.3590133763822954e-40 2.9953561533056155e-40 0.0000000000000000e+00  1.2413930689514603e-40 1.4129014215140497e-40 0.0000000000000000e+00  3.0881061303444129e-40 3.0044396304476756e-40 0.0000000000000000e+00  -7.8358209220427715e-40 -8.6818627185160319e-40 0.0000000000000000e+00  1.5915147184131069e-39 1.7909639213400189e-39 0.0000000000000000e+00  -1.0628000387607581e-38 -1.2159778197033622e-38 0.0000000000000000e+00  8.3653725740676911e-38 8.8463198413276864e-38 0.0000000000000000e+00  -2.1597201092049606e-37 -2.1630749315188553e-37 0.0000000000000000e+00  2.6823332674189877e-37 2.8045831088347935e-37 0.0000000000000000e+00  -3.5716686078211184e-36 -4.1477734930821343e-36 0.0000000000000000e+00  1.0026432660829417e-35 1.3021990163373828e-35 0.0000000000000000e+00  -3.9730249680417777e-35 -5.5705922906238227e-35 0.0000000000000000e+00  8.7804132034941047e-35 1.2279704768354752e-34 0.0000000000000000e+00  -1.4215995912203850e-34 -2.2744158420532112e-34 0.0000000000000000e+00  8.8938621228402258e-34 1.2645047236126814e-33 0.0000000000000000e+00  -3.2927417579680431e-34 -4.7398422948301023e-34 0.0000000000000000e+00  2.7720807711363199e-33 4.4647861240115075e-33 0.0000000000000000e+00  3.5419599612718194e-32 4.9903270884085934e-32 0.0000000000000000e+00  -1.5234451663022334e-31 -2.1924219601272054e-31 0.0000000000000000e+00  -4.9892423618360833e-31 -7.3468342248480676e-31 0.0000000000000000e+00  1.0752960065817568e-30 1.5826584729519080e-30 0.0000000000000000e+00  -4.3541845868189879e-31 -6.1125324942336129e-31 0.0000000000000000e+00  -2.8680351815966473e-30 -5.3680705585091179e-30 0.0000000000000000e+00  8.7713866529378398e-30 1.8580798874089256e-29 0.0000000000000000e+00  1.2126221284806981e-29 2.6143363221803035e-29 0.0000000000000000e+00  -7.5444341696155659e-29 -1.6764738135841522e-28 0.0000000000000000e+00  2.3691303571112784e-29 4.9685843304455970e-29 0.0000000000000000e+00  8.9031229881990454e-29 1.8264137272184068e-28 0.0000000000000000e+00  2.3065664513695439e-29 7.3557313359038532e-29 0.0000000000000000e+00  2.0857004540823035e-28 6.1793349983782780e-28 0.0000000000000000e+00  9.3629756154146237e-29 2.8020218643611213e-28 0.0000000000000000e+00  -2.1072643781068166e-28 -6.5067707957892232e-28 0.0000000000000000e+00  -3.6982108748585422e-28 -1.1459404937148270e-27 0.0000000000000000e+00  2.7829269099053815e-28 9.3953633286224484e-28 0.0000000000000000e+00  4.6469277168159344e-28 1.6962935607821431e-27 0.0000000000000000e+00  3.2289340369513877e-28 1.2121550377719557e-27 0.0000000000000000e+00  2.0080415156127863e-28 6.6356769464115266e-28 0.0000000000000000e+00  -5.3920227536681193e-28 -2.3595187942000779e-27 0.0000000000000000e+00  -1.1265157439328837e-28 -6.3393836430317003e-28 0.0000000000000000e+00  -1.7718562444568329e-29 -2.1290078633241061e-28 0.0000000000000000e+00  -2.5716822745712457e-28 -1.4454046932690624e-27 0.0000000000000000e+00  -2.1751186647641990e-28 -1.3506064065979887e-27 0.0000000000000000e+00  -3.5750924127045377e-28 -2.2175893794648316e-27 0.0000000000000000e+00  -1.7676730973966479e-28 -9.1919247703044130e-28 0.0000000000000000e+00  9.0647205577777280e-29 1.2173590120581757e-27 0.0000000000000000e+00  -6.9466338896474409e-29 -3.1897348046960817e-28 0.0000000000000000e+00  -1.3361726658969744e-28 -2.1668065475427420e-27 0.0000000000000000e+00  -2.8235434135004914e-29 5.3968495510537570e-28 0.0000000000000000e+00  -3.8950482451385456e-29 4.0281182330498872e-28 0.0000000000000000e+00  1.8212549004414281e-30 -1.4900166892930774e-27 0.0000000000000000e+00  9.7103397989330325e-31 -5.9007273615226675e-28 0.0000000000000000e+00  1.0942387213292493e-28 -1.6303726290463972e-27 0.0000000000000000e+00  -1.4644444953094864e-28 1.5397458133273399e-27 0.0000000000000000e+00  -1.5746380431226243e-28 1.4316166955275658e-27 0.0000000000000000e+00  2.3975112027589055e-28 -1.7074712055303134e-27 0.0000000000000000e+00  1.0736244987716787e-28 -4.5778987197049746e-28 0.0000000000000000e+00  3.0437865202157787e-28 -2.1391833784078973e-27 0.0000000000000000e+00  -1.6366974476435607e-29 1.0075669228183765e-27 0.0000000000000000e+00  1.8443405362084540e-29 2.8116483712280584e-28 0.0000000000000000e+00  2.9631471386675684e-28 -1.0571879149902458e-27 0.0000000000000000e+00  1.5801715127915632e-28 -5.4073125031289627e-28 0.0000000000000000e+00  4.8788322557604059e-28 -2.5646428194465711e-27 0.0000000000000000e+00  7.2242640928177103e-28 -3.4140319006129651e-27 0.0000000000000000e+00  9.3819817709089590e-28 -4.4446006185491714e-27 0.0000000000000000e+00  2.5732886319886378e-28 -1.1580476778552281e-27 0.0000000000000000e+00  -3.5819826361267328e-28 1.4167619289766735e-27 0.0000000000000000e+00  -6.0223005620646627e-28 2.4132597270417663e-27 0.0000000000000000e+00  -6.7632120489330342e-28 2.5805888819029388e-27 0.0000000000000000e+00  -1.5629142403008492e-28 5.8633735195635079e-28 0.0000000000000000e+00  1.5325643853410499e-28 -5.1512887665738643e-28 0.0000000000000000e+00  1.1765649062704536e-28 -4.2880966603299073e-28 0.0000000000000000e+00  4.9277571080260974e-28 -1.6200806250769412e-27 0.0000000000000000e+00  2.1376851028974227e-28 -6.4776561712479984e-28 0.0000000000000000e+00  -1.7959431585124017e-28 5.4083612108578955e-28 0.0000000000000000e+00  -1.0891953415874246e-29 1.1556832083703653e-29 0.0000000000000000e+00  2.3321420130510903e-29 -5.8186902276469297e-29 0.0000000000000000e+00  5.2577624183040287e-29 -1.2779716614526059e-28 0.0000000000000000e+00  -1.1681678323148464e-29 2.6707646463775994e-29 0.0000000000000000e+00  -1.7240458089451369e-29 3.7708993198786759e-29 0.0000000000000000e+00  1.1948220