<?xml version="1.0"?>
<VTKFile type="UnstructuredGrid"  version="0.1"  >
<UnstructuredGrid>
<Piece  NumberOfPoints="11902" NumberOfCells="23402">
<Points>
<DataArray  type="Float64"  NumberOfComponents="3"  format="ascii">-5 -5 0  5 -5 0  5 5 0  -5 5 0  1.222959934398605 0.001368057167198849 0  -4.9 -5 0  -4.8 -5 0  -4.7 -5 0  -4.6 -5 0  -4.5 -5 0  -4.4 -5 0  -4.3 -5 0  -4.2 -5 0  -4.1 -5 0  -4 -5 0  -3.9 -5 0  -3.8 -5 0  -3.7 -5 0  -3.6 -5 0  -3.5 -5 0  -3.4 -5 0  -3.3 -5 0  -3.2 -5 0  -3.1 -5 0  -3 -5 0  -2.9 -5 0  -2.8 -5 0  -2.7 -5 0  -2.6 -5 0  -2.5 -5 0  -2.4 -5 0  -2.3 -5 0  -2.2 -5 0  -2.1 -5 0  -2 -5 0  -1.9 -5 0  -1.8 -5 0  -1.7 -5 0  -1.6 -5 0  -1.5 -5 0  -1.4 -5 0  -1.3 -5 0  -1.2 -5 0  -1.1 -5 0  -1 -5 0  -0.9000000000000004 -5 0  -0.7999999999999998 -5 0  -0.7000000000000002 -5 0  -0.5999999999999996 -5 0  -0.5 -5 0  -0.4000000000000004 -5 0  -0.2999999999999998 -5 0  -0.2000000000000002 -5 0  -0.09999999999999964 -5 0  0 -5 0  0.09999999999999964 -5 0  0.2000000000000002 -5 0  0.2999999999999998 -5 0  0.4000000000000004 -5 0  0.5 -5 0  0.5999999999999996 -5 0  0.7000000000000002 -5 0  0.7999999999999998 -5 0  0.9000000000000004 -5 0  1 -5 0  1.1 -5 0  1.2 -5 0  1.3 -5 0  1.4 -5 0  1.5 -5 0  1.6 -5 0  1.7 -5 0  1.8 -5 0  1.9 -5 0  2 -5 0  2.1 -5 0  2.2 -5 0  2.3 -5 0  2.4 -5 0  2.5 -5 0  2.6 -5 0  2.7 -5 0  2.8 -5 0  2.9 -5 0  3 -5 0  3.1 -5 0  3.199999999999999 -5 0  3.300000000000001 -5 0  3.4 -5 0  3.5 -5 0  3.6 -5 0  3.699999999999999 -5 0  3.800000000000001 -5 0  3.9 -5 0  4 -5 0  4.1 -5 0  4.199999999999999 -5 0  4.300000000000001 -5 0  4.4 -5 0  4.5 -5 0  4.6 -5 0  4.699999999999999 -5 0  4.800000000000001 -5 0  4.9 -5 0  5 -4.9 0  5 -4.8 0  5 -4.7 0  5 -4.6 0  5 -4.5 0  5 -4.4 0  5 -4.3 0  5 -4.2 0  5 -4.1 0  5 -4 0  5 -3.9 0  5 -3.8 0  5 -3.7 0  5 -3.6 0  5 -3.5 0  5 -3.4 0  5 -3.3 0  5 -3.2 0  5 -3.1 0  5 -3 0  5 -2.9 0  5 -2.8 0  5 -2.7 0  5 -2.6 0  5 -2.5 0  5 -2.4 0  5 -2.3 0  5 -2.2 0  5 -2.1 0  5 -2 0  5 -1.9 0  5 -1.8 0  5 -1.7 0  5 -1.6 0  5 -1.5 0  5 -1.4 0  5 -1.3 0  5 -1.2 0  5 -1.1 0  5 -1 0  5 -0.9000000000000004 0  5 -0.7999999999999998 0  5 -0.7000000000000002 0  5 -0.5999999999999996 0  5 -0.5 0  5 -0.4000000000000004 0  5 -0.2999999999999998 0  5 -0.2000000000000002 0  5 -0.09999999999999964 0  5 0 0  5 0.09999999999999964 0  5 0.2000000000000002 0  5 0.2999999999999998 0  5 0.4000000000000004 0  5 0.5 0  5 0.5999999999999996 0  5 0.7000000000000002 0  5 0.7999999999999998 0  5 0.9000000000000004 0  5 1 0  5 1.1 0  5 1.2 0  5 1.3 0  5 1.4 0  5 1.5 0  5 1.6 0  5 1.7 0  5 1.8 0  5 1.9 0  5 2 0  5 2.1 0  5 2.2 0  5 2.3 0  5 2.4 0  5 2.5 0  5 2.6 0  5 2.7 0  5 2.8 0  5 2.9 0  5 3 0  5 3.1 0  5 3.199999999999999 0  5 3.300000000000001 0  5 3.4 0  5 3.5 0  5 3.6 0  5 3.699999999999999 0  5 3.800000000000001 0  5 3.9 0  5 4 0  5 4.1 0  5 4.199999999999999 0  5 4.300000000000001 0  5 4.4 0  5 4.5 0  5 4.6 0  5 4.699999999999999 0  5 4.800000000000001 0  5 4.9 0  4.9 5 0  4.8 5 0  4.7 5 0  4.6 5 0  4.5 5 0  4.4 5 0  4.3 5 0  4.2 5 0  4.1 5 0  4 5 0  3.9 5 0  3.8 5 0  3.7 5 0  3.6 5 0  3.5 5 0  3.4 5 0  3.3 5 0  3.2 5 0  3.1 5 0  3 5 0  2.9 5 0  2.8 5 0  2.7 5 0  2.6 5 0  2.5 5 0  2.4 5 0  2.3 5 0  2.2 5 0  2.1 5 0  2 5 0  1.9 5 0  1.8 5 0  1.7 5 0  1.6 5 0  1.5 5 0  1.4 5 0  1.3 5 0  1.2 5 0  1.1 5 0  1 5 0  0.9000000000000004 5 0  0.7999999999999998 5 0  0.7000000000000002 5 0  0.5999999999999996 5 0  0.5 5 0  0.4000000000000004 5 0  0.2999999999999998 5 0  0.2000000000000002 5 0  0.09999999999999964 5 0  0 5 0  -0.09999999999999964 5 0  -0.2000000000000002 5 0  -0.2999999999999998 5 0  -0.4000000000000004 5 0  -0.5 5 0  -0.5999999999999996 5 0  -0.7000000000000002 5 0  -0.7999999999999998 5 0  -0.9000000000000004 5 0  -1 5 0  -1.1 5 0  -1.2 5 0  -1.3 5 0  -1.4 5 0  -1.5 5 0  -1.6 5 0  -1.7 5 0  -1.8 5 0  -1.9 5 0  -2 5 0  -2.1 5 0  -2.2 5 0  -2.3 5 0  -2.4 5 0  -2.5 5 0  -2.6 5 0  -2.7 5 0  -2.8 5 0  -2.9 5 0  -3 5 0  -3.1 5 0  -3.199999999999999 5 0  -3.300000000000001 5 0  -3.4 5 0  -3.5 5 0  -3.6 5 0  -3.699999999999999 5 0  -3.800000000000001 5 0  -3.9 5 0  -4 5 0  -4.1 5 0  -4.199999999999999 5 0  -4.300000000000001 5 0  -4.4 5 0  -4.5 5 0  -4.6 5 0  -4.699999999999999 5 0  -4.800000000000001 5 0  -4.9 5 0  -5 4.9 0  -5 4.8 0  -5 4.7 0  -5 4.6 0  -5 4.5 0  -5 4.4 0  -5 4.3 0  -5 4.2 0  -5 4.1 0  -5 4 0  -5 3.9 0  -5 3.8 0  -5 3.7 0  -5 3.6 0  -5 3.5 0  -5 3.4 0  -5 3.3 0  -5 3.2 0  -5 3.1 0  -5 3 0  -5 2.9 0  -5 2.8 0  -5 2.7 0  -5 2.6 0  -5 2.5 0  -5 2.4 0  -5 2.3 0  -5 2.2 0  -5 2.1 0  -5 2 0  -5 1.9 0  -5 1.8 0  -5 1.7 0  -5 1.6 0  -5 1.5 0  -5 1.4 0  -5 1.3 0  -5 1.2 0  -5 1.1 0  -5 1 0  -5 0.9000000000000004 0  -5 0.7999999999999998 0  -5 0.7000000000000002 0  -5 0.5999999999999996 0  -5 0.5 0  -5 0.4000000000000004 0  -5 0.2999999999999998 0  -5 0.2000000000000002 0  -5 0.09999999999999964 0  -5 0 0  -5 -0.09999999999999964 0  -5 -0.2000000000000002 0  -5 -0.2999999999999998 0  -5 -0.4000000000000004 0  -5 -0.5 0  -5 -0.5999999999999996 0  -5 -0.7000000000000002 0  -5 -0.7999999999999998 0  -5 -0.9000000000000004 0  -5 -1 0  -5 -1.1 0  -5 -1.2 0  -5 -1.3 0  -5 -1.4 0  -5 -1.5 0  -5 -1.6 0  -5 -1.7 0  -5 -1.8 0  -5 -1.9 0  -5 -2 0  -5 -2.1 0  -5 -2.2 0  -5 -2.3 0  -5 -2.4 0  -5 -2.5 0  -5 -2.6 0  -5 -2.7 0  -5 -2.8 0  -5 -2.9 0  -5 -3 0  -5 -3.1 0  -5 -3.199999999999999 0  -5 -3.300000000000001 0  -5 -3.4 0  -5 -3.5 0  -5 -3.6 0  -5 -3.699999999999999 0  -5 -3.800000000000001 0  -5 -3.9 0  -5 -4 0  -5 -4.1 0  -5 -4.199999999999999 0  -5 -4.300000000000001 0  -5 -4.4 0  -5 -4.5 0  -5 -4.6 0  -5 -4.699999999999999 0  -5 -4.800000000000001 0  -5 -4.9 0  1.216545143214921 0.09806229278634386 0  1.196977565174333 0.195648124313568 0  1.164684209632248 0.2925510393296178 0  1.123085313452111 0.3831937150820169 0  1.068626159981225 0.4737160323343667 0  1.00503016889296 0.5586293420839085 0  0.9300936568610622 0.6384000178833026 0  0.8461049192011342 0.7115149162733686 0  0.7553874554805896 0.7769600001274248 0  0.6556181383044524 0.8351289735014812 0  0.548532008016634 0.8866489976605421 0  0.4381321071974653 0.9290477102533271 0  0.3257528684763893 0.9619349924207086 0  0.2063213687910878 0.9840969533171577 0  0.08922518402869217 1.000165706521576 0  -0.02770713689494933 1.003056375535261 0  -0.1450545056139416 0.9919868438688402 0  -0.2660003917505351 0.9739731377424439 0  -0.3824609059932228 0.9483587390840362 0  -0.4928830499055524 0.9119512284895138 0  -0.5992873046566771 0.8660233603306647 0  -0.7003253153520139 0.8114094826654245 0  -0.7938810863731365 0.747893361676003 0  -0.8817463322555414 0.6765660810718118 0  -0.9628271617182188 0.5981070198962417 0  -1.033098803146735 0.5161937899749692 0  -1.093288796250559 0.4296845361278811 0  -1.142332843778366 0.3379647820153164 0  -1.178933313763534 0.2449309142176076 0  -1.203239597220978 0.1492696834763405 0  -1.215438673269108 0.05070962689807547 0  -1.215410061661432 -0.04872987983426672 0  -1.203113723636478 -0.1468440721636618 0  -1.17928452680467 -0.2423820657758295 0  -1.141321204047725 -0.3377817407930099 0  -1.093570417661943 -0.4287548211131277 0  -1.034253845508589 -0.5155011046179464 0  -0.9646782785571806 -0.5968798790847792 0  -0.884098991436484 -0.6740713306873223 0  -0.796100209105599 -0.7441106149960679 0  -0.7009806740357801 -0.8051972842655766 0  -0.5992253358016361 -0.8591713034345607 0  -0.4895665925869181 -0.9069613989428135 0  -0.3781160519406653 -0.9454003726860888 0  -0.2628046241950484 -0.9729446241070991 0  -0.1436830308171021 -0.9912760442874614 0  -0.02769736469855971 -1.002128917197115 0  0.08972338565319742 -0.9967508699396341 0  0.2099865222944916 -0.9814889044447586 0  0.3277502346636587 -0.9602803123668123 0  0.4419230101972018 -0.9276452770786726 0  0.5505031784098756 -0.88572386560904 0  0.656425375494866 -0.8349362252028739 0  0.7554975059389771 -0.7780789241145798 0  0.8461492812016745 -0.7123612154618983 0  0.9295355241751985 -0.6379796211228099 0  1.003211473502798 -0.5579946662198441 0  1.068463041955556 -0.4730115067045843 0  1.12406295455949 -0.3832392898061741 0  1.166248343938471 -0.290810589138221 0  1.197361697035088 -0.1947639072022072 0  1.216619638731903 -0.09760800283614583 0  -2.448686886405873 4.918344615768222 0  -2.44857269905731 -4.910743926633112 0  4.910673834625876 2.448071822020254 0  4.918777178150909 -2.449517337534722 0  2.446324522898504 -4.896018600504942 0  2.440753020517264 4.899772167700736 0  -4.910698954108187 -2.448096386115683 0  -4.910696752254792 2.448100290376888 0  -1.748646323672333 4.911335452510612 0  -1.744427552264281 -4.91476412646859 0  4.920917733018481 1.744229939772254 0  4.909491165941584 -1.748014478193139 0  -4.909781674095379 -1.747746104957806 0  -4.910601550991236 1.747489105194046 0  1.745927423731189 4.905216498019654 0  1.747356967828735 -4.893402364883637 0  -1.148930938877798 4.909187899211864 0  -1.129777746591836 -4.917072169936006 0  -4.909583004765876 -1.148042794846527 0  -4.909402555700741 1.147843089292586 0  1.143919619254427 -4.913271419580284 0  1.148939442788381 4.909175461108454 0  4.909726275410951 1.146319110860266 0  4.920510215135162 -1.152087724647499 0  -0.5467160613485316 -4.910411123645675 0  -0.5464927312818225 4.919059610083141 0  -4.908382954392193 -0.5487724577545912 0  -4.908407159391199 0.5473294111143959 0  4.907709867717934 -0.549091917215849 0  4.919310308608102 0.5458406286608753 0  0.5425023642513128 -4.897345624966905 0  0.5512225454908396 4.915895749694932 0  -4.912046128296662 -3.048424198166737 0  4.918607131450468 3.046431745674644 0  4.911555562012185 -3.04840190214713 0  -4.912893202376988 3.045514625260361 0  3.055400182915898 -4.917537389511446 0  -3.048738012956651 -4.911483878655572 0  3.052303115442431 4.913558410947394 0  -3.048183401172525 4.912371930700419 0  -4.907516251397703 -0.04991407989794463 0  0.04512302804343127 -4.912364806123435 0  0.04957049998330768 4.919362165151608 0  4.914540172432592 -0.05129579217359709 0  3.545696889104669 -4.919134714397631 0  -3.5489847773982
[...]
<PointData  Vectors="f_2958"> 
<DataArray  type="Float64"  Name="f_2958"  NumberOfComponents="3" format="ascii">-1.0903260411775422e-40 -1.3085835426735723e-40 0.0000000000000000e+00  1.2828887778904097e-40 -1.4696339607837631e-40 0.0000000000000000e+00  -1.9532187807711696e-40 -1.8899404337029819e-40 0.0000000000000000e+00  -2.2078716104776725e-40 2.2293096127271246e-40 0.0000000000000000e+00  1.6080141687069993e+01 -7.2433324632916851e-02 0.0000000000000000e+00  2.6109063932247196e-40 2.9093253025392566e-40 0.0000000000000000e+00  7.1203027739190169e-40 7.0995869507253561e-40 0.0000000000000000e+00  -1.6538545610213167e-39 -1.8039681845220052e-39 0.0000000000000000e+00  1.4935072016964079e-38 1.7245441580596457e-38 0.0000000000000000e+00  -4.9282727146321266e-38 -5.6664673888517205e-38 0.0000000000000000e+00  1.8009796480751252e-37 2.2805815804887913e-37 0.0000000000000000e+00  -6.4949208019383797e-37 -8.6430702706551569e-37 0.0000000000000000e+00  3.8059955445565121e-36 4.9802891487669382e-36 0.0000000000000000e+00  -2.3659573033852292e-35 -2.9664360252419369e-35 0.0000000000000000e+00  9.7787057886811579e-35 1.2465578178288403e-34 0.0000000000000000e+00  -2.1642562934736209e-34 -2.6978125428872794e-34 0.0000000000000000e+00  4.3687230626982608e-34 5.2236088658111969e-34 0.0000000000000000e+00  1.6327442951359562e-33 2.0025592276483453e-33 0.0000000000000000e+00  -6.9759350103019356e-33 -9.2829767685374012e-33 0.0000000000000000e+00  1.8818677719877631e-32 2.7434791808762677e-32 0.0000000000000000e+00  -1.1096144259346967e-31 -1.5913816673399464e-31 0.0000000000000000e+00  2.9486258011678188e-31 4.2514464480855782e-31 0.0000000000000000e+00  1.9784177619205494e-31 2.6097277964761674e-31 0.0000000000000000e+00  -1.5883467228907594e-30 -2.1768922801504333e-30 0.0000000000000000e+00  -5.7491058385298693e-31 -1.1207081990604930e-30 0.0000000000000000e+00  -1.1537225759246389e-30 -2.4129694569402596e-30 0.0000000000000000e+00  3.9732910237098053e-30 7.5775739058136917e-30 0.0000000000000000e+00  -8.8548952923748019e-30 -2.5110104442882357e-29 0.0000000000000000e+00  3.2312442724602401e-29 7.5777534738269655e-29 0.0000000000000000e+00  1.8336270807687209e-29 4.6188671055807748e-29 0.0000000000000000e+00  -1.6257375167828767e-28 -3.7782769241704319e-28 0.0000000000000000e+00  -6.0723279484083973e-29 -1.5669847773394456e-28 0.0000000000000000e+00  -9.9621824836070276e-29 -3.2614418981403427e-28 0.0000000000000000e+00  1.6310445103135297e-28 4.6699248256272961e-28 0.0000000000000000e+00  4.5945840399802880e-28 1.4604701645725617e-27 0.0000000000000000e+00  7.4387047952701239e-30 -9.5779618420033128e-29 0.0000000000000000e+00  1.5721159447524974e-28 4.2183513269971977e-28 0.0000000000000000e+00  -7.1718036708314755e-29 -2.6866564523777784e-28 0.0000000000000000e+00  -4.6844388311527449e-28 -1.4825135638563177e-27 0.0000000000000000e+00  -4.4052782153115625e-28 -1.4384086756354160e-27 0.0000000000000000e+00  -1.1192083661790280e-29 -8.8768531763770070e-29 0.0000000000000000e+00  4.4666500915573553e-28 1.6986436147957450e-27 0.0000000000000000e+00  2.7751648659631914e-28 1.0097907351224634e-27 0.0000000000000000e+00  3.6513235580149777e-30 -1.4727971809300372e-28 0.0000000000000000e+00  1.2440646509328594e-28 4.0645440948157798e-28 0.0000000000000000e+00  -1.1100558205737607e-28 9.6186914490557814e-28 0.0000000000000000e+00  2.0665063133889664e-29 1.6551048106680642e-27 0.0000000000000000e+00  4.6562184404394433e-29 -9.8389795398740150e-28 0.0000000000000000e+00  2.6626968678514705e-28 5.3203710352505436e-27 0.0000000000000000e+00  -1.8232769493697056e-28 -1.2097903041227587e-29 0.0000000000000000e+00  -5.1871896247218006e-28 -4.5516928800613379e-27 0.0000000000000000e+00  -4.5091535119001299e-28 -2.5826122545037237e-27 0.0000000000000000e+00  -3.1147239624955620e-28 -3.7572393502035209e-27 0.0000000000000000e+00  -5.9490756932803880e-29 -9.6558349529218608e-27 0.0000000000000000e+00  9.2557976936386863e-29 -1.1065280410374911e-26 0.0000000000000000e+00  -2.3109669256855722e-29 -1.8902549073150187e-27 0.0000000000000000e+00  3.6922264394453216e-29 -5.9341122977940016e-27 0.0000000000000000e+00  3.5493202592660733e-29 -2.0754063280257075e-27 0.0000000000000000e+00  1.8093581407882037e-28 -3.8022813426441341e-27 0.0000000000000000e+00  -1.3017053507518411e-28 1.8549477947255413e-27 0.0000000000000000e+00  4.7409684260084201e-28 -5.0600344981120589e-27 0.0000000000000000e+00  6.0591788466650772e-28 -4.6127920510403296e-27 0.0000000000000000e+00  -6.4058138344105673e-29 1.0293703150258809e-27 0.0000000000000000e+00  -8.8982395932205686e-28 7.0527261510652690e-27 0.0000000000000000e+00  -4.3452623091072960e-28 2.8097745289484594e-27 0.0000000000000000e+00  -3.4299136481275413e-28 1.5598095531006517e-27 0.0000000000000000e+00  -7.7211561756030874e-28 4.0533638542881209e-27 0.0000000000000000e+00  -4.5180562576308879e-28 2.1462493434771459e-27 0.0000000000000000e+00  4.8133342343831596e-28 -2.4796126853250510e-27 0.0000000000000000e+00  3.0035702582430526e-28 -1.1659979513088150e-27 0.0000000000000000e+00  6.5052356906677156e-29 -1.8961623593221644e-28 0.0000000000000000e+00  2.9617564314359251e-28 -8.5958725837242217e-28 0.0000000000000000e+00  2.0774738776987095e-28 -6.7369464683316095e-28 0.0000000000000000e+00  -1.7972449606504629e-28 5.8227237584172244e-28 0.0000000000000000e+00  -1.1180433016217656e-28 3.4157636894284467e-28 0.0000000000000000e+00  -8.8126743762796429e-29 2.6155266810093496e-28 0.0000000000000000e+00  1.7939587154878095e-29 -5.7543951714953028e-29 0.0000000000000000e+00  6.1189665743865161e-29 -1.6733897109088018e-28 0.0000000000000000e+00  8.9931950589810388e-29 -2.2919078552372728e-28 0.0000000000000000e+00  -7.5436578203070433e-30 1.3670781543691109e-29 0.0000000000000000e+00  -6.9690744239911912e-29 1.5878711918840323e-28 0.0000000000000000e+00  1.1339400561527305e-29 -2.5569279122070965e-29 0.0000000000000000e+00  3.9520220320530229e-30 -8.4099028222484637e-30 0.0000000000000000e+00  -1.1968841142584889e-29 2.1991490988733046e-29 0.0000000000000000e+00  -1.1289904950086001e-30 1.5303618987985553e-30 0.0000000000000000e+00  1.4470364700494739e-30 -2.3192738295585089e-30 0.0000000000000000e+00  -7.1775241928087356e-31 1.1210869788930857e-30 0.0000000000000000e+00  9.8611148761124550e-32 -1.5618777458907640e-31 0.0000000000000000e+00  -1.0922989475024145e-32 1.7091903069572436e-32 0.0000000000000000e+00  -1.7379786561472030e-33 2.2737946076673513e-33 0.0000000000000000e+00  6.3014734695615425e-33 -8.1378029434679089e-33 0.0000000000000000e+00  1.1900547419671706e-34 -8.9307463866625654e-35 0.0000000000000000e+00  -3.1470522069078826e-34 3.7688735577137563e-34 0.0000000000000000e+00  3.0541963060299231e-35 -3.1899712544112282e-35 0.0000000000000000e+00  -1.0975998838355198e-35 1.3764980734204962e-35 0.0000000000000000e+00  3.3392502595266402e-36 -3.9587264081622742e-36 0.0000000000000000e+00  -1.5697335040578950e-36 1.7047089852496212e-36 0.0000000000000000e+00  4.7983338963662638e-37 -5.4257036856304549e-37 0.0000000000000000e+00  -2.3713090542080120e-37 2.5511544314360350e-37 0.0000000000000000e+00  7.8680286590315224e-38 -8.2361143552055693e-38 0.0000000000000000e+00  -1.4971290131241783e-38 1.5925861008428390e-38 0.0000000000000000e+00  5.9352434240541861e-39 -6.0899322494657136e-39 0.0000000000000000e+00  -4.2986050992974493e-40 3.9629679343218424e-40 0.0000000000000000e+00  -2.2510791874482609e-40 2.5572194943826217e-40 0.0000000000000000e+00  8.9471087138295689e-43 2.0989291060781420e-42 0.0000000000000000e+00  3.7190391735799753e-40 -3.1889003781565450e-40 0.0000000000000000e+00  -8.3874783768847124e-40 7.1028409667616686e-40 0.0000000000000000e+00  2.7837318506957036e-39 -2.5505638654931180e-39 0.0000000000000000e+00  -1.1171422127883530e-39 1.4152926802417215e-39 0.0000000000000000e+00  -1.4647311893114834e-38 1.1706875010693251e-38 0.0000000000000000e+00  5.2178762041121273e-38 -4.3930378780047194e-38 0.0000000000000000e+00  -6.3256055478751604e-38 5.7040003716698634e-38 0.0000000000000000e+00  -1.4770693062239960e-37 1.0671513918137505e-37 0.0000000000000000e+00  8.3077668550010807e-37 -6.5073400168365236e-37 0.0000000000000000e+00  -1.3479669295647548e-36 1.0967584846269348e-36 0.0000000000000000e+00  -1.4847198959844207e-36 9.8030645016129918e-37 0.0000000000000000e+00  1.1619570473703258e-35 -8.5847156790422921e-36 0.0000000000000000e+00  -2.1277988876126539e-35 1.6014133794697744e-35 0.0000000000000000e+00  -1.8900823561287093e-35 1.2218621481911686e-35 0.0000000000000000e+00  1.6841685893254814e-34 -1.1766985846563673e-34 0.0000000000000000e+00  -2.5758552973328312e-34 1.8175779314348801e-34 0.0000000000000000e+00  -3.9042161993139413e-34 2.5449765837159214e-34 0.0000000000000000e+00  2.2676960909016404e-33 -1.4930524877052465e-33 0.0000000000000000e+00  -2.1157078918877014e-33 1.3879133756037265e-33 0.0000000000000000e+00  -8.4614882288560275e-33 5.2954094893433743e-33 0.0000000000000000e+00  2.5775522034035949e-32 -1.5863901054343208e-32 0.0000000000000000e+00  3.8757872261067003e-33 -2.3541471185870792e-33 0.0000000000000000e+00  -1.4308230968163393e-31 8.3393805173836106e-32 0.0000000000000000e+00  1.8211895465634359e-31 -1.0113349711033413e-31 0.0000000000000000e+00  4.9033529011986464e-31 -2.7330701023591432e-31 0.0000000000000000e+00  -1.4095704646387871e-30 7.4141610997446500e-31 0.0000000000000000e+00  -8.9706163130220303e-31 5.0834287487042838e-31 0.0000000000000000e+00  7.6751682557808860e-30 -3.8104676857088004e-30 0.0000000000000000e+00  -2.0087812482590335e-30 6.1808194994866976e-31 0.0000000000000000e+00  -3.4413959723856389e-29 1.6135252144102034e-29 0.0000000000000000e+00  2.7632914400575392e-29 -1.0090688858024889e-29 0.0000000000000000e+00  1.4208971299402534e-28 -6.3158471927402547e-29 0.0000000000000000e+00  -1.5864929393908862e-28 5.2289448757275818e-29 0.0000000000000000e+00  -5.9858453413252577e-28 2.4799259891507462e-28 0.0000000000000000e+00  6.3036746988367319e-28 -1.6548700887127069e-28 0.0000000000000000e+00  2.5105536215532714e-27 -9.3945830746740689e-28 0.0000000000000000e+00  -1.9055430981255690e-27 2.7807556192111907e-28 0.0000000000000000e+00  -9.7121883442784662e-27 2.9122883273451634e-27 0.0000000000000000e+00  2.6173467678975648e-27 6.5810886957151737e-28 0.0000000000000000e+00  3.0678975904827601e-26 -6.7063794619073041e-27 0.0000000000000000e+00  1.5214641457759726e-26 -5.9944666794815909e-27 0.0000000000000000e+00  -8.5470817435347357e-26 1.2026849579510336e-26 0.0000000000000000e+00  -1.2916182819002940e-25 1.9506125135680344e-26 0.0000000000000000e+00  1.4543564309032063e-25 -2.9158212572510475e-26 0.0000000000000000e+00  8.3727708386446006e-25 -1.3815481225454660e-25 0.0000000000000000e+00  1.5123443027830779e-24 -2.2290295171254818e-25 0.0000000000000000e+00  1.8227748657476623e-24 -2.2045559981169297e-25 0.0000000000000000e+00  1.7600914199123644e-24 -1.2201665803462610e-25 0.0000000000000000e+00  1.7633608849749468e-24 1.4098704723686893e-26 0.0000000000000000e+00  1.8834116988405450e-24 1.3751789805477562e-25 0.0000000000000000e+00  1.7522272398148404e-24 1.9038365485165957e-25 0.0000000000000000e+00  1.1602633207652070e-24 1.4814867487832882e-25 0.0000000000000000e+00  3.6085459981145806e-25 4.7864724544312515e-26 0.0000000000000000e+00  -1.3572516948619177e-25 -2.5760799487889224e-26 0.0000000000000000e+00  -1.9351742145892231e-25 -3.3170833883367784e-26 0.0000000000000000e+00  -3.4202533274146800e-26 -1.5206368845229848e-27 0.0000000000000000e+00  5.6302963572937316e-26 1.6235310893652367e-26 0.0000000000000000e+00  3.4518750301773621e-26 9.0185281417624290e-27 0.0000000000000000e+00  -4.5338175363615604e-27 -1.6701024001718792e-27 0.0000000000000000e+00  -9.7646852732164449e-27 -2.9215182544072981e-27 0.0000000000000000e+00  -5.1398306803346154e-28 -4.5522715573847002e-29 0.0000000000000000e+00  2.4902652423161171e-27 8.5196449871937557e-28 0.0000000000000000e+00  2.9700645022559217e-28 8.1731811583745084e-29 0.0000000000000000e+00  -6.0159175066586443e-28 -2.2542966339455635e-28 0.0000000000000000e+00  -6.5436885828460239e-29 -2.0102865303017318e-29 0.0000000000000000e+00  1.4010844007244691e-28 5.6754006760526674e-29 0.0000000000000000e+00  2.3974189145978899e-30 -3.5555274367165601e-31 0.0000000000000000e+00  -3.0950246285754240e-29 -1.3418227944235878e-29 0.0000000000000000e+00  3.3108258366311303e-30 1.8474217114922869e-30 0.0000000000000000e+00  5.7708781670257110e-30 2.6618798502498476e-30 0.0000000000000000e+00  -1.8026425938098418e-30 -9.5255102746253920e-31 0.0000000000000000e+00  -8.2767224728749367e-31 -3.9413242219876695e-31 0.0000000000000000e+00  5.5574178093146277e-31 3.0359519481009658e-31 0.0000000000000000e+00  2.4577756857643692e-32 5.8290961565531918e-33 0.0000000000000000e+00  -1.1868821283294100e-31 -6.7457410369314986e-32 0.0000000000000000e+00  2.7127725633878244e-32 1.7450197126424251e-32 0.0000000000000000e+00  1.6639263094342759e-32 9.6420336895663299e-33 0.0000000000000000e+00  -1.0693974158856237e-32 -6.8161564043427123e-33 0.0000000000000000e+00  1.8336018317847152e-34 2.1704399998896046e-34 0.0000000000000000e+00  1.8882099210091027e-33 1.2473273902870830e-33 0.0000000000000000e+00  -7.1601792080588204e-34 -4.9843709219666407e-34 0.0000000000000000e+00  -9.5868209923282685e-35 -6.3933255904587843e-35 0.0000000000000000e+00  1.6880388381807663e-34 1.2137436106210278e-34 0.0000000000000000e+00  -4.8126993076437149e-35 -3.5595023710787964e-35 0.0000000000000000e+00  -1.0377669854710974e-35 -7.9516463407210222e-36 0.0000000000000000e+00  1.2245417432185924e-35 9.4767147673627604e-36 0.0000000000000000e+00  -3.2904404167180870e-36 -2.5438516974909569e-36 0.0000000000000000e+00  -6.8200995637183252e-37 -5.8607995777044390e-37 0.0000000000000000e+00  8.3740455351774587e-37 6.9391284076761771e-37 0.0000000000000000e+00  -2.5330758764391785e-37 -2.0624254332607515e-37 0.0000000000000000e+00  -2.2705091062968000e-38 -2.4123959184432151e-38 0.0000000000000000e+00  5.0566708679952712e-38 4.5284177663837017e-38 0.0000000000000000e+00  -2.0293204720603345e-38 -1.7667595776205878e-38 0.0000000000000000e+00  1.3090421031387251e-39 7.3813256770825821e-40 0.0000000000000000e+00  2.5247216955703059e-39 2.4907661962000707e-39 0.0000000000000000e+00  -1.4188489421603979e-39 -1.3337351814781010e-39 0.0000000000000000e+00  3.3439281127947572e-40 2.9688873263075861e-40 0.0000000000000000e+00  1.1985184330290855e-40 1.3869041390189481e-40 0.0000000000000000e+00  3.0690653063097980e-40 2.9679815738659758e-40 0.0000000000000000e+00  -7.6731529435338470e-40 -8.5429612692183838e-40 0.0000000000000000e+00  1.5630259423502422e-39 1.7652163703717215e-39 0.0000000000000000e+00  -1.0409324199147597e-38 -1.1978708472825518e-38 0.0000000000000000e+00  8.2695859783090569e-38 8.7329830591214824e-38 0.0000000000000000e+00  -2.1528802368514557e-37 -2.1438698390875290e-37 0.0000000000000000e+00  2.6860469071458635e-37 2.7958984902625553e-37 0.0000000000000000e+00  -3.5400393800112574e-36 -4.1076087255332664e-36 0.0000000000000000e+00  9.8493698453400289e-36 1.2869905976819652e-35 0.0000000000000000e+00  -3.8713390183538860e-35 -5.4877867060409458e-35 0.0000000000000000e+00  8.5497128903813302e-35 1.2049204125648876e-34 0.0000000000000000e+00  -1.3457918801830198e-34 -2.1932024264075968e-34 0.0000000000000000e+00  8.5840756922191712e-34 1.2279464392185585e-33 0.0000000000000000e+00  -2.7305291318258937e-34 -4.0315787402462263e-34 0.0000000000000000e+00  2.5721728540065874e-33 4.2540048117557937e-33 0.0000000000000000e+00  3.5088454993139772e-32 4.9146822685587917e-32 0.0000000000000000e+00  -1.4948513911384113e-31 -2.1449415677727803e-31 0.0000000000000000e+00  -4.9786318181562862e-31 -7.2858129648384253e-31 0.0000000000000000e+00  1.0835726307666961e-30 1.5841840273239935e-30 0.0000000000000000e+00  -4.6596686562958598e-31 -6.5495360554138824e-31 0.0000000000000000e+00  -2.8579120375303853e-30 -5.3838655524311353e-30 0.0000000000000000e+00  8.7864482815781481e-30 1.8860510884920690e-29 0.0000000000000000e+00  1.2018271450175911e-29 2.6187991990269305e-29 0.0000000000000000e+00  -7.4402568613839546e-29 -1.6762810835774342e-28 0.0000000000000000e+00  2.3238597974525410e-29 4.9180255776459068e-29 0.0000000000000000e+00  8.8497139437301579e-29 1.8156120487839121e-28 0.0000000000000000e+00  2.2199892060733583e-29 7.3841747740749919e-29 0.0000000000000000e+00  2.0158761776017499e-28 6.1475831294195611e-28 0.0000000000000000e+00  9.0940745661520225e-29 2.7734743753988875e-28 0.0000000000000000e+00  -1.9978367373436649e-28 -6.3522196533891928e-28 0.0000000000000000e+00  -3.6801792877544012e-28 -1.1600631077751860e-27 0.0000000000000000e+00  2.7087381124849629e-28 9.4035932627045298e-28 0.0000000000000000e+00  4.4776856033956824e-28 1.6859996519372133e-27 0.0000000000000000e+00  3.2028229162151085e-28 1.2242646938116464e-27 0.0000000000000000e+00  2.0933799275518257e-28 6.8629464407751322e-28 0.0000000000000000e+00  -5.2142405669795010e-28 -2.3558485549457505e-27 0.0000000000000000e+00  -9.9882112185485576e-29 -6.1444289043766637e-28 0.0000000000000000e+00  -1.0220226108638388e-29 -2.0231335769530345e-28 0.0000000000000000e+00  -2.4863091386984496e-28 -1.4448130366205575e-27 0.0000000000000000e+00  -2.1005190149579402e-28 -1.3532017430348896e-27 0.0000000000000000e+00  -3.6277958733420204e-28 -2.2624167354569503e-27 0.0000000000000000e+00  -1.9130972229591321e-28 -9.6243092477377454e-28 0.0000000000000000e+00  7.4434584149493375e-29 1.1997722028212403e-27 0.0000000000000000e+00  -7.7661607320701773e-29 -3.4468901892631839e-28 0.0000000000000000e+00  -1.2727191213133514e-28 -2.1859778111446996e-27 0.0000000000000000e+00  -3.8951352454310163e-29 5.2294031549586596e-28 0.0000000000000000e+00  -4.7557662263566847e-29 3.8541605449951266e-28 0.0000000000000000e+00  5.4189404119657042e-30 -1.5127572386163063e-27 0.0000000000000000e+00  7.9621031840848667e-31 -6.0941000418833075e-28 0.0000000000000000e+00  1.1687898908605782e-28 -1.6522268397980351e-27 0.0000000000000000e+00  -1.5492403949358768e-28 1.5231284575692087e-27 0.0000000000000000e+00  -1.6301082202359858e-28 1.4167862166904993e-27 0.0000000000000000e+00  2.5206466979920003e-28 -1.7260339401589279e-27 0.0000000000000000e+00  1.1539983946484402e-28 -4.7439013251039207e-28 0.0000000000000000e+00  3.1042382888804902e-28 -2.1439178685599948e-27 0.0000000000000000e+00  -5.8853103137187860e-31 9.7460844478608253e-28 0.0000000000000000e+00  2.9084958895719615e-29 2.5933509238994740e-28 0.0000000000000000e+00  3.1337487626851370e-28 -1.0869735205934714e-27 0.0000000000000000e+00  1.6951216876498899e-28 -5.6143444027618166e-28 0.0000000000000000e+00  4.8493563106159947e-28 -2.5683867301394972e-27 0.0000000000000000e+00  7.2434520938924400e-28 -3.4374651951977391e-27 0.0000000000000000e+00  9.2413620696547344e-28 -4.4561246204344123e-27 0.0000000000000000e+00  2.4933176770043385e-28 -1.1541024026595359e-27 0.0000000000000000e+00  -3.6129378411325110e-28 1.4391784654522574e-27 0.0000000000000000e+00  -5.8979829696072721e-28 2.4193549908336218e-27 0.0000000000000000e+00  -6.5887111276060129e-28 2.5810937533360541e-27 0.0000000000000000e+00  -1.4916936603560057e-28 5.8094415946874591e-28 0.0000000000000000e+00  1.5236393864677009e-28 -5.2250988018634094e-28 0.0000000000000000e+00  1.1255770065372727e-28 -4.2399585266236115e-28 0.0000000000000000e+00  4.7237472969919375e-28 -1.6058799106687674e-27 0.0000000000000000e+00  2.0583773992004730e-28 -6.4348834062565958e-28 0.0000000000000000e+00  -1.7322281224373642e-28 5.3855787152750207e-28 0.0000000000000000e+00  -1.0903745885136609e-29 1.0467055388773270e-29 0.0000000000000000e+00  2.2813223466980998e-29 -5.7745284446396104e-29 0.0000000000000000e+00  5.1016752306256119e-29 -1.2658015190778793e-28 0.0000000000000000e+00  -1.1414113353636483e-29 2.6471033271898955e-29 0.0000000000000000e+00  -1.6854399022202822e-29 3.7482173095078772e-29 0.0000000000000000e+00  1.1321716