<?xml version="1.0"?>
<VTKFile type="UnstructuredGrid"  version="0.1"  >
<UnstructuredGrid>
<Piece  NumberOfPoints="11902" NumberOfCells="23402">
<Points>
<DataArray  type="Float64"  NumberOfComponents="3"  format="ascii">-5 -5 0  5 -5 0  5 5 0  -5 5 0  1.104125901675735 0.0006960604718096475 0  -4.9 -5 0  -4.8 -5 0  -4.7 -5 0  -4.6 -5 0  -4.5 -5 0  -4.4 -5 0  -4.3 -5 0  -4.2 -5 0  -4.1 -5 0  -4 -5 0  -3.9 -5 0  -3.8 -5 0  -3.7 -5 0  -3.6 -5 0  -3.5 -5 0  -3.4 -5 0  -3.3 -5 0  -3.2 -5 0  -3.1 -5 0  -3 -5 0  -2.9 -5 0  -2.8 -5 0  -2.7 -5 0  -2.6 -5 0  -2.5 -5 0  -2.4 -5 0  -2.3 -5 0  -2.2 -5 0  -2.1 -5 0  -2 -5 0  -1.9 -5 0  -1.8 -5 0  -1.7 -5 0  -1.6 -5 0  -1.5 -5 0  -1.4 -5 0  -1.3 -5 0  -1.2 -5 0  -1.1 -5 0  -1 -5 0  -0.9000000000000004 -5 0  -0.7999999999999998 -5 0  -0.7000000000000002 -5 0  -0.5999999999999996 -5 0  -0.5 -5 0  -0.4000000000000004 -5 0  -0.2999999999999998 -5 0  -0.2000000000000002 -5 0  -0.09999999999999964 -5 0  0 -5 0  0.09999999999999964 -5 0  0.2000000000000002 -5 0  0.2999999999999998 -5 0  0.4000000000000004 -5 0  0.5 -5 0  0.5999999999999996 -5 0  0.7000000000000002 -5 0  0.7999999999999998 -5 0  0.9000000000000004 -5 0  1 -5 0  1.1 -5 0  1.2 -5 0  1.3 -5 0  1.4 -5 0  1.5 -5 0  1.6 -5 0  1.7 -5 0  1.8 -5 0  1.9 -5 0  2 -5 0  2.1 -5 0  2.2 -5 0  2.3 -5 0  2.4 -5 0  2.5 -5 0  2.6 -5 0  2.7 -5 0  2.8 -5 0  2.9 -5 0  3 -5 0  3.1 -5 0  3.199999999999999 -5 0  3.300000000000001 -5 0  3.4 -5 0  3.5 -5 0  3.6 -5 0  3.699999999999999 -5 0  3.800000000000001 -5 0  3.9 -5 0  4 -5 0  4.1 -5 0  4.199999999999999 -5 0  4.300000000000001 -5 0  4.4 -5 0  4.5 -5 0  4.6 -5 0  4.699999999999999 -5 0  4.800000000000001 -5 0  4.9 -5 0  5 -4.9 0  5 -4.8 0  5 -4.7 0  5 -4.6 0  5 -4.5 0  5 -4.4 0  5 -4.3 0  5 -4.2 0  5 -4.1 0  5 -4 0  5 -3.9 0  5 -3.8 0  5 -3.7 0  5 -3.6 0  5 -3.5 0  5 -3.4 0  5 -3.3 0  5 -3.2 0  5 -3.1 0  5 -3 0  5 -2.9 0  5 -2.8 0  5 -2.7 0  5 -2.6 0  5 -2.5 0  5 -2.4 0  5 -2.3 0  5 -2.2 0  5 -2.1 0  5 -2 0  5 -1.9 0  5 -1.8 0  5 -1.7 0  5 -1.6 0  5 -1.5 0  5 -1.4 0  5 -1.3 0  5 -1.2 0  5 -1.1 0  5 -1 0  5 -0.9000000000000004 0  5 -0.7999999999999998 0  5 -0.7000000000000002 0  5 -0.5999999999999996 0  5 -0.5 0  5 -0.4000000000000004 0  5 -0.2999999999999998 0  5 -0.2000000000000002 0  5 -0.09999999999999964 0  5 0 0  5 0.09999999999999964 0  5 0.2000000000000002 0  5 0.2999999999999998 0  5 0.4000000000000004 0  5 0.5 0  5 0.5999999999999996 0  5 0.7000000000000002 0  5 0.7999999999999998 0  5 0.9000000000000004 0  5 1 0  5 1.1 0  5 1.2 0  5 1.3 0  5 1.4 0  5 1.5 0  5 1.6 0  5 1.7 0  5 1.8 0  5 1.9 0  5 2 0  5 2.1 0  5 2.2 0  5 2.3 0  5 2.4 0  5 2.5 0  5 2.6 0  5 2.7 0  5 2.8 0  5 2.9 0  5 3 0  5 3.1 0  5 3.199999999999999 0  5 3.300000000000001 0  5 3.4 0  5 3.5 0  5 3.6 0  5 3.699999999999999 0  5 3.800000000000001 0  5 3.9 0  5 4 0  5 4.1 0  5 4.199999999999999 0  5 4.300000000000001 0  5 4.4 0  5 4.5 0  5 4.6 0  5 4.699999999999999 0  5 4.800000000000001 0  5 4.9 0  4.9 5 0  4.8 5 0  4.7 5 0  4.6 5 0  4.5 5 0  4.4 5 0  4.3 5 0  4.2 5 0  4.1 5 0  4 5 0  3.9 5 0  3.8 5 0  3.7 5 0  3.6 5 0  3.5 5 0  3.4 5 0  3.3 5 0  3.2 5 0  3.1 5 0  3 5 0  2.9 5 0  2.8 5 0  2.7 5 0  2.6 5 0  2.5 5 0  2.4 5 0  2.3 5 0  2.2 5 0  2.1 5 0  2 5 0  1.9 5 0  1.8 5 0  1.7 5 0  1.6 5 0  1.5 5 0  1.4 5 0  1.3 5 0  1.2 5 0  1.1 5 0  1 5 0  0.9000000000000004 5 0  0.7999999999999998 5 0  0.7000000000000002 5 0  0.5999999999999996 5 0  0.5 5 0  0.4000000000000004 5 0  0.2999999999999998 5 0  0.2000000000000002 5 0  0.09999999999999964 5 0  0 5 0  -0.09999999999999964 5 0  -0.2000000000000002 5 0  -0.2999999999999998 5 0  -0.4000000000000004 5 0  -0.5 5 0  -0.5999999999999996 5 0  -0.7000000000000002 5 0  -0.7999999999999998 5 0  -0.9000000000000004 5 0  -1 5 0  -1.1 5 0  -1.2 5 0  -1.3 5 0  -1.4 5 0  -1.5 5 0  -1.6 5 0  -1.7 5 0  -1.8 5 0  -1.9 5 0  -2 5 0  -2.1 5 0  -2.2 5 0  -2.3 5 0  -2.4 5 0  -2.5 5 0  -2.6 5 0  -2.7 5 0  -2.8 5 0  -2.9 5 0  -3 5 0  -3.1 5 0  -3.199999999999999 5 0  -3.300000000000001 5 0  -3.4 5 0  -3.5 5 0  -3.6 5 0  -3.699999999999999 5 0  -3.800000000000001 5 0  -3.9 5 0  -4 5 0  -4.1 5 0  -4.199999999999999 5 0  -4.300000000000001 5 0  -4.4 5 0  -4.5 5 0  -4.6 5 0  -4.699999999999999 5 0  -4.800000000000001 5 0  -4.9 5 0  -5 4.9 0  -5 4.8 0  -5 4.7 0  -5 4.6 0  -5 4.5 0  -5 4.4 0  -5 4.3 0  -5 4.2 0  -5 4.1 0  -5 4 0  -5 3.9 0  -5 3.8 0  -5 3.7 0  -5 3.6 0  -5 3.5 0  -5 3.4 0  -5 3.3 0  -5 3.2 0  -5 3.1 0  -5 3 0  -5 2.9 0  -5 2.8 0  -5 2.7 0  -5 2.6 0  -5 2.5 0  -5 2.4 0  -5 2.3 0  -5 2.2 0  -5 2.1 0  -5 2 0  -5 1.9 0  -5 1.8 0  -5 1.7 0  -5 1.6 0  -5 1.5 0  -5 1.4 0  -5 1.3 0  -5 1.2 0  -5 1.1 0  -5 1 0  -5 0.9000000000000004 0  -5 0.7999999999999998 0  -5 0.7000000000000002 0  -5 0.5999999999999996 0  -5 0.5 0  -5 0.4000000000000004 0  -5 0.2999999999999998 0  -5 0.2000000000000002 0  -5 0.09999999999999964 0  -5 0 0  -5 -0.09999999999999964 0  -5 -0.2000000000000002 0  -5 -0.2999999999999998 0  -5 -0.4000000000000004 0  -5 -0.5 0  -5 -0.5999999999999996 0  -5 -0.7000000000000002 0  -5 -0.7999999999999998 0  -5 -0.9000000000000004 0  -5 -1 0  -5 -1.1 0  -5 -1.2 0  -5 -1.3 0  -5 -1.4 0  -5 -1.5 0  -5 -1.6 0  -5 -1.7 0  -5 -1.8 0  -5 -1.9 0  -5 -2 0  -5 -2.1 0  -5 -2.2 0  -5 -2.3 0  -5 -2.4 0  -5 -2.5 0  -5 -2.6 0  -5 -2.7 0  -5 -2.8 0  -5 -2.9 0  -5 -3 0  -5 -3.1 0  -5 -3.199999999999999 0  -5 -3.300000000000001 0  -5 -3.4 0  -5 -3.5 0  -5 -3.6 0  -5 -3.699999999999999 0  -5 -3.800000000000001 0  -5 -3.9 0  -5 -4 0  -5 -4.1 0  -5 -4.199999999999999 0  -5 -4.300000000000001 0  -5 -4.4 0  -5 -4.5 0  -5 -4.6 0  -5 -4.699999999999999 0  -5 -4.800000000000001 0  -5 -4.9 0  1.098767538869024 0.1004081632362343 0  1.082136278699174 0.1997129963647194 0  1.054105138516321 0.2974153859703228 0  1.016849986120706 0.3909558285401996 0  0.969145349513486 0.481882423353155 0  0.9122583371969699 0.5676023774338227 0  0.8457215999597988 0.6474287524290551 0  0.770204996209619 0.7205851305231061 0  0.6878034334295586 0.7869303901483238 0  0.5985471660451455 0.8457645181973394 0  0.5028913797755885 0.8957889438858335 0  0.4022156858591954 0.9370668753116161 0  0.2986546076998691 0.9694492481662982 0  0.1913077962643867 0.9915337670778335 0  0.0829244911732641 1.004314359273277 0  -0.026669720044587 1.006887348515933 0  -0.1360112081298112 0.9989527636636298 0  -0.2442098522575255 0.9818837461955815 0  -0.3499795631787932 0.9549663353841211 0  -0.4520676461197193 0.9182113998702679 0  -0.5494734796650548 0.8727901612964156 0  -0.6416882232358487 0.8182640095951292 0  -0.7275328900625048 0.7558279804639944 0  -0.8062792818744992 0.6860194352840928 0  -0.8772722807050038 0.608559121801899 0  -0.9391495752347667 0.5254134208284162 0  -0.9923056069908959 0.4375055768176624 0  -1.035070786278044 0.3447335875606651 0  -1.067325487199367 0.2490034779325331 0  -1.089242569031452 0.1508355912126295 0  -1.100378702300184 0.05075730439302829 0  -1.100403950553901 -0.04988941564265036 0  -1.089292294567425 -0.1498271725475895 0  -1.068440782702028 -0.247968603764379 0  -1.035025199586444 -0.3442476373811982 0  -0.9925328091136336 -0.436513999192497 0  -0.9396075551684772 -0.5246068831062561 0  -0.8778418266556006 -0.6074953498549891 0  -0.8068197295248133 -0.6843689133549893 0  -0.7276684066707827 -0.7539546319144544 0  -0.6413341728962831 -0.8158476401429765 0  -0.5497840167714987 -0.8706572926043836 0  -0.4510213969636634 -0.9161978257941142 0  -0.3488451894155805 -0.9533930996033246 0  -0.242888979485187 -0.9806445366842205 0  -0.1350252208429566 -0.998082727869028 0  -0.02601320562003938 -1.006489510410451 0  0.08324163240994646 -1.003496484980404 0  0.1923408510619194 -0.9904503992022424 0  0.2991310935412163 -0.9683226652677814 0  0.4038352159452797 -0.9360398633549517 0  0.5035048456069583 -0.8949119145065241 0  0.5989368694442303 -0.8450162255966454 0  0.688035573056111 -0.7872637886471741 0  0.7703883510989776 -0.7208788258466884 0  0.8454265274235125 -0.6470162630743421 0  0.9116362358799027 -0.5669383753774868 0  0.9693214118914859 -0.4814663910992513 0  1.017796612733838 -0.391027880400435 0  1.05496070523455 -0.2969223335102863 0  1.082208009811895 -0.1992710092832816 0  1.098801460834539 -0.1001836646383754 0  -2.449262204017507 4.919408299015295 0  -2.449198699494886 -4.911903689412012 0  4.911861082528618 2.448907795435071 0  4.919854328653742 -2.450277495305469 0  2.44705314060397 -4.897381589996026 0  2.441457820918988 4.901090395992026 0  -4.911876213419207 -2.448923066779024 0  -4.911877079812843 2.448926790497297 0  -1.749239730213126 4.912865708355743 0  -1.744994924922609 -4.916232564572141 0  4.922417017786241 1.744986274957763 0  4.911203360363874 -1.748881523801002 0  -4.911474618329083 -1.748600115728473 0  -4.912282525485125 1.748334037749765 0  1.746557376952371 4.906860528572246 0  1.748062809877101 -4.895248480080518 0  -1.149402724090306 4.911039522985301 0  -1.13020215073772 -4.918764336010972 0  -4.911702001620804 -1.148745324619823 0  -4.911528686017173 1.148544527847503 0  1.144360589584354 -4.915043370965432 0  1.149405754231814 4.911032812500482 0  4.911863142264879 1.147027161034786 0  4.922387143561351 -1.152714094620683 0  -0.5469612584450351 -4.912420577940724 0  -0.5467151484702985 4.920880764340662 0  -4.910844498106236 -0.5491629533912498 0  -4.910870111291547 0.5477155485598544 0  4.910212873468566 -0.5494900244620192 0  4.921499675785633 0.5461852627446662 0  0.5427711818457635 -4.899654206561554 0  0.5514486799854729 4.917790070629347 0  -4.912840350728309 -3.049107494975005 0  4.919348393839684 3.047071399231768 0  4.912358942204455 -3.049096493059152 0  -4.913683717554622 3.04619253437651 0  3.055913199953008 -4.918317665042028 0  -3.049289720386737 -4.912317623279815 0  3.052843176855579 4.914378660514981 0  -3.048731591401434 4.913199708762726 0  -4.910106045029732 -0.04995311216947508 0  0.04513787327854692 -4.914389095520691 0  0.04958760313301745 4.921230204806528 0  4.916955536046418 -0.05133233208242028 0  3.546104405056795 -4.919681316402496 0  -3.54942752
[...]
<PointData  Vectors="f_1050"> 
<DataArray  type="Float64"  Name="f_1050"  NumberOfComponents="3" format="ascii">-1.6225580294729274e-40 -1.6661499301926773e-40 0.0000000000000000e+00  2.0729605363112935e-40 -2.0765388422456196e-40 0.0000000000000000e+00  -2.4726427812033224e-40 -2.5049048822266259e-40 0.0000000000000000e+00  -3.1099002915332612e-40 3.2641665194819271e-40 0.0000000000000000e+00  1.3685004586411956e+01 -5.9820794655689979e-01 0.0000000000000000e+00  3.6175941099343529e-40 3.7064563185772572e-40 0.0000000000000000e+00  8.1712534742960884e-40 9.1295562255363539e-40 0.0000000000000000e+00  -1.8124662081569009e-39 -2.1385958425146361e-39 0.0000000000000000e+00  1.8713696446046504e-38 2.0954811361780275e-38 0.0000000000000000e+00  -6.0251087099561046e-38 -6.5461839732627149e-38 0.0000000000000000e+00  2.3281458284604083e-37 2.4892610781615723e-37 0.0000000000000000e+00  -8.4739686835576676e-37 -9.2284754685405200e-37 0.0000000000000000e+00  4.9852905960209629e-36 6.0097780000483137e-36 0.0000000000000000e+00  -3.0337515289604342e-35 -3.8875735493157665e-35 0.0000000000000000e+00  1.2214900911457368e-34 1.5924585023867336e-34 0.0000000000000000e+00  -2.5786383999345841e-34 -3.5106871250281160e-34 0.0000000000000000e+00  5.0146072239688821e-34 7.1257800571416405e-34 0.0000000000000000e+00  1.8016671461566704e-33 2.6151612213464308e-33 0.0000000000000000e+00  -8.2358311902192713e-33 -1.2006081161404528e-32 0.0000000000000000e+00  2.4174462738776320e-32 3.5852185596389694e-32 0.0000000000000000e+00  -1.3533955423262301e-31 -2.0677399732986692e-31 0.0000000000000000e+00  3.5512328149529293e-31 5.4665647344374210e-31 0.0000000000000000e+00  1.8801870526853782e-31 3.4780036491463763e-31 0.0000000000000000e+00  -1.6069956256090674e-30 -2.8337417088823375e-30 0.0000000000000000e+00  -8.6690490841032950e-31 -1.3598008326470006e-30 0.0000000000000000e+00  -2.3056899328618826e-30 -3.6727102792653610e-30 0.0000000000000000e+00  5.5003043777556817e-30 9.6656485203888940e-30 0.0000000000000000e+00  -1.3902139997790662e-29 -2.2255143441588992e-29 0.0000000000000000e+00  4.6009542409525382e-29 8.0785099763229381e-29 0.0000000000000000e+00  2.7599736249298433e-29 5.1847250471828208e-29 0.0000000000000000e+00  -2.2765622718148072e-28 -4.4203486878983855e-28 0.0000000000000000e+00  -7.4996825369795573e-29 -1.5482093596863298e-28 0.0000000000000000e+00  -1.2471630993640978e-28 -2.5423781314796459e-28 0.0000000000000000e+00  2.2042986169436690e-28 4.5979772299282403e-28 0.0000000000000000e+00  6.6830844611867737e-28 1.4906650504994050e-27 0.0000000000000000e+00  -8.0206933690349267e-29 -1.2158870695411784e-28 0.0000000000000000e+00  1.3363271325133885e-28 3.9779845055149035e-28 0.0000000000000000e+00  -1.1395020626636173e-28 -2.6735495540911140e-28 0.0000000000000000e+00  -4.8468652731736270e-28 -1.4178838648198331e-27 0.0000000000000000e+00  -4.3795941537478144e-28 -1.4262911923653554e-27 0.0000000000000000e+00  -3.4316777191925621e-29 -1.8663873470069503e-28 0.0000000000000000e+00  4.7544795647358422e-28 1.7124231457080616e-27 0.0000000000000000e+00  2.5399259320125781e-28 1.0470556000778483e-27 0.0000000000000000e+00  -5.9302111946754369e-29 -1.9658827430491730e-28 0.0000000000000000e+00  8.0621266413001807e-29 4.2721805146764756e-28 0.0000000000000000e+00  3.3310467912934467e-28 1.1339507732237058e-27 0.0000000000000000e+00  4.3200267555374682e-28 1.9017616773698226e-27 0.0000000000000000e+00  -2.2864103622385667e-28 -1.0742334719660015e-27 0.0000000000000000e+00  8.8882155029520295e-28 6.1378854537009170e-27 0.0000000000000000e+00  1.8762037580611694e-30 -4.7067397082342847e-29 0.0000000000000000e+00  -4.4682018199564682e-28 -5.3466281113837220e-27 0.0000000000000000e+00  -9.0642697148174729e-29 -3.1613947216493892e-27 0.0000000000000000e+00  -1.7324779554569393e-28 -4.4851201736256568e-27 0.0000000000000000e+00  -3.9371965201344297e-28 -1.1079539837309168e-26 0.0000000000000000e+00  -2.0956328172634547e-28 -1.2697404203237062e-26 0.0000000000000000e+00  1.6613734442352621e-29 -2.2103494097866844e-27 0.0000000000000000e+00  1.7882573912346000e-28 -6.9870610553578883e-27 0.0000000000000000e+00  2.1688496506272368e-28 -2.5789744954357589e-27 0.0000000000000000e+00  4.4501387549274035e-28 -4.5532116254931872e-27 0.0000000000000000e+00  -2.5103691526818300e-28 1.9655396437994224e-27 0.0000000000000000e+00  7.7096164959553249e-28 -6.1547339487878642e-27 0.0000000000000000e+00  8.4940361594017253e-28 -5.5768747237184100e-27 0.0000000000000000e+00  -1.8558255153071989e-28 1.0805526365070467e-27 0.0000000000000000e+00  -1.7017119557155035e-27 8.1383793434873555e-27 0.0000000000000000e+00  -7.4885424930299518e-28 3.2269607143282178e-27 0.0000000000000000e+00  -4.0391807806297037e-28 1.9287239930404904e-27 0.0000000000000000e+00  -1.2222948896498199e-27 4.6486754038325858e-27 0.0000000000000000e+00  -7.2334966118552412e-28 2.4535735551473102e-27 0.0000000000000000e+00  8.5107185019334839e-28 -2.7254119142870749e-27 0.0000000000000000e+00  4.2096433013155073e-28 -1.2807145810088320e-27 0.0000000000000000e+00  8.7525244834298960e-29 -2.9190279227144280e-28 0.0000000000000000e+00  3.3872143609500944e-28 -9.8857128265071500e-28 0.0000000000000000e+00  3.0575645043749724e-28 -7.7275362241433306e-28 0.0000000000000000e+00  -2.5979342699260446e-28 6.3735284177257823e-28 0.0000000000000000e+00  -2.1414161342941019e-28 4.8128748046552609e-28 0.0000000000000000e+00  -1.5346402037989434e-28 3.3022481408522795e-28 0.0000000000000000e+00  1.8986950680689358e-29 -4.4245268947080672e-29 0.0000000000000000e+00  1.1041679322549115e-28 -2.2624718316972598e-28 0.0000000000000000e+00  1.5619432735633506e-28 -2.9591724778057973e-28 0.0000000000000000e+00  -5.1528021684827355e-30 1.5278056589422518e-29 0.0000000000000000e+00  -1.0704543396504667e-28 1.9122770045920477e-28 0.0000000000000000e+00  1.7486246149188313e-29 -3.1665609928792860e-29 0.0000000000000000e+00  5.8563416245236042e-30 -9.4165644195959459e-30 0.0000000000000000e+00  -1.4868571107905980e-29 2.5730898183158668e-29 0.0000000000000000e+00  -1.0549733984003038e-30 1.7660767467338011e-30 0.0000000000000000e+00  1.6493860792559492e-30 -2.7449173674605374e-30 0.0000000000000000e+00  -8.5730367922922327e-31 1.4020921314009939e-30 0.0000000000000000e+00  1.0701398914794911e-31 -1.7193054730703091e-31 0.0000000000000000e+00  -1.3013479345876913e-32 1.9777419128147942e-32 0.0000000000000000e+00  -4.1971404206899754e-34 8.0212574852383812e-34 0.0000000000000000e+00  6.9408186469065822e-33 -1.0259525882952738e-32 0.0000000000000000e+00  3.9860754283047724e-34 -4.9487376007602341e-34 0.0000000000000000e+00  -4.6374469832673708e-34 6.4273817631591699e-34 0.0000000000000000e+00  5.1825836237463026e-35 -7.6086025543019279e-35 0.0000000000000000e+00  -2.0776085073458842e-35 2.7364052463758589e-35 0.0000000000000000e+00  4.7707344518904476e-36 -6.0515550495672805e-36 0.0000000000000000e+00  -1.5599517258394169e-36 1.9349591542740421e-36 0.0000000000000000e+00  5.1013154707075244e-37 -6.0542034097945188e-37 0.0000000000000000e+00  -2.5433015857845976e-37 2.9788618129517140e-37 0.0000000000000000e+00  8.5971360661147663e-38 -9.9531140683519686e-38 0.0000000000000000e+00  -1.7786518361724827e-38 1.9999391462853968e-38 0.0000000000000000e+00  7.2212840257963326e-39 -7.9484889935718625e-39 0.0000000000000000e+00  -4.2920942369962344e-40 4.9252749562475525e-40 0.0000000000000000e+00  -3.5409722196560693e-40 3.5972284833457370e-40 0.0000000000000000e+00  -1.3906850434442587e-41 7.3435116582839194e-42 0.0000000000000000e+00  4.0249229382383351e-40 -4.0208122614477142e-40 0.0000000000000000e+00  -9.3482201815523198e-40 8.9300383977060689e-40 0.0000000000000000e+00  3.6355653274370348e-39 -3.3561592480172145e-39 0.0000000000000000e+00  -2.4978050649137083e-39 2.1986174530245609e-39 0.0000000000000000e+00  -1.5759976193167317e-38 1.4043401935021526e-38 0.0000000000000000e+00  6.3680575348989899e-38 -5.4997124208849173e-38 0.0000000000000000e+00  -8.9544948789243079e-38 7.5131726232827600e-38 0.0000000000000000e+00  -1.4263220565526022e-37 1.1789017115245109e-37 0.0000000000000000e+00  9.6915201589687053e-37 -7.7716064023325864e-37 0.0000000000000000e+00  -1.7339214241107280e-36 1.3595082620123355e-36 0.0000000000000000e+00  -1.3176897568511179e-36 9.8158739658317374e-37 0.0000000000000000e+00  1.3352884710158865e-35 -9.8710224603325026e-36 0.0000000000000000e+00  -2.6344375664386031e-35 1.9022947506420180e-35 0.0000000000000000e+00  -1.7440712057680684e-35 1.1719678935901590e-35 0.0000000000000000e+00  1.9345664843282109e-34 -1.3056077983181701e-34 0.0000000000000000e+00  -3.1592401267318920e-34 2.1082978394487046e-34 0.0000000000000000e+00  -4.0872681508672019e-34 2.5209087418555468e-34 0.0000000000000000e+00  2.6218549886435974e-33 -1.6065453114494897e-33 0.0000000000000000e+00  -2.6551097451650613e-33 1.6269331740995786e-33 0.0000000000000000e+00  -9.3586921901511558e-33 5.2420001367739822e-33 0.0000000000000000e+00  3.0040721592400880e-32 -1.6762726941676238e-32 0.0000000000000000e+00  1.8627694028890199e-33 2.0465341474752854e-35 0.0000000000000000e+00  -1.6135322750066291e-31 8.1366285873492190e-32 0.0000000000000000e+00  2.1734097650103674e-31 -1.0951738974316738e-31 0.0000000000000000e+00  5.3104506620608630e-31 -2.3767487380899962e-31 0.0000000000000000e+00  -1.6008756482366163e-30 7.2246407470359495e-31 0.0000000000000000e+00  -8.7774650801643208e-31 3.1397763631997566e-31 0.0000000000000000e+00  8.4224601735888763e-30 -3.4000084904215956e-30 0.0000000000000000e+00  -2.6173483985440679e-30 1.3034324584319053e-30 0.0000000000000000e+00  -3.6699211881058148e-29 1.3075986984726739e-29 0.0000000000000000e+00  3.0589512667214301e-29 -1.1734819237112559e-29 0.0000000000000000e+00  1.4762220721515453e-28 -4.6129335344201043e-29 0.0000000000000000e+00  -1.6690526270649481e-28 5.5665893297739527e-29 0.0000000000000000e+00  -6.0754776730347112e-28 1.6473740822735156e-28 0.0000000000000000e+00  6.3955657626750104e-28 -1.9729037619994804e-28 0.0000000000000000e+00  2.5068554219587182e-27 -5.8794636156973915e-28 0.0000000000000000e+00  -1.8861291627703093e-27 5.3021169528248495e-28 0.0000000000000000e+00  -9.5909015028236201e-27 1.8997512342976798e-27 0.0000000000000000e+00  2.3885472410308522e-27 -7.4515530182109161e-28 0.0000000000000000e+00  2.9766338158436533e-26 -5.0118340391844499e-27 0.0000000000000000e+00  1.4512441875786123e-26 -1.4225719205868790e-27 0.0000000000000000e+00  -8.4734632412949230e-26 1.2066252033929880e-26 0.0000000000000000e+00  -1.2838627490500924e-25 1.4783721099317276e-26 0.0000000000000000e+00  1.4620018642543570e-25 -1.2716622169617889e-26 0.0000000000000000e+00  8.4956147702014912e-25 -5.0063667935244150e-26 0.0000000000000000e+00  1.5517099130135713e-24 -5.3269542873064202e-26 0.0000000000000000e+00  1.8931650984612359e-24 -2.6871496455833420e-26 0.0000000000000000e+00  1.8513601986435834e-24 -4.9694713002312627e-27 0.0000000000000000e+00  1.8735865543518043e-24 -2.8365046902145615e-27 0.0000000000000000e+00  2.0090426916786673e-24 7.7261557997824092e-27 0.0000000000000000e+00  1.8645514914467179e-24 3.5082762385752735e-26 0.0000000000000000e+00  1.2200621438697444e-24 4.7735268905342525e-26 0.0000000000000000e+00  3.5861430589359875e-25 2.4317456100860061e-26 0.0000000000000000e+00  -1.6740130606075848e-25 -1.0248344134776124e-26 0.0000000000000000e+00  -2.1746220579375818e-25 -2.1207124528404176e-26 0.0000000000000000e+00  -3.8813766553743766e-26 -5.8651173382961421e-27 0.0000000000000000e+00  6.0292534237001801e-26 7.5766812099234356e-27 0.0000000000000000e+00  3.6872425944195199e-26 5.9180003892752347e-27 0.0000000000000000e+00  -5.1767419131048278e-27 -7.6068506546030771e-28 0.0000000000000000e+00  -1.0823630962137273e-26 -2.1598609354790390e-27 0.0000000000000000e+00  -7.5669073603303991e-28 -2.0752519976689446e-28 0.0000000000000000e+00  2.6882308751941620e-27 6.3955897421035083e-28 0.0000000000000000e+00  3.9227547271656709e-28 1.1199819162967523e-28 0.0000000000000000e+00  -6.3580197406284498e-28 -1.7785195405203312e-28 0.0000000000000000e+00  -8.9025132199919320e-29 -2.9584770482872611e-29 0.0000000000000000e+00  1.4771160956713689e-28 4.8366394960234264e-29 0.0000000000000000e+00  6.9484012125886034e-30 3.2401441540871031e-30 0.0000000000000000e+00  -3.3137155640136729e-29 -1.2403184953234312e-29 0.0000000000000000e+00  2.7623731453255339e-30 8.9359400992358636e-31 0.0000000000000000e+00  6.3339968449157459e-30 2.7130966194144615e-30 0.0000000000000000e+00  -1.8474722911676912e-30 -7.6065745513557151e-31 0.0000000000000000e+00  -9.3786893738077518e-31 -4.5311687313158301e-31 0.0000000000000000e+00  6.0221292815479936e-31 2.8393200365588577e-31 0.0000000000000000e+00  3.3779771249637999e-32 2.3421945956950781e-32 0.0000000000000000e+00  -1.3321440486894227e-31 -6.9191538464279677e-32 0.0000000000000000e+00  3.0005657958864636e-32 1.4749005364630589e-32 0.0000000000000000e+00  1.9163024052815530e-32 1.1055772251335032e-32 0.0000000000000000e+00  -1.2281500870354206e-32 -6.9249722485556590e-33 0.0000000000000000e+00  1.8663361924791639e-34 -4.9525670840322030e-36 0.0000000000000000e+00  2.2134879431355234e-33 1.3841854359250938e-33 0.0000000000000000e+00  -8.4110760076569199e-34 -5.1771497045170337e-34 0.0000000000000000e+00  -1.1702398187469002e-34 -8.5536107996513674e-35 0.0000000000000000e+00  2.0252438254558394e-34 1.3675142852170431e-34 0.0000000000000000e+00  -5.7105019353677829e-35 -3.8589556156176443e-35 0.0000000000000000e+00  -1.3253360404491229e-35 -9.8773114852196384e-36 0.0000000000000000e+00  1.5034444901292778e-35 1.1022463658787160e-35 0.0000000000000000e+00  -3.9152183550747944e-36 -2.8871780240004596e-36 0.0000000000000000e+00  -9.2960319385220488e-37 -7.3775284692257138e-37 0.0000000000000000e+00  1.0563133610706839e-36 8.3639913683500179e-37 0.0000000000000000e+00  -3.0504255710392820e-37 -2.4600479448276573e-37 0.0000000000000000e+00  -3.8103293383575231e-38 -3.1991347151827060e-38 0.0000000000000000e+00  6.6479600474206952e-38 5.6636212339704985e-38 0.0000000000000000e+00  -2.5245110046006328e-38 -2.1990202741422287e-38 0.0000000000000000e+00  8.6632138454532841e-40 7.9256785280152256e-40 0.0000000000000000e+00  3.5651426221327598e-39 3.2273116966320860e-39 0.0000000000000000e+00  -1.8553713717887992e-39 -1.7208875615341048e-39 0.0000000000000000e+00  3.9846385726607373e-40 3.7964879438646561e-40 0.0000000000000000e+00  1.9401601395605490e-40 1.8597719655442887e-40 0.0000000000000000e+00  3.6622827202541864e-40 3.9234696720840098e-40 0.0000000000000000e+00  -1.0799380343480153e-39 -1.1416454731142437e-39 0.0000000000000000e+00  2.1193454548003261e-39 2.3085409992061906e-39 0.0000000000000000e+00  -1.4360013891784291e-38 -1.5580932872154619e-38 0.0000000000000000e+00  1.0223206559667088e-37 1.1261189766028000e-37 0.0000000000000000e+00  -2.3384914451249697e-37 -2.6410344306629298e-37 0.0000000000000000e+00  2.6821295083258815e-37 3.1619746715941656e-37 0.0000000000000000e+00  -4.2494632663964493e-36 -5.1092632004629194e-36 0.0000000000000000e+00  1.3627583113884326e-35 1.6453487694503667e-35 0.0000000000000000e+00  -5.9681281903771404e-35 -7.3129344695290800e-35 0.0000000000000000e+00  1.3306744070291991e-34 1.6977248853977877e-34 0.0000000000000000e+00  -2.8040229050183494e-34 -3.7536141388668036e-34 0.0000000000000000e+00  1.4294927360014299e-33 1.9265101880185805e-33 0.0000000000000000e+00  -1.1232556883626802e-33 -1.5187337909873015e-33 0.0000000000000000e+00  5.8946086890198418e-33 7.7224418495082243e-33 0.0000000000000000e+00  4.3401007987834217e-32 6.7439041177151656e-32 0.0000000000000000e+00  -2.0594566643913300e-31 -3.1271779901110660e-31 0.0000000000000000e+00  -5.6064969193059943e-31 -9.2616310645549708e-31 0.0000000000000000e+00  1.0664255244164600e-30 1.8044471944799573e-30 0.0000000000000000e+00  -8.9245642092301528e-32 -1.4640163677380094e-31 0.0000000000000000e+00  -3.3223607298957591e-30 -5.6776725464729446e-30 0.0000000000000000e+00  9.8230243695891413e-30 1.6242849043681657e-29 0.0000000000000000e+00  1.4927420599636697e-29 2.7559914571246336e-29 0.0000000000000000e+00  -9.7883696554833077e-29 -1.7935678379047987e-28 0.0000000000000000e+00  3.1731812620717529e-29 6.0035493456704118e-29 0.0000000000000000e+00  1.0007778889606711e-28 2.1086850379439241e-28 0.0000000000000000e+00  4.0491270420064884e-29 7.4438727909474570e-29 0.0000000000000000e+00  3.4653105727202581e-28 7.0080712188703756e-28 0.0000000000000000e+00  1.4715114704254056e-28 3.3840941442121118e-28 0.0000000000000000e+00  -4.2505042250525840e-28 -8.9079738688413753e-28 0.0000000000000000e+00  -4.0161302764272464e-28 -1.0528695453876744e-27 0.0000000000000000e+00  4.1483287326462848e-28 9.9411985812352014e-28 0.0000000000000000e+00  7.5893342511391786e-28 1.9269692245929201e-27 0.0000000000000000e+00  3.9203137915914715e-28 1.1806682322368951e-27 0.0000000000000000e+00  7.0438311154031387e-29 4.4428716319353854e-28 0.0000000000000000e+00  -8.7034355313597263e-28 -2.6253411556457846e-27 0.0000000000000000e+00  -3.2447343714019735e-28 -9.2203770675038199e-28 0.0000000000000000e+00  -1.5359642923884638e-28 -4.3119390907803486e-28 0.0000000000000000e+00  -4.2909286985654197e-28 -1.6773461700768879e-27 0.0000000000000000e+00  -3.8263833403521103e-28 -1.6147852821160857e-27 0.0000000000000000e+00  -3.3081240969124960e-28 -1.9922355481171473e-27 0.0000000000000000e+00  5.9491334672090372e-29 -2.6474129890223237e-28 0.0000000000000000e+00  4.1861953930551011e-28 2.2059973679272570e-27 0.0000000000000000e+00  6.0773538300963166e-29 2.0781776088256654e-28 0.0000000000000000e+00  -2.8421435437820006e-28 -2.5634446399743256e-27 0.0000000000000000e+00  1.7183008727368383e-28 1.4001479430964338e-27 0.0000000000000000e+00  1.0408117227162597e-28 1.2564538533827476e-27 0.0000000000000000e+00  -7.1838081251941951e-29 -1.4031064069405046e-27 0.0000000000000000e+00  -9.5817339896539543e-30 -1.6069984908126304e-28 0.0000000000000000e+00  -2.4778046158221017e-29 -1.4795667602849670e-27 0.0000000000000000e+00  -4.1291221206973293e-29 2.5313222550514085e-27 0.0000000000000000e+00  -1.2298359667399248e-28 2.3694755939032156e-27 0.0000000000000000e+00  4.1719466912928317e-29 -1.6878634722949601e-27 0.0000000000000000e+00  -4.2446374321708534e-29 -1.4511973197539529e-28 0.0000000000000000e+00  2.2953656573184298e-28 -2.3913284086316597e-27 0.0000000000000000e+00  -3.3353929367196276e-28 1.8510078476504190e-27 0.0000000000000000e+00  -2.1003605419929874e-28 8.5209421000915501e-28 0.0000000000000000e+00  8.2615142247643280e-30 -6.8873850783967087e-28 0.0000000000000000e+00  -5.9965157864157468e-29 -1.8272358571350550e-28 0.0000000000000000e+00  5.9470403943725147e-28 -2.8540848267053048e-27 0.0000000000000000e+00  7.3190171951258505e-28 -3.3946881652949110e-27 0.0000000000000000e+00  1.2508491557213043e-27 -4.7299894298849275e-27 0.0000000000000000e+00  4.1280990284489916e-28 -1.3107595291141523e-27 0.0000000000000000e+00  -3.1570713163176497e-28 1.2208855598166880e-27 0.0000000000000000e+00  -8.3521025347106906e-28 2.5110163664776589e-27 0.0000000000000000e+00  -9.9578434295665162e-28 2.7490507205029120e-27 0.0000000000000000e+00  -2.9158307018584107e-28 7.0575338595033711e-28 0.0000000000000000e+00  1.6200104550894239e-28 -4.4345352565886239e-28 0.0000000000000000e+00  2.1715995742259980e-28 -5.3038975109941790e-28 0.0000000000000000e+00  8.8877041815693220e-28 -1.9313820396858426e-27 0.0000000000000000e+00  3.6631039027412071e-28 -7.5279663747039440e-28 0.0000000000000000e+00  -3.0173257583872685e-28 6.0661247094727598e-28 0.0000000000000000e+00  -1.0789680635315244e-29 3.0752433106634360e-29 0.0000000000000000e+00  3.2771147890205382e-29 -6.8094939339109692e-29 0.0000000000000000e+00  8.2265503448250488e-29 -1.5419971804710734e-28 0.0000000000000000e+00  -1.6608260357127039e-29 3.1377891323762084e-29 0.0000000000000000e+00  -2.4337400575082515e-29 4.2367695820407231e-29 0.0000000000000000e+00  2.412