<?xml version="1.0"?>
<VTKFile type="UnstructuredGrid"  version="0.1"  >
<UnstructuredGrid>
<Piece  NumberOfPoints="11902" NumberOfCells="23402">
<Points>
<DataArray  type="Float64"  NumberOfComponents="3"  format="ascii">-5 -5 0  5 -5 0  5 5 0  -5 5 0  1.056755058518095 0.000372076978767809 0  -4.9 -5 0  -4.8 -5 0  -4.7 -5 0  -4.6 -5 0  -4.5 -5 0  -4.4 -5 0  -4.3 -5 0  -4.2 -5 0  -4.1 -5 0  -4 -5 0  -3.9 -5 0  -3.8 -5 0  -3.7 -5 0  -3.6 -5 0  -3.5 -5 0  -3.4 -5 0  -3.3 -5 0  -3.2 -5 0  -3.1 -5 0  -3 -5 0  -2.9 -5 0  -2.8 -5 0  -2.7 -5 0  -2.6 -5 0  -2.5 -5 0  -2.4 -5 0  -2.3 -5 0  -2.2 -5 0  -2.1 -5 0  -2 -5 0  -1.9 -5 0  -1.8 -5 0  -1.7 -5 0  -1.6 -5 0  -1.5 -5 0  -1.4 -5 0  -1.3 -5 0  -1.2 -5 0  -1.1 -5 0  -1 -5 0  -0.9000000000000004 -5 0  -0.7999999999999998 -5 0  -0.7000000000000002 -5 0  -0.5999999999999996 -5 0  -0.5 -5 0  -0.4000000000000004 -5 0  -0.2999999999999998 -5 0  -0.2000000000000002 -5 0  -0.09999999999999964 -5 0  0 -5 0  0.09999999999999964 -5 0  0.2000000000000002 -5 0  0.2999999999999998 -5 0  0.4000000000000004 -5 0  0.5 -5 0  0.5999999999999996 -5 0  0.7000000000000002 -5 0  0.7999999999999998 -5 0  0.9000000000000004 -5 0  1 -5 0  1.1 -5 0  1.2 -5 0  1.3 -5 0  1.4 -5 0  1.5 -5 0  1.6 -5 0  1.7 -5 0  1.8 -5 0  1.9 -5 0  2 -5 0  2.1 -5 0  2.2 -5 0  2.3 -5 0  2.4 -5 0  2.5 -5 0  2.6 -5 0  2.7 -5 0  2.8 -5 0  2.9 -5 0  3 -5 0  3.1 -5 0  3.199999999999999 -5 0  3.300000000000001 -5 0  3.4 -5 0  3.5 -5 0  3.6 -5 0  3.699999999999999 -5 0  3.800000000000001 -5 0  3.9 -5 0  4 -5 0  4.1 -5 0  4.199999999999999 -5 0  4.300000000000001 -5 0  4.4 -5 0  4.5 -5 0  4.6 -5 0  4.699999999999999 -5 0  4.800000000000001 -5 0  4.9 -5 0  5 -4.9 0  5 -4.8 0  5 -4.7 0  5 -4.6 0  5 -4.5 0  5 -4.4 0  5 -4.3 0  5 -4.2 0  5 -4.1 0  5 -4 0  5 -3.9 0  5 -3.8 0  5 -3.7 0  5 -3.6 0  5 -3.5 0  5 -3.4 0  5 -3.3 0  5 -3.2 0  5 -3.1 0  5 -3 0  5 -2.9 0  5 -2.8 0  5 -2.7 0  5 -2.6 0  5 -2.5 0  5 -2.4 0  5 -2.3 0  5 -2.2 0  5 -2.1 0  5 -2 0  5 -1.9 0  5 -1.8 0  5 -1.7 0  5 -1.6 0  5 -1.5 0  5 -1.4 0  5 -1.3 0  5 -1.2 0  5 -1.1 0  5 -1 0  5 -0.9000000000000004 0  5 -0.7999999999999998 0  5 -0.7000000000000002 0  5 -0.5999999999999996 0  5 -0.5 0  5 -0.4000000000000004 0  5 -0.2999999999999998 0  5 -0.2000000000000002 0  5 -0.09999999999999964 0  5 0 0  5 0.09999999999999964 0  5 0.2000000000000002 0  5 0.2999999999999998 0  5 0.4000000000000004 0  5 0.5 0  5 0.5999999999999996 0  5 0.7000000000000002 0  5 0.7999999999999998 0  5 0.9000000000000004 0  5 1 0  5 1.1 0  5 1.2 0  5 1.3 0  5 1.4 0  5 1.5 0  5 1.6 0  5 1.7 0  5 1.8 0  5 1.9 0  5 2 0  5 2.1 0  5 2.2 0  5 2.3 0  5 2.4 0  5 2.5 0  5 2.6 0  5 2.7 0  5 2.8 0  5 2.9 0  5 3 0  5 3.1 0  5 3.199999999999999 0  5 3.300000000000001 0  5 3.4 0  5 3.5 0  5 3.6 0  5 3.699999999999999 0  5 3.800000000000001 0  5 3.9 0  5 4 0  5 4.1 0  5 4.199999999999999 0  5 4.300000000000001 0  5 4.4 0  5 4.5 0  5 4.6 0  5 4.699999999999999 0  5 4.800000000000001 0  5 4.9 0  4.9 5 0  4.8 5 0  4.7 5 0  4.6 5 0  4.5 5 0  4.4 5 0  4.3 5 0  4.2 5 0  4.1 5 0  4 5 0  3.9 5 0  3.8 5 0  3.7 5 0  3.6 5 0  3.5 5 0  3.4 5 0  3.3 5 0  3.2 5 0  3.1 5 0  3 5 0  2.9 5 0  2.8 5 0  2.7 5 0  2.6 5 0  2.5 5 0  2.4 5 0  2.3 5 0  2.2 5 0  2.1 5 0  2 5 0  1.9 5 0  1.8 5 0  1.7 5 0  1.6 5 0  1.5 5 0  1.4 5 0  1.3 5 0  1.2 5 0  1.1 5 0  1 5 0  0.9000000000000004 5 0  0.7999999999999998 5 0  0.7000000000000002 5 0  0.5999999999999996 5 0  0.5 5 0  0.4000000000000004 5 0  0.2999999999999998 5 0  0.2000000000000002 5 0  0.09999999999999964 5 0  0 5 0  -0.09999999999999964 5 0  -0.2000000000000002 5 0  -0.2999999999999998 5 0  -0.4000000000000004 5 0  -0.5 5 0  -0.5999999999999996 5 0  -0.7000000000000002 5 0  -0.7999999999999998 5 0  -0.9000000000000004 5 0  -1 5 0  -1.1 5 0  -1.2 5 0  -1.3 5 0  -1.4 5 0  -1.5 5 0  -1.6 5 0  -1.7 5 0  -1.8 5 0  -1.9 5 0  -2 5 0  -2.1 5 0  -2.2 5 0  -2.3 5 0  -2.4 5 0  -2.5 5 0  -2.6 5 0  -2.7 5 0  -2.8 5 0  -2.9 5 0  -3 5 0  -3.1 5 0  -3.199999999999999 5 0  -3.300000000000001 5 0  -3.4 5 0  -3.5 5 0  -3.6 5 0  -3.699999999999999 5 0  -3.800000000000001 5 0  -3.9 5 0  -4 5 0  -4.1 5 0  -4.199999999999999 5 0  -4.300000000000001 5 0  -4.4 5 0  -4.5 5 0  -4.6 5 0  -4.699999999999999 5 0  -4.800000000000001 5 0  -4.9 5 0  -5 4.9 0  -5 4.8 0  -5 4.7 0  -5 4.6 0  -5 4.5 0  -5 4.4 0  -5 4.3 0  -5 4.2 0  -5 4.1 0  -5 4 0  -5 3.9 0  -5 3.8 0  -5 3.7 0  -5 3.6 0  -5 3.5 0  -5 3.4 0  -5 3.3 0  -5 3.2 0  -5 3.1 0  -5 3 0  -5 2.9 0  -5 2.8 0  -5 2.7 0  -5 2.6 0  -5 2.5 0  -5 2.4 0  -5 2.3 0  -5 2.2 0  -5 2.1 0  -5 2 0  -5 1.9 0  -5 1.8 0  -5 1.7 0  -5 1.6 0  -5 1.5 0  -5 1.4 0  -5 1.3 0  -5 1.2 0  -5 1.1 0  -5 1 0  -5 0.9000000000000004 0  -5 0.7999999999999998 0  -5 0.7000000000000002 0  -5 0.5999999999999996 0  -5 0.5 0  -5 0.4000000000000004 0  -5 0.2999999999999998 0  -5 0.2000000000000002 0  -5 0.09999999999999964 0  -5 0 0  -5 -0.09999999999999964 0  -5 -0.2000000000000002 0  -5 -0.2999999999999998 0  -5 -0.4000000000000004 0  -5 -0.5 0  -5 -0.5999999999999996 0  -5 -0.7000000000000002 0  -5 -0.7999999999999998 0  -5 -0.9000000000000004 0  -5 -1 0  -5 -1.1 0  -5 -1.2 0  -5 -1.3 0  -5 -1.4 0  -5 -1.5 0  -5 -1.6 0  -5 -1.7 0  -5 -1.8 0  -5 -1.9 0  -5 -2 0  -5 -2.1 0  -5 -2.2 0  -5 -2.3 0  -5 -2.4 0  -5 -2.5 0  -5 -2.6 0  -5 -2.7 0  -5 -2.8 0  -5 -2.9 0  -5 -3 0  -5 -3.1 0  -5 -3.199999999999999 0  -5 -3.300000000000001 0  -5 -3.4 0  -5 -3.5 0  -5 -3.6 0  -5 -3.699999999999999 0  -5 -3.800000000000001 0  -5 -3.9 0  -5 -4 0  -5 -4.1 0  -5 -4.199999999999999 0  -5 -4.300000000000001 0  -5 -4.4 0  -5 -4.5 0  -5 -4.6 0  -5 -4.699999999999999 0  -5 -4.800000000000001 0  -5 -4.9 0  1.051576238847747 0.1002384028422425 0  1.03578650114723 0.1994262664550904 0  1.009318564170484 0.2968091038887251 0  0.9735064735269447 0.3906712153341431 0  0.9278983448960714 0.4812773311294619 0  0.8732901683844111 0.566886895941956 0  0.8097072959732388 0.6466498009506315 0  0.7376842127869105 0.7199089969162752 0  0.6587801803216365 0.7862353898419353 0  0.5733491057630963 0.8449064365073734 0  0.4819924904476665 0.8948765097187764 0  0.3857362517303171 0.9360527607217092 0  0.286290502998037 0.9681655023323493 0  0.1835382200457735 0.9902479247223158 0  0.07932421889558003 1.002812780604069 0  -0.02587909975980972 1.005348491550173 0  -0.1308398065902362 0.9976687631011046 0  -0.2345276219682058 0.980531217064086 0  -0.3358384652876744 0.9535371584740803 0  -0.4337480244843503 0.9168523053503684 0  -0.5272623421440044 0.8713427370208795 0  -0.6156378914259851 0.8169618767449283 0  -0.6979132769856674 0.7545747606081231 0  -0.7732750025531812 0.684800263583788 0  -0.8410503950501396 0.607735665009261 0  -0.9002544495961553 0.5247527947982812 0  -0.9508782098234096 0.436825120103239 0  -0.9917369399483378 0.3442872417140476 0  -1.022633819856338 0.2485270511843067 0  -1.043569468051456 0.1503277855142198 0  -1.054162740122679 0.05044111801214333 0  -1.054176500519459 -0.04998382296331573 0  -1.043600457982708 -0.1498016089038956 0  -1.023334523027849 -0.2479648152570447 0  -0.9917362328083094 -0.3439614143339609 0  -0.950986493322053 -0.4362333621417605 0  -0.9004803852721677 -0.5242697790464829 0  -0.841310497489929 -0.6071045029421805 0  -0.7735058942155182 -0.6838635980908933 0  -0.6979103117460024 -0.7535604101156507 0  -0.6153856745768039 -0.8156608756955172 0  -0.5274388122263236 -0.8703196192173543 0  -0.4332516552226588 -0.9158075836537638 0  -0.3352940517269452 -0.9526762364932457 0  -0.2338473413318752 -0.9797943820556453 0  -0.1302775630318535 -0.9971446900000711 0  -0.02549263540229765 -1.005128153208892 0  0.07945712402294985 -1.002407951766238 0  0.1840110543946988 -0.9896742593525079 0  0.2864637125830376 -0.9675228158167751 0  0.3865557575111397 -0.9354387480881805 0  0.4822494146348538 -0.8943029814305068 0  0.5735675773021208 -0.8443668503390994 0  0.6589336994849286 -0.7863486669061736 0  0.7378172123375251 -0.7200431517561553 0  0.8095359624574875 -0.6464148359212085 0  0.8729800376703015 -0.566445032407945 0  0.9280582316054089 -0.4809923689948715 0  0.9741043157320429 -0.3906881606496857 0  1.009809983479025 -0.2966053758055693 0  1.03582279539124 -0.1991923672284828 0  1.05161048029362 -0.1001377428486527 0  -2.449568047518647 4.919976299303991 0  -2.449531483591558 -4.912522950080347 0  4.912495078653381 2.449356157621002 0  4.920429576533066 -2.450685226589862 0  2.447440385438377 -4.898109198472088 0  2.44183249962667 4.901794234446138 0  -4.912504902607461 -2.449366496611228 0  -4.912507429001949 2.449370101453984 0  -1.749553894598002 4.91367921455207 0  -1.74529524579893 -4.91701318710917 0  4.923215136863685 1.745390614033125 0  4.912114600980685 -1.749345111015198 0  -4.912375786115082 -1.749056746581307 0  -4.913177328786491 1.748785783838586 0  1.746890851322519 4.907734595742214 0  1.748436336290593 -4.896229701778125 0  -1.149651661643595 4.912020615226647 0  -1.130425866992795 -4.919660818398893 0  -4.912826879605676 -1.149119955162457 0  -4.912657337158893 1.14891855165531 0  1.144593095190122 -4.915982046030558 0  1.149651688237703 4.912016834128803 0  4.912997370619297 1.147404680979312 0  4.923383492971352 -1.153048126516986 0  -0.5470904236726363 -4.913482793812373 0  -0.5468320337705687 4.921843581053828 0  -4.912148566598273 -0.5493707819017407 0  -4.912174920067251 0.5479210237926694 0  4.911538722417053 -0.5497018965929972 0  4.922659513125741 0.5463686310148613 0  0.5429125643566445 -4.900874509023505 0  0.5515675658811526 4.918791458667034 0  -4.913265512763032 -3.049474888211662 0  4.919745284720296 3.047415271471828 0  4.912788961267047 -3.049469915905703 0  -4.914106934888788 3.04655698998116 0  3.056187104185103 -4.918735819662085 0  -3.049584173483564 -4.912764482377138 0  3.053131485365828 4.914818185880955 0  -3.049024328360823 4.913643279638926 0  -4.91147712905771 -0.04997388013591372 0  0.04514569339495837 -4.91545847556162 0  0.0495965430006079 4.922217112191408 0  4.918234184855449 -0.05135179657442507 0  3.54632237416449 -4.919975035346753 0  -3.5496645253
[...]
<PointData  Vectors="f_626"> 
<DataArray  type="Float64"  Name="f_626"  NumberOfComponents="3" format="ascii">-1.6419390390115484e-40 -1.6821366807088854e-40 0.0000000000000000e+00  2.1595149843650761e-40 -2.1588977814209541e-40 0.0000000000000000e+00  -2.5001527879014092e-40 -2.5599103673431426e-40 0.0000000000000000e+00  -3.1815708832029085e-40 3.3768830561627244e-40 0.0000000000000000e+00  1.2573047577944942e+01 -6.9388548703139497e-01 0.0000000000000000e+00  3.6354727027023948e-40 3.7312353124871818e-40 0.0000000000000000e+00  8.1906894861495540e-40 9.2985745540202961e-40 0.0000000000000000e+00  -1.8194012098613303e-39 -2.1693758928624899e-39 0.0000000000000000e+00  1.8775284204536994e-38 2.1107447245692176e-38 0.0000000000000000e+00  -6.0551101250795160e-38 -6.5728449464273732e-38 0.0000000000000000e+00  2.3623372454092485e-37 2.4949537474988998e-37 0.0000000000000000e+00  -8.6821555034290835e-37 -9.3182399279780529e-37 0.0000000000000000e+00  5.0703756139174900e-36 6.1119746396317553e-36 0.0000000000000000e+00  -3.0521184640531736e-35 -3.9565380115974575e-35 0.0000000000000000e+00  1.2271888903825088e-34 1.6169954932868121e-34 0.0000000000000000e+00  -2.5657960886281871e-34 -3.5508893645220121e-34 0.0000000000000000e+00  4.9109421034928585e-34 7.1586043618464508e-34 0.0000000000000000e+00  1.7886876067236547e-33 2.6611856184226518e-33 0.0000000000000000e+00  -8.2269185163208248e-33 -1.2203412128816623e-32 0.0000000000000000e+00  2.4255942416223235e-32 3.6358801878889570e-32 0.0000000000000000e+00  -1.3526411500862997e-31 -2.0982203155386400e-31 0.0000000000000000e+00  3.5476558310094283e-31 5.5465077512186138e-31 0.0000000000000000e+00  1.8779611815344889e-31 3.6230190705908640e-31 0.0000000000000000e+00  -1.6030455914163196e-30 -2.9279808174782016e-30 0.0000000000000000e+00  -8.6277207935688890e-31 -1.3380547094337775e-30 0.0000000000000000e+00  -2.2715359210088982e-30 -3.5801220754338606e-30 0.0000000000000000e+00  5.4986751459578223e-30 9.7030136694332378e-30 0.0000000000000000e+00  -1.4400291305176618e-29 -2.1774241111452046e-29 0.0000000000000000e+00  4.6660390220263287e-29 8.0125383390083345e-29 0.0000000000000000e+00  2.8380431360334129e-29 5.2193696689115537e-29 0.0000000000000000e+00  -2.3128512383744248e-28 -4.4526561363884652e-28 0.0000000000000000e+00  -7.4167993465190559e-29 -1.5047625507411897e-28 0.0000000000000000e+00  -1.1925740784351570e-28 -2.3005867632675875e-28 0.0000000000000000e+00  2.1856537709460565e-28 4.4521401529610146e-28 0.0000000000000000e+00  6.6879515832478478e-28 1.4546269866300523e-27 0.0000000000000000e+00  -8.9435227454391033e-29 -1.2605149794002618e-28 0.0000000000000000e+00  1.2312094655140659e-28 3.7857704245940693e-28 0.0000000000000000e+00  -1.1406623927335131e-28 -2.5968263692302604e-28 0.0000000000000000e+00  -4.6031513938935298e-28 -1.3541245319748316e-27 0.0000000000000000e+00  -4.1623805709064989e-28 -1.3681860791829167e-27 0.0000000000000000e+00  -4.1361436891408461e-29 -1.9575589075529419e-28 0.0000000000000000e+00  4.5527488595995780e-28 1.6445681961329100e-27 0.0000000000000000e+00  2.3865985962066829e-28 1.0099690249277313e-27 0.0000000000000000e+00  -6.7393366212774193e-29 -1.9834866812150508e-28 0.0000000000000000e+00  7.1073973987564974e-29 4.1075177621986296e-28 0.0000000000000000e+00  3.8338970072092389e-28 1.1256387445691485e-27 0.0000000000000000e+00  4.7321145127856588e-28 1.8794585147680493e-27 0.0000000000000000e+00  -2.5754470619127038e-28 -1.0500149746469518e-27 0.0000000000000000e+00  9.4366730286162074e-28 6.0746567663825336e-27 0.0000000000000000e+00  2.5861606617885619e-29 -5.4096307678575730e-29 0.0000000000000000e+00  -4.2521950882552865e-28 -5.3139002277675238e-27 0.0000000000000000e+00  -4.1590878969506254e-29 -3.1571304550770904e-27 0.0000000000000000e+00  -1.5295190859305865e-28 -4.4832028547818104e-27 0.0000000000000000e+00  -4.3232329789055443e-28 -1.1018051873260475e-26 0.0000000000000000e+00  -2.5015991001257636e-28 -1.2625914534429362e-26 0.0000000000000000e+00  2.0410826234216674e-29 -2.1993561572251605e-27 0.0000000000000000e+00  1.8688381277296632e-28 -6.9775827006042669e-27 0.0000000000000000e+00  2.2992883656450337e-28 -2.6036700935095538e-27 0.0000000000000000e+00  4.6211826998686698e-28 -4.5634746147213897e-27 0.0000000000000000e+00  -2.6051581274754029e-28 1.9322754476321529e-27 0.0000000000000000e+00  7.7922772705401025e-28 -6.1899441506409643e-27 0.0000000000000000e+00  8.4855838110878214e-28 -5.6067336025589547e-27 0.0000000000000000e+00  -1.9647483226836927e-28 1.0598360173051142e-27 0.0000000000000000e+00  -1.7531203748209032e-27 8.1184436143424027e-27 0.0000000000000000e+00  -7.6511071654467313e-28 3.2152688021878645e-27 0.0000000000000000e+00  -3.9628939076162170e-28 1.9424379166033690e-27 0.0000000000000000e+00  -1.2385910231471110e-27 4.6278461275994075e-27 0.0000000000000000e+00  -7.3360540181118131e-28 2.4414713853233013e-27 0.0000000000000000e+00  8.6919178010502960e-28 -2.6904145846733531e-27 0.0000000000000000e+00  4.1873963969375186e-28 -1.2605842186640316e-27 0.0000000000000000e+00  8.8333316502436158e-29 -3.0309141163045258e-28 0.0000000000000000e+00  3.2655582346460981e-28 -9.7739959084280234e-28 0.0000000000000000e+00  3.0620722166129309e-28 -7.6554468341945558e-28 0.0000000000000000e+00  -2.5830188077469065e-28 6.2441104356335003e-28 0.0000000000000000e+00  -2.2354616418308486e-28 4.9081789837608971e-28 0.0000000000000000e+00  -1.5808913547516385e-28 3.3401519851276330e-28 0.0000000000000000e+00  1.7187649766336040e-29 -3.8345320453937111e-29 0.0000000000000000e+00  1.1506156737955875e-28 -2.3239205422103417e-28 0.0000000000000000e+00  1.6212217465209542e-28 -3.0191658804530434e-28 0.0000000000000000e+00  -4.8566643517477861e-30 1.5576541131855077e-29 0.0000000000000000e+00  -1.0997721451678370e-28 1.9347862061635254e-28 0.0000000000000000e+00  1.7958602368572027e-29 -3.2123277325298728e-29 0.0000000000000000e+00  6.0122656920542553e-30 -9.4637614144271912e-30 0.0000000000000000e+00  -1.4941853229900050e-29 2.5917220515960860e-29 0.0000000000000000e+00  -1.0133776192113638e-30 1.7655835787782670e-30 0.0000000000000000e+00  1.6356585566422133e-30 -2.7614338098870179e-30 0.0000000000000000e+00  -8.5320564908241452e-31 1.4164173574571050e-30 0.0000000000000000e+00  1.0619938225368833e-31 -1.7261154503515195e-31 0.0000000000000000e+00  -1.3042953256240181e-32 1.9950927422679702e-32 0.0000000000000000e+00  -3.1178022937423497e-34 7.2023181901998663e-34 0.0000000000000000e+00  6.9203307841824650e-33 -1.0492639093323172e-32 0.0000000000000000e+00  4.1801166405743382e-34 -5.2830941018263841e-34 0.0000000000000000e+00  -4.7231980377925442e-34 6.6839702677585436e-34 0.0000000000000000e+00  5.3025532319316526e-35 -8.0172240051343020e-35 0.0000000000000000e+00  -2.1728762491197413e-35 2.8994641481650267e-35 0.0000000000000000e+00  4.8782784170204745e-36 -6.2826821488018526e-36 0.0000000000000000e+00  -1.5222211797878354e-36 1.9328938159513061e-36 0.0000000000000000e+00  5.0418764934695024e-37 -6.0710042795040079e-37 0.0000000000000000e+00  -2.5111428224195954e-37 2.9917535341795583e-37 0.0000000000000000e+00  8.5022436615466751e-38 -1.0018492796400117e-37 0.0000000000000000e+00  -1.7812212695240397e-38 2.0274788562335717e-38 0.0000000000000000e+00  7.2484597432146063e-39 -8.0859743459871087e-39 0.0000000000000000e+00  -4.1585010077978051e-40 4.9165336173844653e-40 0.0000000000000000e+00  -3.6776319994379874e-40 3.7355403033744513e-40 0.0000000000000000e+00  -1.6212181302603988e-41 8.7804296706382046e-42 0.0000000000000000e+00  3.9495572476763822e-40 -4.0293235534666596e-40 0.0000000000000000e+00  -9.2282603897523771e-40 8.9640267711239777e-40 0.0000000000000000e+00  3.6832405864381021e-39 -3.4229725174511309e-39 0.0000000000000000e+00  -2.6885884668646495e-39 2.3387058492924832e-39 0.0000000000000000e+00  -1.5464236370931172e-38 1.3993684065259623e-38 0.0000000000000000e+00  6.3893153015141459e-38 -5.5587185516233306e-38 0.0000000000000000e+00  -9.1880955523334083e-38 7.7072954052784516e-38 0.0000000000000000e+00  -1.3709842343125494e-37 1.1548799816188638e-37 0.0000000000000000e+00  9.6627435437903101e-37 -7.8007231437660884e-37 0.0000000000000000e+00  -1.7571597826058996e-36 1.3793647710219160e-36 0.0000000000000000e+00  -1.2439173988358155e-36 9.4509558475154012e-37 0.0000000000000000e+00  1.3298193915062212e-35 -9.8756541036350670e-36 0.0000000000000000e+00  -2.6584573460041474e-35 1.9199892819014574e-35 0.0000000000000000e+00  -1.6628697368858400e-35 1.1302187638976725e-35 0.0000000000000000e+00  1.9299468054198876e-34 -1.3041054968029061e-34 0.0000000000000000e+00  -3.1902142752893787e-34 2.1258651109126670e-34 0.0000000000000000e+00  -4.0097183241272192e-34 2.4730703239886301e-34 0.0000000000000000e+00  2.6240358023510588e-33 -1.6038267326744661e-33 0.0000000000000000e+00  -2.6983620714014052e-33 1.6485835114632235e-33 0.0000000000000000e+00  -9.3000119078999341e-33 5.1737209347607037e-33 0.0000000000000000e+00  3.0178339671261111e-32 -1.6748656859813663e-32 0.0000000000000000e+00  1.3687611129869456e-33 4.1261123842975098e-34 0.0000000000000000e+00  -1.6129311770094684e-31 8.0426587943615233e-32 0.0000000000000000e+00  2.1968565772390888e-31 -1.1013159648249770e-31 0.0000000000000000e+00  5.2744384366718654e-31 -2.3076631574892664e-31 0.0000000000000000e+00  -1.6051224326585203e-30 7.1556145665555774e-31 0.0000000000000000e+00  -8.5617700210128918e-31 2.8398707923702471e-31 0.0000000000000000e+00  8.3982450885535570e-30 -3.3221785283057044e-30 0.0000000000000000e+00  -2.6708318903933413e-30 1.3863715360166693e-30 0.0000000000000000e+00  -3.6423003018000419e-29 1.2580537292290874e-29 0.0000000000000000e+00  3.0436009213923515e-29 -1.1828527196513390e-29 0.0000000000000000e+00  1.4589012346225621e-28 -4.3616547762751159e-29 0.0000000000000000e+00  -1.6439758087217720e-28 5.5332209138718832e-29 0.0000000000000000e+00  -5.9796703165451193e-28 1.5323778914783494e-28 0.0000000000000000e+00  6.2394463675070445e-28 -1.9733977354503530e-28 0.0000000000000000e+00  2.4597119699341572e-27 -5.4115195024863098e-28 0.0000000000000000e+00  -1.8188508855037745e-27 5.4502183195773092e-28 0.0000000000000000e+00  -9.3695135995167897e-27 1.7584830677661592e-27 0.0000000000000000e+00  2.1621237780074183e-27 -8.7739103787836050e-28 0.0000000000000000e+00  2.8815356816179572e-26 -4.7575466717314378e-27 0.0000000000000000e+00  1.4276506730782835e-26 -9.4405773145947072e-28 0.0000000000000000e+00  -8.1928139668304526e-26 1.1893998837911584e-26 0.0000000000000000e+00  -1.2411858056341919e-25 1.4100295964664797e-26 0.0000000000000000e+00  1.4480931844645987e-25 -1.1071450899510846e-26 0.0000000000000000e+00  8.3536423816093479e-25 -4.1076958517719292e-26 0.0000000000000000e+00  1.5266032881023498e-24 -3.6036633556732703e-26 0.0000000000000000e+00  1.8637319642699618e-24 -7.0390278841784947e-27 0.0000000000000000e+00  1.8236343870729444e-24 7.1842587005003409e-27 0.0000000000000000e+00  1.8491735099098192e-24 -4.7077069200850628e-27 0.0000000000000000e+00  1.9895527829513044e-24 -6.1379009631551495e-27 0.0000000000000000e+00  1.8505582878911750e-24 1.8841638963451720e-26 0.0000000000000000e+00  1.2098902718086573e-24 3.7886664640394664e-26 0.0000000000000000e+00  3.5086606269328978e-25 2.2819956138484567e-26 0.0000000000000000e+00  -1.7263545194888841e-25 -7.9275378044439891e-27 0.0000000000000000e+00  -2.1983766212039179e-25 -1.9711457356655415e-26 0.0000000000000000e+00  -3.9324534407114664e-26 -6.3515614641100710e-27 0.0000000000000000e+00  6.0342633381930586e-26 6.5954878713882114e-27 0.0000000000000000e+00  3.6915758914414389e-26 5.5815690063198715e-27 0.0000000000000000e+00  -5.2135559663284661e-27 -6.3364256593090915e-28 0.0000000000000000e+00  -1.0897271833812356e-26 -2.0577031913886977e-27 0.0000000000000000e+00  -8.0816644672759335e-28 -2.2505043556089399e-28 0.0000000000000000e+00  2.6860485906860458e-27 6.1212059685586739e-28 0.0000000000000000e+00  4.0702384339617554e-28 1.1558283476698547e-28 0.0000000000000000e+00  -6.3248627312176163e-28 -1.7143979956224764e-28 0.0000000000000000e+00  -9.2438043500555828e-29 -3.0853678422080507e-29 0.0000000000000000e+00  1.4698982363669508e-28 4.7145742034913338e-29 0.0000000000000000e+00  7.7602775997936533e-30 3.7459489030211179e-30 0.0000000000000000e+00  -3.3095072327922920e-29 -1.2239752899028176e-29 0.0000000000000000e+00  2.6029843645171307e-30 7.5349943387223551e-31 0.0000000000000000e+00  6.3580683718341195e-30 2.7159475128995868e-30 0.0000000000000000e+00  -1.8251653253642354e-30 -7.3109705249246494e-31 0.0000000000000000e+00  -9.4749170331982300e-31 -4.6098754521530155e-31 0.0000000000000000e+00  6.0133340415927100e-31 2.8037137776212712e-31 0.0000000000000000e+00  3.5614369460922432e-32 2.5964533791171517e-32 0.0000000000000000e+00  -1.3378336036876965e-31 -6.9238647604999833e-32 0.0000000000000000e+00  2.9930662312703000e-32 1.4306584351162919e-32 0.0000000000000000e+00  1.9317234074496749e-32 1.1211852158386974e-32 0.0000000000000000e+00  -1.2343445423339722e-32 -6.9093691016602642e-33 0.0000000000000000e+00  1.8261364304571295e-34 -3.3734830436089750e-35 0.0000000000000000e+00  2.2284640748390498e-33 1.3942660763828324e-33 0.0000000000000000e+00  -8.4729933045882841e-34 -5.1761908691904151e-34 0.0000000000000000e+00  -1.1760896947993359e-34 -8.7344038360484237e-35 0.0000000000000000e+00  2.0410322461150326e-34 1.3772969497340075e-34 0.0000000000000000e+00  -5.7639449188346941e-35 -3.8787909454316752e-35 0.0000000000000000e+00  -1.3340856247524016e-35 -9.9827320655959941e-36 0.0000000000000000e+00  1.5170323337040562e-35 1.1122948460667439e-35 0.0000000000000000e+00  -3.9555087878144567e-36 -2.9170498179999777e-36 0.0000000000000000e+00  -9.3779644408524748e-37 -7.4393935344915277e-37 0.0000000000000000e+00  1.0671416824408029e-36 8.4587234047838473e-37 0.0000000000000000e+00  -3.0825915379591550e-37 -2.4957395164421876e-37 0.0000000000000000e+00  -3.8606761569629800e-38 -3.2066786083568446e-38 0.0000000000000000e+00  6.7267543061086369e-38 5.7372191209054645e-38 0.0000000000000000e+00  -2.5532596475488142e-38 -2.2360790564353789e-38 0.0000000000000000e+00  8.6313469140231709e-40 8.4320639281925641e-40 0.0000000000000000e+00  3.6148100715592675e-39 3.2676853938235524e-39 0.0000000000000000e+00  -1.8789269586154359e-39 -1.7508869006829557e-39 0.0000000000000000e+00  4.0283322896490897e-40 3.8857732283183764e-40 0.0000000000000000e+00  1.9728691612577178e-40 1.8738012843716099e-40 0.0000000000000000e+00  3.6909230259310989e-40 4.0184117059678186e-40 0.0000000000000000e+00  -1.0929980911036179e-39 -1.1575080106080553e-39 0.0000000000000000e+00  2.1367969270174006e-39 2.3348271506582366e-39 0.0000000000000000e+00  -1.4441966559367479e-38 -1.5685435432242112e-38 0.0000000000000000e+00  1.0230881373431485e-37 1.1393793253957874e-37 0.0000000000000000e+00  -2.3083129627232544e-37 -2.6616486148941944e-37 0.0000000000000000e+00  2.6040812991112628e-37 3.1374183374834645e-37 0.0000000000000000e+00  -4.2334342469550045e-36 -5.1443918360840101e-36 0.0000000000000000e+00  1.3773968916596007e-35 1.6616579477016910e-35 0.0000000000000000e+00  -6.0967173474815863e-35 -7.4287353531374834e-35 0.0000000000000000e+00  1.3673568787618012e-34 1.7449422042000710e-34 0.0000000000000000e+00  -2.9583914813006969e-34 -3.9537456138620470e-34 0.0000000000000000e+00  1.4737502172927416e-33 1.9990321231314792e-33 0.0000000000000000e+00  -1.2016730600079199e-33 -1.6553055388984775e-33 0.0000000000000000e+00  6.1388419206575834e-33 8.0245348435888752e-33 0.0000000000000000e+00  4.3811155858750158e-32 6.9396842874435189e-32 0.0000000000000000e+00  -2.0904327108529559e-31 -3.2233865299512652e-31 0.0000000000000000e+00  -5.6251051689374768e-31 -9.4955754930538747e-31 0.0000000000000000e+00  1.0605046946705908e-30 1.8399681775440340e-30 0.0000000000000000e+00  -6.9588225789253296e-32 -1.2168805559636821e-31 0.0000000000000000e+00  -3.3141303076396013e-30 -5.6524520494359262e-30 0.0000000000000000e+00  9.7770233665134823e-30 1.5727870309572017e-29 0.0000000000000000e+00  1.4851079649118966e-29 2.7178448667972932e-29 0.0000000000000000e+00  -9.7754689206954370e-29 -1.7683639619823692e-28 0.0000000000000000e+00  3.1640269960604740e-29 5.9929974007084479e-29 0.0000000000000000e+00  9.6907013613742117e-29 2.0807707466874150e-28 0.0000000000000000e+00  4.2625996894349775e-29 7.4318903535811159e-29 0.0000000000000000e+00  3.5952813679130818e-28 7.0358443235160414e-28 0.0000000000000000e+00  1.5150452103500879e-28 3.4127511421795541e-28 0.0000000000000000e+00  -4.4842342963515878e-28 -9.1182261899351754e-28 0.0000000000000000e+00  -3.9032852567002127e-28 -1.0189057401503751e-27 0.0000000000000000e+00  4.2228078362753212e-28 9.8523679997437557e-28 0.0000000000000000e+00  7.7686480662650238e-28 1.9230737866993022e-27 0.0000000000000000e+00  3.9401227106966029e-28 1.1637811708455609e-27 0.0000000000000000e+00  4.9520774487212884e-29 4.0610208445739710e-28 0.0000000000000000e+00  -8.9848626039693359e-28 -2.6344750919737443e-27 0.0000000000000000e+00  -3.4529909365114779e-28 -9.4909924753754814e-28 0.0000000000000000e+00  -1.7434217049540221e-28 -4.7239428351482099e-28 0.0000000000000000e+00  -4.5080067845021287e-28 -1.7125233192570942e-27 0.0000000000000000e+00  -4.1051723172282694e-28 -1.6749899336678708e-27 0.0000000000000000e+00  -3.3599243914647729e-28 -1.9842176824025843e-27 0.0000000000000000e+00  9.6605425411731310e-29 -1.3759471806275711e-28 0.0000000000000000e+00  4.8627912061352135e-28 2.4666336281610488e-27 0.0000000000000000e+00  8.1856951337533575e-29 3.1994793201795172e-28 0.0000000000000000e+00  -3.1952739574860006e-28 -2.7147013426370530e-27 0.0000000000000000e+00  2.1299393549294789e-28 1.6414733034252200e-27 0.0000000000000000e+00  1.3251813529076192e-28 1.4946688386125766e-27 0.0000000000000000e+00  -8.4746688036357024e-29 -1.4200824097394159e-27 0.0000000000000000e+00  -1.0500645709650945e-29 -6.3086994044795197e-29 0.0000000000000000e+00  -4.1874633734004862e-29 -1.4754142254610458e-27 0.0000000000000000e+00  -3.2444791084377693e-29 2.8042572201538861e-27 0.0000000000000000e+00  -1.2836821856072847e-28 2.6309396129480252e-27 0.0000000000000000e+00  1.9973242602610673e-29 -1.7213918412911682e-27 0.0000000000000000e+00  -6.2829615300702839e-29 -8.6948369134943904e-29 0.0000000000000000e+00  2.2585526903144660e-28 -2.4596064173088214e-27 0.0000000000000000e+00  -3.8078028288802985e-28 2.0130460805917246e-27 0.0000000000000000e+00  -2.4812671321778698e-28 9.7369240391080066e-28 0.0000000000000000e+00  -2.5875814884284565e-29 -6.4031609632754952e-28 0.0000000000000000e+00  -9.2258886693181068e-29 -1.1465832475067139e-28 0.0000000000000000e+00  6.1496787935660928e-28 -2.9138944078738395e-27 0.0000000000000000e+00  7.3147254609363488e-28 -3.3859729020151606e-27 0.0000000000000000e+00  1.2861096874287578e-27 -4.7611463169739091e-27 0.0000000000000000e+00  4.2998268065733474e-28 -1.3272170788786932e-27 0.0000000000000000e+00  -3.0541574553834075e-28 1.1833183727375390e-27 0.0000000000000000e+00  -8.5109515456616380e-28 2.5012976059712188e-27 0.0000000000000000e+00  -1.0194199112909615e-27 2.7449415043696216e-27 0.0000000000000000e+00  -3.0643919551130007e-28 7.1846320219349653e-28 0.0000000000000000e+00  1.5689525956970168e-28 -4.2509802699467187e-28 0.0000000000000000e+00  2.2843814217737745e-28 -5.4153460981868949e-28 0.0000000000000000e+00  9.3255532720284841e-28 -1.9610149461377812e-27 0.0000000000000000e+00  3.8184986682332402e-28 -7.6114660524704705e-28 0.0000000000000000e+00  -3.1416319428762830e-28 6.1004745441366594e-28 0.0000000000000000e+00  -1.0169566153250091e-29 3.3005188210121637e-29 0.0000000000000000e+00  3.3356115380370931e-29 -6.8535485622464354e-29 0.0000000000000000e+00  8.4749468584764531e-29 -1.5610188629640374e-28 0.0000000000000000e+00  -1.6914681990398110e-29 3.1569283888663278e-29 0.0000000000000000e+00  -2.4772099862738743e-29 4.2350440170980638e-29 0.0000000000000000e+00  2.5456