<?xml version="1.0"?>
<VTKFile type="UnstructuredGrid"  version="0.1"  >
<UnstructuredGrid>
<Piece  NumberOfPoints="11902" NumberOfCells="23402">
<Points>
<DataArray  type="Float64"  NumberOfComponents="3"  format="ascii">-5 -5 0  5 -5 0  5 5 0  -5 5 0  1.093140182132612 0.000620472565442025 0  -4.9 -5 0  -4.8 -5 0  -4.7 -5 0  -4.6 -5 0  -4.5 -5 0  -4.4 -5 0  -4.3 -5 0  -4.2 -5 0  -4.1 -5 0  -4 -5 0  -3.9 -5 0  -3.8 -5 0  -3.7 -5 0  -3.6 -5 0  -3.5 -5 0  -3.4 -5 0  -3.3 -5 0  -3.2 -5 0  -3.1 -5 0  -3 -5 0  -2.9 -5 0  -2.8 -5 0  -2.7 -5 0  -2.6 -5 0  -2.5 -5 0  -2.4 -5 0  -2.3 -5 0  -2.2 -5 0  -2.1 -5 0  -2 -5 0  -1.9 -5 0  -1.8 -5 0  -1.7 -5 0  -1.6 -5 0  -1.5 -5 0  -1.4 -5 0  -1.3 -5 0  -1.2 -5 0  -1.1 -5 0  -1 -5 0  -0.9000000000000004 -5 0  -0.7999999999999998 -5 0  -0.7000000000000002 -5 0  -0.5999999999999996 -5 0  -0.5 -5 0  -0.4000000000000004 -5 0  -0.2999999999999998 -5 0  -0.2000000000000002 -5 0  -0.09999999999999964 -5 0  0 -5 0  0.09999999999999964 -5 0  0.2000000000000002 -5 0  0.2999999999999998 -5 0  0.4000000000000004 -5 0  0.5 -5 0  0.5999999999999996 -5 0  0.7000000000000002 -5 0  0.7999999999999998 -5 0  0.9000000000000004 -5 0  1 -5 0  1.1 -5 0  1.2 -5 0  1.3 -5 0  1.4 -5 0  1.5 -5 0  1.6 -5 0  1.7 -5 0  1.8 -5 0  1.9 -5 0  2 -5 0  2.1 -5 0  2.2 -5 0  2.3 -5 0  2.4 -5 0  2.5 -5 0  2.6 -5 0  2.7 -5 0  2.8 -5 0  2.9 -5 0  3 -5 0  3.1 -5 0  3.199999999999999 -5 0  3.300000000000001 -5 0  3.4 -5 0  3.5 -5 0  3.6 -5 0  3.699999999999999 -5 0  3.800000000000001 -5 0  3.9 -5 0  4 -5 0  4.1 -5 0  4.199999999999999 -5 0  4.300000000000001 -5 0  4.4 -5 0  4.5 -5 0  4.6 -5 0  4.699999999999999 -5 0  4.800000000000001 -5 0  4.9 -5 0  5 -4.9 0  5 -4.8 0  5 -4.7 0  5 -4.6 0  5 -4.5 0  5 -4.4 0  5 -4.3 0  5 -4.2 0  5 -4.1 0  5 -4 0  5 -3.9 0  5 -3.8 0  5 -3.7 0  5 -3.6 0  5 -3.5 0  5 -3.4 0  5 -3.3 0  5 -3.2 0  5 -3.1 0  5 -3 0  5 -2.9 0  5 -2.8 0  5 -2.7 0  5 -2.6 0  5 -2.5 0  5 -2.4 0  5 -2.3 0  5 -2.2 0  5 -2.1 0  5 -2 0  5 -1.9 0  5 -1.8 0  5 -1.7 0  5 -1.6 0  5 -1.5 0  5 -1.4 0  5 -1.3 0  5 -1.2 0  5 -1.1 0  5 -1 0  5 -0.9000000000000004 0  5 -0.7999999999999998 0  5 -0.7000000000000002 0  5 -0.5999999999999996 0  5 -0.5 0  5 -0.4000000000000004 0  5 -0.2999999999999998 0  5 -0.2000000000000002 0  5 -0.09999999999999964 0  5 0 0  5 0.09999999999999964 0  5 0.2000000000000002 0  5 0.2999999999999998 0  5 0.4000000000000004 0  5 0.5 0  5 0.5999999999999996 0  5 0.7000000000000002 0  5 0.7999999999999998 0  5 0.9000000000000004 0  5 1 0  5 1.1 0  5 1.2 0  5 1.3 0  5 1.4 0  5 1.5 0  5 1.6 0  5 1.7 0  5 1.8 0  5 1.9 0  5 2 0  5 2.1 0  5 2.2 0  5 2.3 0  5 2.4 0  5 2.5 0  5 2.6 0  5 2.7 0  5 2.8 0  5 2.9 0  5 3 0  5 3.1 0  5 3.199999999999999 0  5 3.300000000000001 0  5 3.4 0  5 3.5 0  5 3.6 0  5 3.699999999999999 0  5 3.800000000000001 0  5 3.9 0  5 4 0  5 4.1 0  5 4.199999999999999 0  5 4.300000000000001 0  5 4.4 0  5 4.5 0  5 4.6 0  5 4.699999999999999 0  5 4.800000000000001 0  5 4.9 0  4.9 5 0  4.8 5 0  4.7 5 0  4.6 5 0  4.5 5 0  4.4 5 0  4.3 5 0  4.2 5 0  4.1 5 0  4 5 0  3.9 5 0  3.8 5 0  3.7 5 0  3.6 5 0  3.5 5 0  3.4 5 0  3.3 5 0  3.2 5 0  3.1 5 0  3 5 0  2.9 5 0  2.8 5 0  2.7 5 0  2.6 5 0  2.5 5 0  2.4 5 0  2.3 5 0  2.2 5 0  2.1 5 0  2 5 0  1.9 5 0  1.8 5 0  1.7 5 0  1.6 5 0  1.5 5 0  1.4 5 0  1.3 5 0  1.2 5 0  1.1 5 0  1 5 0  0.9000000000000004 5 0  0.7999999999999998 5 0  0.7000000000000002 5 0  0.5999999999999996 5 0  0.5 5 0  0.4000000000000004 5 0  0.2999999999999998 5 0  0.2000000000000002 5 0  0.09999999999999964 5 0  0 5 0  -0.09999999999999964 5 0  -0.2000000000000002 5 0  -0.2999999999999998 5 0  -0.4000000000000004 5 0  -0.5 5 0  -0.5999999999999996 5 0  -0.7000000000000002 5 0  -0.7999999999999998 5 0  -0.9000000000000004 5 0  -1 5 0  -1.1 5 0  -1.2 5 0  -1.3 5 0  -1.4 5 0  -1.5 5 0  -1.6 5 0  -1.7 5 0  -1.8 5 0  -1.9 5 0  -2 5 0  -2.1 5 0  -2.2 5 0  -2.3 5 0  -2.4 5 0  -2.5 5 0  -2.6 5 0  -2.7 5 0  -2.8 5 0  -2.9 5 0  -3 5 0  -3.1 5 0  -3.199999999999999 5 0  -3.300000000000001 5 0  -3.4 5 0  -3.5 5 0  -3.6 5 0  -3.699999999999999 5 0  -3.800000000000001 5 0  -3.9 5 0  -4 5 0  -4.1 5 0  -4.199999999999999 5 0  -4.300000000000001 5 0  -4.4 5 0  -4.5 5 0  -4.6 5 0  -4.699999999999999 5 0  -4.800000000000001 5 0  -4.9 5 0  -5 4.9 0  -5 4.8 0  -5 4.7 0  -5 4.6 0  -5 4.5 0  -5 4.4 0  -5 4.3 0  -5 4.2 0  -5 4.1 0  -5 4 0  -5 3.9 0  -5 3.8 0  -5 3.7 0  -5 3.6 0  -5 3.5 0  -5 3.4 0  -5 3.3 0  -5 3.2 0  -5 3.1 0  -5 3 0  -5 2.9 0  -5 2.8 0  -5 2.7 0  -5 2.6 0  -5 2.5 0  -5 2.4 0  -5 2.3 0  -5 2.2 0  -5 2.1 0  -5 2 0  -5 1.9 0  -5 1.8 0  -5 1.7 0  -5 1.6 0  -5 1.5 0  -5 1.4 0  -5 1.3 0  -5 1.2 0  -5 1.1 0  -5 1 0  -5 0.9000000000000004 0  -5 0.7999999999999998 0  -5 0.7000000000000002 0  -5 0.5999999999999996 0  -5 0.5 0  -5 0.4000000000000004 0  -5 0.2999999999999998 0  -5 0.2000000000000002 0  -5 0.09999999999999964 0  -5 0 0  -5 -0.09999999999999964 0  -5 -0.2000000000000002 0  -5 -0.2999999999999998 0  -5 -0.4000000000000004 0  -5 -0.5 0  -5 -0.5999999999999996 0  -5 -0.7000000000000002 0  -5 -0.7999999999999998 0  -5 -0.9000000000000004 0  -5 -1 0  -5 -1.1 0  -5 -1.2 0  -5 -1.3 0  -5 -1.4 0  -5 -1.5 0  -5 -1.6 0  -5 -1.7 0  -5 -1.8 0  -5 -1.9 0  -5 -2 0  -5 -2.1 0  -5 -2.2 0  -5 -2.3 0  -5 -2.4 0  -5 -2.5 0  -5 -2.6 0  -5 -2.7 0  -5 -2.8 0  -5 -2.9 0  -5 -3 0  -5 -3.1 0  -5 -3.199999999999999 0  -5 -3.300000000000001 0  -5 -3.4 0  -5 -3.5 0  -5 -3.6 0  -5 -3.699999999999999 0  -5 -3.800000000000001 0  -5 -3.9 0  -5 -4 0  -5 -4.1 0  -5 -4.199999999999999 0  -5 -4.300000000000001 0  -5 -4.4 0  -5 -4.5 0  -5 -4.6 0  -5 -4.699999999999999 0  -5 -4.800000000000001 0  -5 -4.9 0  1.087825380478154 0.1004054576330428 0  1.071395921688348 0.1997185089304074 0  1.04372823240302 0.2973755956781742 0  1.006811768074259 0.3910308782714407 0  0.9596084240780914 0.4819115002273163 0  0.9032617682908164 0.5676347392152337 0  0.8374222444923616 0.6474586883091599 0  0.7627119168656573 0.720656068006661 0  0.6811250677067404 0.7870200341918261 0  0.5927661937644312 0.8458353166575264 0  0.4981168243826912 0.8958441706701716 0  0.398456101175176 0.9370967877919419 0  0.2958463479751686 0.9694191043437371 0  0.1895603312058452 0.9914892167947708 0  0.08211729368714531 1.004205726130147 0  -0.0264911245528154 1.006769369993089 0  -0.1348451150883061 0.9989067662229241 0  -0.2420025257695959 0.9818354940781251 0  -0.3467389186965996 0.9548933363558167 0  -0.4478702444211176 0.9181422534146422 0  -0.544387031118887 0.872696626297792 0  -0.6357152983747613 0.8181999178289167 0  -0.72073791483031 0.7557696320647047 0  -0.7986934678523684 0.6859674142895442 0  -0.8689231431297313 0.6085857554777704 0  -0.9301640776029922 0.5254480812977292 0  -0.9827244469727419 0.4375076206375165 0  -1.02503324014342 0.3447602297019443 0  -1.056962132105163 0.2489829662669817 0  -1.078651670945945 0.1507688967124281 0  -1.089663544907923 0.05070039733927922 0  -1.089686729223368 -0.04993001617948445 0  -1.078699039944221 -0.1498754851012139 0  -1.05800295106463 -0.2480584485301261 0  -1.025003148581732 -0.3443006157804884 0  -0.9829226460012634 -0.4365984095294241 0  -0.9305649071922252 -0.5247072680704844 0  -0.8694120883018654 -0.6076118587320706 0  -0.7991482820056087 -0.684474113438998 0  -0.7208241462799295 -0.7540967564917183 0  -0.6353725827762869 -0.8160472825987061 0  -0.5446705345464891 -0.8708484458651525 0  -0.4469660351677713 -0.9163628509615738 0  -0.3457578077147648 -0.9534832857735926 0  -0.2408379038845438 -0.9806977700799941 0  -0.1339501938705887 -0.9981054327946937 0  -0.02588657609538202 -1.006415797040616 0  0.08238755921802522 -1.003495767909337 0  0.1904476918574938 -0.9905288274709073 0  0.2962372012000162 -0.9683974372142146 0  0.3998810829032501 -0.9361552733058964 0  0.4986354493487011 -0.8950210992457867 0  0.5931167225837121 -0.8451128767934584 0  0.6813446519983998 -0.7872933493863031 0  0.7628902215730244 -0.7209097371196398 0  0.8371538366460227 -0.6470849081520403 0  0.9027156066216933 -0.5670085376657087 0  0.9597919122717373 -0.4815181238075942 0  1.007694210880388 -0.3910896347116525 0  1.044504817087972 -0.2969610011540816 0  1.071458388609666 -0.1993256307826187 0  1.087861581660852 -0.1002123602468337 0  -2.449328982788058 4.919532194277457 0  -2.449271361341101 -4.912038765357376 0  4.911999378354126 2.449005494016249 0  4.919979807186253 -2.450366339028389 0  2.447137696358384 -4.897540311560692 0  2.44153963142524 4.901243930787001 0  -4.912013343231179 -2.449019683670985 0  -4.912014574243998 2.449023383345873 0  -1.749308402698477 4.913043362165798 0  -1.745060574069535 -4.916403036433798 0  4.922591274130871 1.745074460110162 0  4.911402319817143 -1.748982628679001 0  -4.911671362252306 -1.748699698404888 0  -4.912477883812763 1.748432556000781 0  1.746630271548798 4.907051412857314 0  1.74814446195333 -4.89546277102721 0  -1.149457185956107 4.911253958630755 0  -1.130251101308197 -4.918960282476124 0  -4.911947776289695 -1.148827086542223 0  -4.911775289406186 1.148626156343701 0  1.144411459562565 -4.915248544212383 0  1.149459560068788 4.91124789628354 0  4.912110980293352 1.147109557444842 0  4.922604848914275 -1.152786998116011 0  -0.5469895324435204 -4.912652880764383 0  -0.5467407409231094 4.921091326721537 0  -4.911129587421827 -0.5492083373309801 0  -4.911155365090043 0.5477604163076458 0  4.910502746106769 -0.5495362916951099 0  4.921753250631706 0.5462253062911631 0  0.5428021323046571 -4.899921087126121 0  0.5514747061610443 4.918009073624333 0  -4.912933023100716 -3.049187490793528 0  4.919434905754545 3.047146279095541 0  4.912452678309216 -3.049177807286568 0  -4.913775967015487 3.046271893092487 0  3.055972943674248 -4.918408789186176 0  -3.049353948325237 -4.91241499762455 0  3.052906063671225 4.914474443675614 0  -3.048795441250496 4.913296370352962 0  -4.91040584253167 -0.04995764963880823 0  0.04513958384688148 -4.914623006641466 0  0.04958955986605901 4.921446075922567 0  4.917235139617753 -0.05133658313651262 0  3.546151918666926 -4.919745277090408 0  -3.549479179
[...]
<PointData  Vectors="f_944"> 
<DataArray  type="Float64"  Name="f_944"  NumberOfComponents="3" format="ascii">-1.6349927285353665e-40 -1.6763979508035365e-40 0.0000000000000000e+00  2.1028326470615153e-40 -2.1034595503262066e-40 0.0000000000000000e+00  -2.4880337841039675e-40 -2.5271092138538389e-40 0.0000000000000000e+00  -3.1397789015970663e-40 3.3047398989021622e-40 0.0000000000000000e+00  1.3429037844981085e+01 -6.2517910416635536e-01 0.0000000000000000e+00  3.6380051748840208e-40 3.7267752128959022e-40 0.0000000000000000e+00  8.2009437942772767e-40 9.2025350381527064e-40 0.0000000000000000e+00  -1.8192276756675351e-39 -2.1523851006120548e-39 0.0000000000000000e+00  1.8800552048610049e-38 2.1063665744772367e-38 0.0000000000000000e+00  -6.0547196208136139e-38 -6.5727323655752605e-38 0.0000000000000000e+00  2.3456875166209789e-37 2.4970872549215773e-37 0.0000000000000000e+00  -8.5569199540602201e-37 -9.2700637501756746e-37 0.0000000000000000e+00  5.0249325858642931e-36 6.0526622503797146e-36 0.0000000000000000e+00  -3.0496331639084364e-35 -3.9185018960618394e-35 0.0000000000000000e+00  1.2273286740405640e-34 1.6039881041196274e-34 0.0000000000000000e+00  -2.5845820320951909e-34 -3.5335744900113572e-34 0.0000000000000000e+00  5.0072056721166401e-34 7.1643056245869136e-34 0.0000000000000000e+00  1.8036960544901540e-33 2.6357691376772613e-33 0.0000000000000000e+00  -8.2608272987555403e-33 -1.2096258286338419e-32 0.0000000000000000e+00  2.4286885325338073e-32 3.6104483375910784e-32 0.0000000000000000e+00  -1.3579692094319326e-31 -2.0825118260094195e-31 0.0000000000000000e+00  3.5625498259655556e-31 5.5050697406682523e-31 0.0000000000000000e+00  1.8811546922989232e-31 3.5227764966960544e-31 0.0000000000000000e+00  -1.6086234562801969e-30 -2.8647735393506902e-30 0.0000000000000000e+00  -8.7073862550255290e-31 -1.3602369203291634e-30 0.0000000000000000e+00  -2.3147959722986989e-30 -3.6738812290252891e-30 0.0000000000000000e+00  5.5253525586808900e-30 9.7119642504435403e-30 0.0000000000000000e+00  -1.4091768756028122e-29 -2.2159573242931525e-29 0.0000000000000000e+00  4.6379764184497267e-29 8.0831872097771736e-29 0.0000000000000000e+00  2.7917909977343596e-29 5.2066134530181351e-29 0.0000000000000000e+00  -2.2952472157107088e-28 -4.4411359663817199e-28 0.0000000000000000e+00  -7.5110232691311701e-29 -1.5414273051591719e-28 0.0000000000000000e+00  -1.2402534601798089e-28 -2.4877112344343262e-28 0.0000000000000000e+00  2.2100099355152920e-28 4.5735773171870825e-28 0.0000000000000000e+00  6.7170356367612566e-28 1.4857140383922382e-27 0.0000000000000000e+00  -8.3210145958970984e-29 -1.2303529357928098e-28 0.0000000000000000e+00  1.3135956793365951e-28 3.9409173708141315e-28 0.0000000000000000e+00  -1.1459017061516824e-28 -2.6616014121667058e-28 0.0000000000000000e+00  -4.8041459752105854e-28 -1.4058864694808879e-27 0.0000000000000000e+00  -4.3403757844186367e-28 -1.4158090543437842e-27 0.0000000000000000e+00  -3.6181302698855433e-29 -1.8933175264267562e-28 0.0000000000000000e+00  4.7226742825446841e-28 1.7006642909027874e-27 0.0000000000000000e+00  2.5093478016075507e-28 1.0411311524644469e-27 0.0000000000000000e+00  -6.1799024803755944e-29 -1.9735794156205848e-28 0.0000000000000000e+00  7.8281359501538600e-29 4.2452194645737008e-28 0.0000000000000000e+00  3.4905650675532397e-28 1.1342966595764852e-27 0.0000000000000000e+00  4.4586116285427879e-28 1.9011854534191691e-27 0.0000000000000000e+00  -2.3810016272350741e-28 -1.0706477298527359e-27 0.0000000000000000e+00  9.0865818662191904e-28 6.1398783100674904e-27 0.0000000000000000e+00  8.9407431880900628e-30 -4.9314168453352311e-29 0.0000000000000000e+00  -4.4227690276646699e-28 -5.3548423658207903e-27 0.0000000000000000e+00  -7.6572226118749664e-29 -3.1707539616352749e-27 0.0000000000000000e+00  -1.6783428823601540e-28 -4.4984381459227985e-27 0.0000000000000000e+00  -4.0634025643712628e-28 -1.1095815495395372e-26 0.0000000000000000e+00  -2.2200849551828538e-28 -1.2715749888426470e-26 0.0000000000000000e+00  1.7818731469180772e-29 -2.2141313648312266e-27 0.0000000000000000e+00  1.8214096119046287e-28 -7.0053816895980080e-27 0.0000000000000000e+00  2.2176843199495954e-28 -2.5932647028503157e-27 0.0000000000000000e+00  4.5200752625117036e-28 -4.5695026578714516e-27 0.0000000000000000e+00  -2.5483496893309299e-28 1.9621849182199446e-27 0.0000000000000000e+00  7.7678594685347220e-28 -6.1824119405488526e-27 0.0000000000000000e+00  8.5285831856301350e-28 -5.6013294762291685e-27 0.0000000000000000e+00  -1.8956359349027567e-28 1.0782096600125777e-27 0.0000000000000000e+00  -1.7239625912078148e-27 8.1570408832944395e-27 0.0000000000000000e+00  -7.5682955277943778e-28 3.2334897243309376e-27 0.0000000000000000e+00  -4.0345737328293267e-28 1.9383381080419177e-27 0.0000000000000000e+00  -1.2324403634914182e-27 4.6572429722484817e-27 0.0000000000000000e+00  -7.2953747186987337e-28 2.4577644668793342e-27 0.0000000000000000e+00  8.6026547641102281e-28 -2.7245674113763520e-27 0.0000000000000000e+00  4.2242488253118938e-28 -1.2796075985406636e-27 0.0000000000000000e+00  8.8035532324744203e-29 -2.9570528527305601e-28 0.0000000000000000e+00  3.3698114176107708e-28 -9.8899222368202594e-28 0.0000000000000000e+00  3.0735026384062217e-28 -7.7334283387681135e-28 0.0000000000000000e+00  -2.6072361908316980e-28 6.3609765756312525e-28 0.0000000000000000e+00  -2.1761545030624699e-28 4.8527224608598496e-28 0.0000000000000000e+00  -1.5537992736972091e-28 3.3217961597338586e-28 0.0000000000000000e+00  1.8659049892136906e-29 -4.2906635986123012e-29 0.0000000000000000e+00  1.1209618460738947e-28 -2.2846401763788695e-28 0.0000000000000000e+00  1.5840502699141633e-28 -2.9827209514979334e-28 0.0000000000000000e+00  -5.0716718087840489e-30 1.5385177423228801e-29 0.0000000000000000e+00  -1.0823804785426004e-28 1.9230206239365410e-28 0.0000000000000000e+00  1.7680110829433846e-29 -3.1869959658269877e-29 0.0000000000000000e+00  5.9193684933075459e-30 -9.4496779528860240e-30 0.0000000000000000e+00  -1.4938727688930704e-29 2.5848321070244675e-29 0.0000000000000000e+00  -1.0469422387691647e-30 1.7715461053362026e-30 0.0000000000000000e+00  1.6512173349069005e-30 -2.7572594720970310e-30 0.0000000000000000e+00  -8.5922840649089168e-31 1.4102760852695913e-30 0.0000000000000000e+00  1.0711859852864887e-31 -1.7253420423298315e-31 0.0000000000000000e+00  -1.3063849501405677e-32 1.9874480107179430e-32 0.0000000000000000e+00  -3.8548240924700988e-34 7.7344070012572912e-34 0.0000000000000000e+00  6.9542471259754691e-33 -1.0348305489435124e-32 0.0000000000000000e+00  4.0590084858227264e-34 -5.0647201755482668e-34 0.0000000000000000e+00  -4.6769286459015317e-34 6.5178906386530375e-34 0.0000000000000000e+00  5.2339470028463425e-35 -7.7482494981957235e-35 0.0000000000000000e+00  -2.1102255903540748e-35 2.7880836865430672e-35 0.0000000000000000e+00  4.8153911746667549e-36 -6.1310875795655520e-36 0.0000000000000000e+00  -1.5549142885455452e-36 1.9407959104211137e-36 0.0000000000000000e+00  5.1019490770262563e-37 -6.0766479544165412e-37 0.0000000000000000e+00  -2.5431237466210769e-37 2.9918469313150615e-37 0.0000000000000000e+00  8.6005786951204812e-38 -1.0003578929695084e-37 0.0000000000000000e+00  -1.7853387778158604e-38 2.0135831657192701e-38 0.0000000000000000e+00  7.2528968147583356e-39 -8.0107614683692932e-39 0.0000000000000000e+00  -4.2717757327401003e-40 4.9428740849304367e-40 0.0000000000000000e+00  -3.5889476587892604e-40 3.6428812657162548e-40 0.0000000000000000e+00  -1.4566160895060740e-41 7.6986779119967049e-42 0.0000000000000000e+00  4.0193117573633430e-40 -4.0386855906881944e-40 0.0000000000000000e+00  -9.3489084714919835e-40 8.9719438126262565e-40 0.0000000000000000e+00  3.6603378102324698e-39 -3.3841083257412529e-39 0.0000000000000000e+00  -2.5555133514410172e-39 2.2390838526569958e-39 0.0000000000000000e+00  -1.5737154314694779e-38 1.4082103596634378e-38 0.0000000000000000e+00  6.3949020703732501e-38 -5.5326344755337829e-38 0.0000000000000000e+00  -9.0442044847720664e-38 7.5839070161467340e-38 0.0000000000000000e+00  -1.4168925161639943e-37 1.1772547691114421e-37 0.0000000000000000e+00  9.7159634811161271e-37 -7.8036586505559694e-37 0.0000000000000000e+00  -1.7454729390435587e-36 1.3684602272219296e-36 0.0000000000000000e+00  -1.3032172406469150e-36 9.7601761940510272e-37 0.0000000000000000e+00  1.3381700407798718e-35 -9.9016360514693773e-36 0.0000000000000000e+00  -2.6488385561979693e-35 1.9120136694889490e-35 0.0000000000000000e+00  -1.7290838426542340e-35 1.1651812537829924e-35 0.0000000000000000e+00  1.9394034336440420e-34 -1.3087663228416513e-34 0.0000000000000000e+00  -3.1766940583475306e-34 2.1181758974828786e-34 0.0000000000000000e+00  -4.0802565817313398e-34 2.5152201766031806e-34 0.0000000000000000e+00  2.6302654339601585e-33 -1.6097263518719301e-33 0.0000000000000000e+00  -2.6737922118352115e-33 1.6363355691320144e-33 0.0000000000000000e+00  -9.3714115963135884e-33 5.2357728586527320e-33 0.0000000000000000e+00  3.0161800859097534e-32 -1.6795239044934698e-32 0.0000000000000000e+00  1.7446917703341125e-33 1.2607644719473784e-34 0.0000000000000000e+00  -1.6179155098533422e-31 8.1274875044360125e-32 0.0000000000000000e+00  2.1853150526063709e-31 -1.0989821911444783e-31 0.0000000000000000e+00  5.3158672541475248e-31 -2.3621811134864498e-31 0.0000000000000000e+00  -1.6062450960540933e-30 7.2189919487315933e-31 0.0000000000000000e+00  -8.7460970808634044e-31 3.0612903436486534e-31 0.0000000000000000e+00  8.4382682040678789e-30 -3.3843909979083895e-30 0.0000000000000000e+00  -2.6377055948641549e-30 1.3298763404545459e-30 0.0000000000000000e+00  -3.6722146416100965e-29 1.2959034650016335e-29 0.0000000000000000e+00  3.0628144551596230e-29 -1.1788218223797697e-29 0.0000000000000000e+00  1.4754517182240349e-28 -4.5491738935828180e-29 0.0000000000000000e+00  -1.6668379491765306e-28 5.5706797913918826e-29 0.0000000000000000e+00  -6.0655527324468262e-28 1.6170524167342473e-28 0.0000000000000000e+00  6.3718273377116329e-28 -1.9787960225187218e-28 0.0000000000000000e+00  2.5006276665404955e-27 -5.7537619597070991e-28 0.0000000000000000e+00  -1.8740626703339966e-27 5.3644211303812034e-28 0.0000000000000000e+00  -9.5568654695634338e-27 1.8622747529926865e-27 0.0000000000000000e+00  2.3404319842682373e-27 -7.8803424138520758e-28 0.0000000000000000e+00  2.9597933912296478e-26 -4.9483629809581812e-27 0.0000000000000000e+00  1.4479507068367297e-26 -1.2798553673729478e-27 0.0000000000000000e+00  -8.4244294196407414e-26 1.2043004693678350e-26 0.0000000000000000e+00  -1.2764131025094131e-25 1.4608377814520510e-26 0.0000000000000000e+00  1.4613704030356014e-25 -1.2225583158920289e-26 0.0000000000000000e+00  8.4787139486770928e-25 -4.7347507211016345e-26 0.0000000000000000e+00  1.5488926422080879e-24 -4.7975931187951975e-26 0.0000000000000000e+00  1.8900855614076058e-24 -2.0728750077995259e-26 0.0000000000000000e+00  1.8486544116831224e-24 -1.1940915615708994e-27 0.0000000000000000e+00  1.8717184831604353e-24 -3.4124837266234408e-27 0.0000000000000000e+00  2.0085818403392639e-24 3.4491968559202835e-27 0.0000000000000000e+00  1.8650397177948928e-24 3.0080458337587009e-26 0.0000000000000000e+00  1.2200922203305709e-24 4.4689944449376335e-26 0.0000000000000000e+00  3.5746068354130095e-25 2.3818889765005758e-26 0.0000000000000000e+00  -1.6899936840844984e-25 -9.5813250074196352e-27 0.0000000000000000e+00  -2.1845950312414984e-25 -2.0777212561982349e-26 0.0000000000000000e+00  -3.9008904492185167e-26 -6.0146209640973706e-27 0.0000000000000000e+00  6.0420994650377741e-26 7.2897935674385998e-27 0.0000000000000000e+00  3.6951029939696528e-26 5.8223255830184088e-27 0.0000000000000000e+00  -5.1977973135848387e-27 -7.2425243250177827e-28 0.0000000000000000e+00  -1.0863113839575995e-26 -2.1318357327715749e-27 0.0000000000000000e+00  -7.7075336596528923e-28 -2.1271746691618261e-28 0.0000000000000000e+00  2.6930111521548964e-27 6.3220557523236552e-28 0.0000000000000000e+00  3.9670936580881089e-28 1.1306494913834953e-28 0.0000000000000000e+00  -6.3623883109851623e-28 -1.7621555941998284e-28 0.0000000000000000e+00  -9.0053345571641841e-29 -2.9954465636510850e-29 0.0000000000000000e+00  1.4782604542736458e-28 4.8082574303479489e-29 0.0000000000000000e+00  7.1633251721009039e-30 3.3809421734610333e-30 0.0000000000000000e+00  -3.3193533776675260e-29 -1.2373977063917615e-29 0.0000000000000000e+00  2.7293805467222720e-30 8.5673398637892327e-31 0.0000000000000000e+00  6.3529263575070856e-30 2.7176980690594658e-30 0.0000000000000000e+00  -1.8462192238186442e-30 -7.5369616083350794e-31 0.0000000000000000e+00  -9.4216122031179801e-31 -4.5595840245450194e-31 0.0000000000000000e+00  6.0341188673956867e-31 2.8340573586893300e-31 0.0000000000000000e+00  3.4263017394811391e-32 2.4159482677556104e-32 0.0000000000000000e+00  -1.3367814178797024e-31 -6.9321038496653230e-32 0.0000000000000000e+00  3.0073288425009701e-32 1.4652058887615058e-32 0.0000000000000000e+00  1.9247479081842565e-32 1.1119081288414555e-32 0.0000000000000000e+00  -1.2330530040430607e-32 -6.9334212060181269e-33 0.0000000000000000e+00  1.8689448351066005e-34 -1.3127325880989305e-35 0.0000000000000000e+00  2.2233506731809030e-33 1.3898026230912215e-33 0.0000000000000000e+00  -8.4513854291088655e-34 -5.1871279290558283e-34 0.0000000000000000e+00  -1.1749283192896132e-34 -8.6253786286273468e-35 0.0000000000000000e+00  2.0352824534165380e-34 1.3732574677556270e-34 0.0000000000000000e+00  -5.7412014200634813e-35 -3.8725193733956503e-35 0.0000000000000000e+00  -1.3319098134354536e-35 -9.9330832536719654e-36 0.0000000000000000e+00  1.5116513252220865e-35 1.1076711051033627e-35 0.0000000000000000e+00  -3.9372585907867770e-36 -2.9018171300646811e-36 0.0000000000000000e+00  -9.3515338163141317e-37 -7.4164302396020862e-37 0.0000000000000000e+00  1.0625977722620841e-36 8.4117494188389159e-37 0.0000000000000000e+00  -3.0679942247736274e-37 -2.4757688057714505e-37 0.0000000000000000e+00  -3.8414357088551216e-38 -3.2128452005362576e-38 0.0000000000000000e+00  6.6919100509401595e-38 5.6997472801707392e-38 0.0000000000000000e+00  -2.5400784507372716e-38 -2.2149305705861311e-38 0.0000000000000000e+00  8.6355006025709306e-40 8.0585126643397874e-40 0.0000000000000000e+00  3.5921368235932457e-39 3.2484646472675187e-39 0.0000000000000000e+00  -1.8680045387442626e-39 -1.7340378900400545e-39 0.0000000000000000e+00  4.0076445838548478e-40 3.8304773923309320e-40 0.0000000000000000e+00  1.9578944432135891e-40 1.8704720012251751e-40 0.0000000000000000e+00  3.6807096435773172e-40 3.9601089982691994e-40 0.0000000000000000e+00  -1.0877249478197090e-39 -1.1498042927323281e-39 0.0000000000000000e+00  2.1322985258358941e-39 2.3234188056249348e-39 0.0000000000000000e+00  -1.4441356085587498e-38 -1.5665136590994483e-38 0.0000000000000000e+00  1.0261471002652022e-37 1.1333857798006245e-37 0.0000000000000000e+00  -2.3376875186388184e-37 -2.6550677135078876e-37 0.0000000000000000e+00  2.6698430347326833e-37 3.1663923685821410e-37 0.0000000000000000e+00  -4.2604859190176464e-36 -5.1357680150997446e-36 0.0000000000000000e+00  1.3721862709973207e-35 1.6552478076996779e-35 0.0000000000000000e+00  -6.0277505413815629e-35 -7.3680261170967475e-35 0.0000000000000000e+00  1.3456486103653666e-34 1.7153693815877305e-34 0.0000000000000000e+00  -2.8562999985971390e-34 -3.8168764018299254e-34 0.0000000000000000e+00  1.4469233603602145e-33 1.9517529683554889e-33 0.0000000000000000e+00  -1.1494539711440317e-33 -1.5602497756077452e-33 0.0000000000000000e+00  5.9885831033536566e-33 7.8310655839235420e-33 0.0000000000000000e+00  4.3643633586733234e-32 6.8151350853643749e-32 0.0000000000000000e+00  -2.0749514108238676e-31 -3.1623607622004751e-31 0.0000000000000000e+00  -5.6263946449670620e-31 -9.3474704715524815e-31 0.0000000000000000e+00  1.0669745023705276e-30 1.8176323725904869e-30 0.0000000000000000e+00  -8.2027955547485651e-32 -1.3719997004447447e-31 0.0000000000000000e+00  -3.3319000077195769e-30 -5.6856233353434367e-30 0.0000000000000000e+00  9.8472743092721466e-30 1.6140125708421138e-29 0.0000000000000000e+00  1.4970511801338667e-29 2.7541627710453636e-29 0.0000000000000000e+00  -9.8284539646173697e-29 -1.7924591159509341e-28 0.0000000000000000e+00  3.1850687834039691e-29 6.0213461492110890e-29 0.0000000000000000e+00  9.9693636181736946e-29 2.1093516573851677e-28 0.0000000000000000e+00  4.1211194098032788e-29 7.4532506825184169e-29 0.0000000000000000e+00  3.5142010886094979e-28 7.0324636445032913e-28 0.0000000000000000e+00  1.4891672691977438e-28 3.4010043418533443e-28 0.0000000000000000e+00  -4.3309863854522257e-28 -8.9871220457995506e-28 0.0000000000000000e+00  -4.0024115037739286e-28 -1.0467890247419047e-27 0.0000000000000000e+00  4.1860989343339440e-28 9.9434354362095207e-28 0.0000000000000000e+00  7.6715351383600130e-28 1.9312136411112519e-27 0.0000000000000000e+00  3.9396335236308151e-28 1.1789860760798321e-27 0.0000000000000000e+00  6.4770160883781040e-29 4.3529732048514683e-28 0.0000000000000000e+00  -8.8143635578477504e-28 -2.6340476252095415e-27 0.0000000000000000e+00  -3.3167034401695481e-28 -9.3164134048686535e-28 0.0000000000000000e+00  -1.5978054310973074e-28 -4.4275228412295245e-28 0.0000000000000000e+00  -4.3639678582946158e-28 -1.6900675419393634e-27 0.0000000000000000e+00  -3.9119002774947380e-28 -1.6333626558470572e-27 0.0000000000000000e+00  -3.3250770968390483e-28 -1.9928455422803690e-27 0.0000000000000000e+00  7.0013169781459544e-29 -2.3200344664148876e-28 0.0000000000000000e+00  4.3761146117040377e-28 2.2762742068989817e-27 0.0000000000000000e+00  6.6763682614680327e-29 2.3732307374818336e-28 0.0000000000000000e+00  -2.9410977887649082e-28 -2.6053826831690751e-27 0.0000000000000000e+00  1.8321984645571216e-28 1.4636342020077011e-27 0.0000000000000000e+00  1.1194392090548706e-28 1.3189584200583612e-27 0.0000000000000000e+00  -7.5583146407422368e-29 -1.4088132182204864e-27 0.0000000000000000e+00  -9.9368248827257240e-30 -1.3568587705623526e-28 0.0000000000000000e+00  -2.9952360416526156e-29 -1.4799727071921881e-27 0.0000000000000000e+00  -3.8422498493593675e-29 2.6047129095366083e-27 0.0000000000000000e+00  -1.2413032655360668e-28 2.4396232927052909e-27 0.0000000000000000e+00  3.5030796916914174e-29 -1.6980636240022917e-27 0.0000000000000000e+00  -4.8531586326767006e-29 -1.2982313387540400e-28 0.0000000000000000e+00  2.2840327146394115e-28 -2.4125887890175093e-27 0.0000000000000000e+00  -3.4775846114895193e-28 1.8970567248797632e-27 0.0000000000000000e+00  -2.2114545527077324e-28 8.8528813869343065e-28 0.0000000000000000e+00  -2.1108604183783201e-30 -6.7620271582275505e-28 0.0000000000000000e+00  -6.9391575344162619e-29 -1.6499239771711214e-28 0.0000000000000000e+00  6.0134616906845230e-28 -2.8745683697123926e-27 0.0000000000000000e+00  7.3324760246592643e-28 -3.3983783430387384e-27 0.0000000000000000e+00  1.2640341366191136e-27 -4.7472629652249087e-27 0.0000000000000000e+00  4.1886665981818684e-28 -1.3177499056049989e-27 0.0000000000000000e+00  -3.1364047910964128e-28 1.2132484122598236e-27 0.0000000000000000e+00  -8.4249836539821188e-28 2.5139188186951693e-27 0.0000000000000000e+00  -1.0058835753051835e-27 2.7540353161722648e-27 0.0000000000000000e+00  -2.9671535428020767e-28 7.1064757882993637e-28 0.0000000000000000e+00  1.6123451581206933e-28 -4.3960877091392080e-28 0.0000000000000000e+00  2.2102479696748998e-28 -5.3454265957000256e-28 0.0000000000000000e+00  9.0392989950378850e-28 -1.9434885138815267e-27 0.0000000000000000e+00  3.7191100374747165e-28 -7.5671939400690332e-28 0.0000000000000000e+00  -3.0621146761545471e-28 6.0884491384011439e-28 0.0000000000000000e+00  -1.0682738092563922e-29 3.1508678175668195e-29 0.0000000000000000e+00  3.3050778835915326e-29 -6.8390620316467164e-29 0.0000000000000000e+00  8.3259951117874292e-29 -1.5510785824475076e-28 0.0000000000000000e+00  -1.6754087544087885e-29 3.1511033771590258e-29 0.0000000000000000e+00  -2.4546090396208739e-29 4.2469035648710100e-29 0.0000000000000000e+00  2.4588