<?xml version="1.0"?>
<VTKFile type="UnstructuredGrid"  version="0.1"  >
<UnstructuredGrid>
<Piece  NumberOfPoints="11902" NumberOfCells="23402">
<Points>
<DataArray  type="Float64"  NumberOfComponents="3"  format="ascii">-5 -5 0  5 -5 0  5 5 0  -5 5 0  1.206999503540382 0.001319334619526854 0  -4.9 -5 0  -4.8 -5 0  -4.7 -5 0  -4.6 -5 0  -4.5 -5 0  -4.4 -5 0  -4.3 -5 0  -4.2 -5 0  -4.1 -5 0  -4 -5 0  -3.9 -5 0  -3.8 -5 0  -3.7 -5 0  -3.6 -5 0  -3.5 -5 0  -3.4 -5 0  -3.3 -5 0  -3.2 -5 0  -3.1 -5 0  -3 -5 0  -2.9 -5 0  -2.8 -5 0  -2.7 -5 0  -2.6 -5 0  -2.5 -5 0  -2.4 -5 0  -2.3 -5 0  -2.2 -5 0  -2.1 -5 0  -2 -5 0  -1.9 -5 0  -1.8 -5 0  -1.7 -5 0  -1.6 -5 0  -1.5 -5 0  -1.4 -5 0  -1.3 -5 0  -1.2 -5 0  -1.1 -5 0  -1 -5 0  -0.9000000000000004 -5 0  -0.7999999999999998 -5 0  -0.7000000000000002 -5 0  -0.5999999999999996 -5 0  -0.5 -5 0  -0.4000000000000004 -5 0  -0.2999999999999998 -5 0  -0.2000000000000002 -5 0  -0.09999999999999964 -5 0  0 -5 0  0.09999999999999964 -5 0  0.2000000000000002 -5 0  0.2999999999999998 -5 0  0.4000000000000004 -5 0  0.5 -5 0  0.5999999999999996 -5 0  0.7000000000000002 -5 0  0.7999999999999998 -5 0  0.9000000000000004 -5 0  1 -5 0  1.1 -5 0  1.2 -5 0  1.3 -5 0  1.4 -5 0  1.5 -5 0  1.6 -5 0  1.7 -5 0  1.8 -5 0  1.9 -5 0  2 -5 0  2.1 -5 0  2.2 -5 0  2.3 -5 0  2.4 -5 0  2.5 -5 0  2.6 -5 0  2.7 -5 0  2.8 -5 0  2.9 -5 0  3 -5 0  3.1 -5 0  3.199999999999999 -5 0  3.300000000000001 -5 0  3.4 -5 0  3.5 -5 0  3.6 -5 0  3.699999999999999 -5 0  3.800000000000001 -5 0  3.9 -5 0  4 -5 0  4.1 -5 0  4.199999999999999 -5 0  4.300000000000001 -5 0  4.4 -5 0  4.5 -5 0  4.6 -5 0  4.699999999999999 -5 0  4.800000000000001 -5 0  4.9 -5 0  5 -4.9 0  5 -4.8 0  5 -4.7 0  5 -4.6 0  5 -4.5 0  5 -4.4 0  5 -4.3 0  5 -4.2 0  5 -4.1 0  5 -4 0  5 -3.9 0  5 -3.8 0  5 -3.7 0  5 -3.6 0  5 -3.5 0  5 -3.4 0  5 -3.3 0  5 -3.2 0  5 -3.1 0  5 -3 0  5 -2.9 0  5 -2.8 0  5 -2.7 0  5 -2.6 0  5 -2.5 0  5 -2.4 0  5 -2.3 0  5 -2.2 0  5 -2.1 0  5 -2 0  5 -1.9 0  5 -1.8 0  5 -1.7 0  5 -1.6 0  5 -1.5 0  5 -1.4 0  5 -1.3 0  5 -1.2 0  5 -1.1 0  5 -1 0  5 -0.9000000000000004 0  5 -0.7999999999999998 0  5 -0.7000000000000002 0  5 -0.5999999999999996 0  5 -0.5 0  5 -0.4000000000000004 0  5 -0.2999999999999998 0  5 -0.2000000000000002 0  5 -0.09999999999999964 0  5 0 0  5 0.09999999999999964 0  5 0.2000000000000002 0  5 0.2999999999999998 0  5 0.4000000000000004 0  5 0.5 0  5 0.5999999999999996 0  5 0.7000000000000002 0  5 0.7999999999999998 0  5 0.9000000000000004 0  5 1 0  5 1.1 0  5 1.2 0  5 1.3 0  5 1.4 0  5 1.5 0  5 1.6 0  5 1.7 0  5 1.8 0  5 1.9 0  5 2 0  5 2.1 0  5 2.2 0  5 2.3 0  5 2.4 0  5 2.5 0  5 2.6 0  5 2.7 0  5 2.8 0  5 2.9 0  5 3 0  5 3.1 0  5 3.199999999999999 0  5 3.300000000000001 0  5 3.4 0  5 3.5 0  5 3.6 0  5 3.699999999999999 0  5 3.800000000000001 0  5 3.9 0  5 4 0  5 4.1 0  5 4.199999999999999 0  5 4.300000000000001 0  5 4.4 0  5 4.5 0  5 4.6 0  5 4.699999999999999 0  5 4.800000000000001 0  5 4.9 0  4.9 5 0  4.8 5 0  4.7 5 0  4.6 5 0  4.5 5 0  4.4 5 0  4.3 5 0  4.2 5 0  4.1 5 0  4 5 0  3.9 5 0  3.8 5 0  3.7 5 0  3.6 5 0  3.5 5 0  3.4 5 0  3.3 5 0  3.2 5 0  3.1 5 0  3 5 0  2.9 5 0  2.8 5 0  2.7 5 0  2.6 5 0  2.5 5 0  2.4 5 0  2.3 5 0  2.2 5 0  2.1 5 0  2 5 0  1.9 5 0  1.8 5 0  1.7 5 0  1.6 5 0  1.5 5 0  1.4 5 0  1.3 5 0  1.2 5 0  1.1 5 0  1 5 0  0.9000000000000004 5 0  0.7999999999999998 5 0  0.7000000000000002 5 0  0.5999999999999996 5 0  0.5 5 0  0.4000000000000004 5 0  0.2999999999999998 5 0  0.2000000000000002 5 0  0.09999999999999964 5 0  0 5 0  -0.09999999999999964 5 0  -0.2000000000000002 5 0  -0.2999999999999998 5 0  -0.4000000000000004 5 0  -0.5 5 0  -0.5999999999999996 5 0  -0.7000000000000002 5 0  -0.7999999999999998 5 0  -0.9000000000000004 5 0  -1 5 0  -1.1 5 0  -1.2 5 0  -1.3 5 0  -1.4 5 0  -1.5 5 0  -1.6 5 0  -1.7 5 0  -1.8 5 0  -1.9 5 0  -2 5 0  -2.1 5 0  -2.2 5 0  -2.3 5 0  -2.4 5 0  -2.5 5 0  -2.6 5 0  -2.7 5 0  -2.8 5 0  -2.9 5 0  -3 5 0  -3.1 5 0  -3.199999999999999 5 0  -3.300000000000001 5 0  -3.4 5 0  -3.5 5 0  -3.6 5 0  -3.699999999999999 5 0  -3.800000000000001 5 0  -3.9 5 0  -4 5 0  -4.1 5 0  -4.199999999999999 5 0  -4.300000000000001 5 0  -4.4 5 0  -4.5 5 0  -4.6 5 0  -4.699999999999999 5 0  -4.800000000000001 5 0  -4.9 5 0  -5 4.9 0  -5 4.8 0  -5 4.7 0  -5 4.6 0  -5 4.5 0  -5 4.4 0  -5 4.3 0  -5 4.2 0  -5 4.1 0  -5 4 0  -5 3.9 0  -5 3.8 0  -5 3.7 0  -5 3.6 0  -5 3.5 0  -5 3.4 0  -5 3.3 0  -5 3.2 0  -5 3.1 0  -5 3 0  -5 2.9 0  -5 2.8 0  -5 2.7 0  -5 2.6 0  -5 2.5 0  -5 2.4 0  -5 2.3 0  -5 2.2 0  -5 2.1 0  -5 2 0  -5 1.9 0  -5 1.8 0  -5 1.7 0  -5 1.6 0  -5 1.5 0  -5 1.4 0  -5 1.3 0  -5 1.2 0  -5 1.1 0  -5 1 0  -5 0.9000000000000004 0  -5 0.7999999999999998 0  -5 0.7000000000000002 0  -5 0.5999999999999996 0  -5 0.5 0  -5 0.4000000000000004 0  -5 0.2999999999999998 0  -5 0.2000000000000002 0  -5 0.09999999999999964 0  -5 0 0  -5 -0.09999999999999964 0  -5 -0.2000000000000002 0  -5 -0.2999999999999998 0  -5 -0.4000000000000004 0  -5 -0.5 0  -5 -0.5999999999999996 0  -5 -0.7000000000000002 0  -5 -0.7999999999999998 0  -5 -0.9000000000000004 0  -5 -1 0  -5 -1.1 0  -5 -1.2 0  -5 -1.3 0  -5 -1.4 0  -5 -1.5 0  -5 -1.6 0  -5 -1.7 0  -5 -1.8 0  -5 -1.9 0  -5 -2 0  -5 -2.1 0  -5 -2.2 0  -5 -2.3 0  -5 -2.4 0  -5 -2.5 0  -5 -2.6 0  -5 -2.7 0  -5 -2.8 0  -5 -2.9 0  -5 -3 0  -5 -3.1 0  -5 -3.199999999999999 0  -5 -3.300000000000001 0  -5 -3.4 0  -5 -3.5 0  -5 -3.6 0  -5 -3.699999999999999 0  -5 -3.800000000000001 0  -5 -3.9 0  -5 -4 0  -5 -4.1 0  -5 -4.199999999999999 0  -5 -4.300000000000001 0  -5 -4.4 0  -5 -4.5 0  -5 -4.6 0  -5 -4.699999999999999 0  -5 -4.800000000000001 0  -5 -4.9 0  1.200905203498507 0.09879193827108235 0  1.18191184165296 0.1967650983643795 0  1.150247095379804 0.2939003114224163 0  1.109347694973043 0.3851280342756815 0  1.056057881665261 0.4757437999268759 0  0.9934442745937359 0.5607782695509662 0  0.91979669758435 0.6405500591883716 0  0.8369364738770733 0.7134309532257517 0  0.7471004079829809 0.7790230428720446 0  0.6488351043602524 0.8374417730979051 0  0.5434082826679525 0.8884972470558538 0  0.4340576259030304 0.930551246166656 0  0.3224653845487506 0.9633995395141957 0  0.2048821092371873 0.9857551425240411 0  0.08879279020618082 1.000808037287457 0  -0.02772124055125772 1.003619399487229 0  -0.1444976233037554 0.9934658917044128 0  -0.2632907846249082 0.9756698058156957 0  -0.378446294887293 0.9496666613153456 0  -0.488201126870646 0.9131888367098563 0  -0.59340183433394 0.8675042749467634 0  -0.6934651837500001 0.8128007630492938 0  -0.7862818503614873 0.7497085703018551 0  -0.8728269752675405 0.6789419206931762 0  -0.9522095807663514 0.600743836341232 0  -1.021080902394778 0.5184826784884549 0  -1.080287480812454 0.4316998612656381 0  -1.128203074564915 0.3397275482938096 0  -1.164084542681193 0.2459797886344326 0  -1.18812284969984 0.1497027868178566 0  -1.20027780300325 0.05075132633220466 0  -1.200264565653056 -0.04891273713684433 0  -1.188034358191421 -0.1474993205016074 0  -1.164762643558939 -0.2437527315029946 0  -1.127549528986176 -0.3394186242616705 0  -1.080627460975134 -0.4305594123675112 0  -1.022126259201048 -0.5176364793826281 0  -0.9538426412504349 -0.5994265638646187 0  -0.8748438580228626 -0.6764129939188569 0  -0.78797061948034 -0.746074866285577 0  -0.6937526745748661 -0.8072917826360846 0  -0.5935259169874338 -0.8615140961746928 0  -0.4852622057760647 -0.9086396082768895 0  -0.3748184725786975 -0.9468015995087906 0  -0.2603042101766522 -0.9744177531163951 0  -0.1431057818806112 -0.9926171683323295 0  -0.02744527083638527 -1.002713012551106 0  0.08938588280304391 -0.9980020671658438 0  0.2080255558693092 -0.9833538519975819 0  0.3242169116758905 -0.9617283028551608 0  0.4375952967623377 -0.9291291899562253 0  0.5451867254423324 -0.8875506400274 0  0.6495903413377959 -0.8371124120721012 0  0.747251107135888 -0.7800563037770661 0  0.8369879743766183 -0.7141924989693041 0  0.9192753218620824 -0.6400245714375963 0  0.9918942041052755 -0.5601335572769821 0  1.055886888907591 -0.4751418669891944 0  1.110359654490017 -0.3851840739187087 0  1.151718999265045 -0.2923451669824949 0  1.18220969741072 -0.1959104871944974 0  1.200938920448252 -0.09832378393955683 0  -2.448749674097102 4.918460190067763 0  -2.448641015414729 -4.910869968858839 0  4.91080279655144 2.448162295890348 0  4.918894172641163 -2.449599598681979 0  2.446404066111989 -4.896166735522224 0  2.440829925794146 4.899915385720681 0  -4.910826869028711 -2.4481858694591 0  -4.91082497123644 2.448189752905261 0  -1.748711242383576 4.91150221898868 0  -1.744489636981423 -4.914924174659104 0  4.921080802198254 1.744311933036808 0  4.90967747051931 -1.74810845576973 0  -4.909965898429142 -1.74783869250123 0  -4.910784441298125 1.747580718811534 0  1.745996351411931 4.90539559694098 0  1.747434245813316 -4.893603586557754 0  -1.148982671863974 4.909390143440293 0  -1.129824354526956 -4.917257037041969 0  -4.90981389828215 -1.148119058734099 0  -4.909634202861145 1.147919255110788 0  1.143968040166052 -4.913465013152031 0  1.148990624048844 4.90937833971117 0  4.909959058246546 1.146395978855594 0  4.920714665058224 -1.152155702695795 0  -0.5467429542457276 -4.910630998083559 0  -0.5465172300615452 4.919258821575641 0  -4.908651441371202 -0.5488148823832583 0  -4.908675784060765 0.5473713967717773 0  4.907982835084189 -0.5491351733335705 0  4.919549024551151 0.5458780915599313 0  0.5425319487379359 -4.897598216848595 0  0.5512474513725008 4.916102990591293 0  -4.9121323279399 -3.048498074419377 0  4.918687532587204 3.046500898440126 0  4.911642746663206 -3.048476988028342 0  -4.912978971699917 3.045587922790335 0  3.055455969667247 -4.917621973842224 0  -3.048798049127383 -4.911574264946458 0  3.052361853377952 4.913647343426024 0  -3.048242995558926 4.912461690540296 0  -4.907798818552955 -0.04991830690485934 0  0.04512466335604448 -4.912586377991256 0  0.04957240959621704 4.919566599505712 0  4.914803643361392 -0.05129975023785487 0  3.545741197348528 -4.919193868439389 0  -3.549032851627211 4.912106794
[...]
<PointData  Vectors="f_2543"> 
<DataArray  type="Float64"  Name="f_2543"  NumberOfComponents="3" format="ascii">-0.0000000000000000e+00 -0.0000000000000000e+00 0.0000000000000000e+00  -0.0000000000000000e+00 -0.0000000000000000e+00 0.0000000000000000e+00  -0.0000000000000000e+00 -0.0000000000000000e+00 0.0000000000000000e+00  -0.0000000000000000e+00 -0.0000000000000000e+00 0.0000000000000000e+00  4.4147416258353105e-02 1.6216036981434311e-04 0.0000000000000000e+00  -0.0000000000000000e+00 -0.0000000000000000e+00 0.0000000000000000e+00  -0.0000000000000000e+00 -0.0000000000000000e+00 0.0000000000000000e+00  -0.0000000000000000e+00 -0.0000000000000000e+00 0.0000000000000000e+00  -0.0000000000000000e+00 -0.0000000000000000e+00 0.0000000000000000e+00  -0.0000000000000000e+00 -0.0000000000000000e+00 0.0000000000000000e+00  -0.0000000000000000e+00 -0.0000000000000000e+00 0.0000000000000000e+00  -0.0000000000000000e+00 -0.0000000000000000e+00 0.0000000000000000e+00  -0.0000000000000000e+00 -0.0000000000000000e+00 0.0000000000000000e+00  -0.0000000000000000e+00 -0.0000000000000000e+00 0.0000000000000000e+00  -0.0000000000000000e+00 -0.0000000000000000e+00 0.0000000000000000e+00  -0.0000000000000000e+00 -0.0000000000000000e+00 0.0000000000000000e+00  -0.0000000000000000e+00 -0.0000000000000000e+00 0.0000000000000000e+00  -0.0000000000000000e+00 -0.0000000000000000e+00 0.0000000000000000e+00  -0.0000000000000000e+00 -0.0000000000000000e+00 0.0000000000000000e+00  -0.0000000000000000e+00 -0.0000000000000000e+00 0.0000000000000000e+00  -0.0000000000000000e+00 -0.0000000000000000e+00 0.0000000000000000e+00  -0.0000000000000000e+00 -0.0000000000000000e+00 0.0000000000000000e+00  -0.0000000000000000e+00 -0.0000000000000000e+00 0.0000000000000000e+00  -0.0000000000000000e+00 -0.0000000000000000e+00 0.0000000000000000e+00  -0.0000000000000000e+00 -0.0000000000000000e+00 0.0000000000000000e+00  -0.0000000000000000e+00 -0.0000000000000000e+00 0.0000000000000000e+00  -0.0000000000000000e+00 -0.0000000000000000e+00 0.0000000000000000e+00  -0.0000000000000000e+00 -0.0000000000000000e+00 0.0000000000000000e+00  -0.0000000000000000e+00 -0.0000000000000000e+00 0.0000000000000000e+00  -0.0000000000000000e+00 -0.0000000000000000e+00 0.0000000000000000e+00  -0.0000000000000000e+00 -0.0000000000000000e+00 0.0000000000000000e+00  -0.0000000000000000e+00 -0.0000000000000000e+00 0.0000000000000000e+00  -0.0000000000000000e+00 -0.0000000000000000e+00 0.0000000000000000e+00  -0.0000000000000000e+00 -0.0000000000000000e+00 0.0000000000000000e+00  -0.0000000000000000e+00 -0.0000000000000000e+00 0.0000000000000000e+00  -0.0000000000000000e+00 -0.0000000000000000e+00 0.0000000000000000e+00  -0.0000000000000000e+00 -0.0000000000000000e+00 0.0000000000000000e+00  -0.0000000000000000e+00 -0.0000000000000000e+00 0.0000000000000000e+00  -0.0000000000000000e+00 -0.0000000000000000e+00 0.0000000000000000e+00  -0.0000000000000000e+00 -0.0000000000000000e+00 0.0000000000000000e+00  -0.0000000000000000e+00 -0.0000000000000000e+00 0.0000000000000000e+00  -0.0000000000000000e+00 -0.0000000000000000e+00 0.0000000000000000e+00  -0.0000000000000000e+00 -0.0000000000000000e+00 0.0000000000000000e+00  -0.0000000000000000e+00 -0.0000000000000000e+00 0.0000000000000000e+00  -0.0000000000000000e+00 -0.0000000000000000e+00 0.0000000000000000e+00  -0.0000000000000000e+00 -0.0000000000000000e+00 0.0000000000000000e+00  -0.0000000000000000e+00 -0.0000000000000000e+00 0.0000000000000000e+00  -0.0000000000000000e+00 -0.0000000000000000e+00 0.0000000000000000e+00  -0.0000000000000000e+00 -0.0000000000000000e+00 0.0000000000000000e+00  -0.0000000000000000e+00 -0.0000000000000000e+00 0.0000000000000000e+00  -0.0000000000000000e+00 -0.0000000000000000e+00 0.0000000000000000e+00  -0.0000000000000000e+00 -0.0000000000000000e+00 0.0000000000000000e+00  -0.0000000000000000e+00 -0.0000000000000000e+00 0.0000000000000000e+00  -0.0000000000000000e+00 -0.0000000000000000e+00 0.0000000000000000e+00  -0.0000000000000000e+00 -0.0000000000000000e+00 0.0000000000000000e+00  -0.0000000000000000e+00 -0.0000000000000000e+00 0.0000000000000000e+00  -0.0000000000000000e+00 -0.0000000000000000e+00 0.0000000000000000e+00  -0.0000000000000000e+00 -0.0000000000000000e+00 0.0000000000000000e+00  -0.0000000000000000e+00 -0.0000000000000000e+00 0.0000000000000000e+00  -0.0000000000000000e+00 -0.0000000000000000e+00 0.0000000000000000e+00  -0.0000000000000000e+00 -0.0000000000000000e+00 0.0000000000000000e+00  -0.0000000000000000e+00 -0.0000000000000000e+00 0.0000000000000000e+00  -0.0000000000000000e+00 -0.0000000000000000e+00 0.0000000000000000e+00  -0.0000000000000000e+00 -0.0000000000000000e+00 0.0000000000000000e+00  -0.0000000000000000e+00 -0.0000000000000000e+00 0.0000000000000000e+00  -0.0000000000000000e+00 -0.0000000000000000e+00 0.0000000000000000e+00  -0.0000000000000000e+00 -0.0000000000000000e+00 0.0000000000000000e+00  -0.0000000000000000e+00 -0.0000000000000000e+00 0.0000000000000000e+00  -0.0000000000000000e+00 -0.0000000000000000e+00 0.0000000000000000e+00  -0.0000000000000000e+00 -0.0000000000000000e+00 0.0000000000000000e+00  -0.0000000000000000e+00 -0.0000000000000000e+00 0.0000000000000000e+00  -0.0000000000000000e+00 -0.0000000000000000e+00 0.0000000000000000e+00  -0.0000000000000000e+00 -0.0000000000000000e+00 0.0000000000000000e+00  -0.0000000000000000e+00 -0.0000000000000000e+00 0.0000000000000000e+00  -0.0000000000000000e+00 -0.0000000000000000e+00 0.0000000000000000e+00  -0.0000000000000000e+00 -0.0000000000000000e+00 0.0000000000000000e+00  -0.0000000000000000e+00 -0.0000000000000000e+00 0.0000000000000000e+00  -0.0000000000000000e+00 -0.0000000000000000e+00 0.0000000000000000e+00  -0.0000000000000000e+00 -0.0000000000000000e+00 0.0000000000000000e+00  -0.0000000000000000e+00 -0.0000000000000000e+00 0.0000000000000000e+00  -0.0000000000000000e+00 -0.0000000000000000e+00 0.0000000000000000e+00  -0.0000000000000000e+00 -0.0000000000000000e+00 0.0000000000000000e+00  -0.0000000000000000e+00 -0.0000000000000000e+00 0.0000000000000000e+00  -0.0000000000000000e+00 -0.0000000000000000e+00 0.0000000000000000e+00  -0.0000000000000000e+00 -0.0000000000000000e+00 0.0000000000000000e+00  -0.0000000000000000e+00 -0.0000000000000000e+00 0.0000000000000000e+00  -0.0000000000000000e+00 -0.0000000000000000e+00 0.0000000000000000e+00  -0.0000000000000000e+00 -0.0000000000000000e+00 0.0000000000000000e+00  -0.0000000000000000e+00 -0.0000000000000000e+00 0.0000000000000000e+00  -0.0000000000000000e+00 -0.0000000000000000e+00 0.0000000000000000e+00  -0.0000000000000000e+00 -0.0000000000000000e+00 0.0000000000000000e+00  -0.0000000000000000e+00 -0.0000000000000000e+00 0.0000000000000000e+00  -0.0000000000000000e+00 -0.0000000000000000e+00 0.0000000000000000e+00  -0.0000000000000000e+00 -0.0000000000000000e+00 0.0000000000000000e+00  -0.0000000000000000e+00 -0.0000000000000000e+00 0.0000000000000000e+00  -0.0000000000000000e+00 -0.0000000000000000e+00 0.0000000000000000e+00  -0.0000000000000000e+00 -0.0000000000000000e+00 0.0000000000000000e+00  -0.0000000000000000e+00 -0.0000000000000000e+00 0.0000000000000000e+00  -0.0000000000000000e+00 -0.0000000000000000e+00 0.0000000000000000e+00  -0.0000000000000000e+00 -0.0000000000000000e+00 0.0000000000000000e+00  -0.0000000000000000e+00 -0.0000000000000000e+00 0.0000000000000000e+00  -0.0000000000000000e+00 -0.0000000000000000e+00 0.0000000000000000e+00  -0.0000000000000000e+00 -0.0000000000000000e+00 0.0000000000000000e+00  -0.0000000000000000e+00 -0.0000000000000000e+00 0.0000000000000000e+00  -0.0000000000000000e+00 -0.0000000000000000e+00 0.0000000000000000e+00  -0.0000000000000000e+00 -0.0000000000000000e+00 0.0000000000000000e+00  -0.0000000000000000e+00 -0.0000000000000000e+00 0.0000000000000000e+00  -0.0000000000000000e+00 -0.0000000000000000e+00 0.0000000000000000e+00  -0.0000000000000000e+00 -0.0000000000000000e+00 0.0000000000000000e+00  -0.0000000000000000e+00 -0.0000000000000000e+00 0.0000000000000000e+00  -0.0000000000000000e+00 -0.0000000000000000e+00 0.0000000000000000e+00  -0.0000000000000000e+00 -0.0000000000000000e+00 0.0000000000000000e+00  -0.0000000000000000e+00 -0.0000000000000000e+00 0.0000000000000000e+00  -0.0000000000000000e+00 -0.0000000000000000e+00 0.0000000000000000e+00  -0.0000000000000000e+00 -0.0000000000000000e+00 0.0000000000000000e+00  -0.0000000000000000e+00 -0.0000000000000000e+00 0.0000000000000000e+00  -0.0000000000000000e+00 -0.0000000000000000e+00 0.0000000000000000e+00  -0.0000000000000000e+00 -0.0000000000000000e+00 0.0000000000000000e+00  -0.0000000000000000e+00 -0.0000000000000000e+00 0.0000000000000000e+00  -0.0000000000000000e+00 -0.0000000000000000e+00 0.0000000000000000e+00  -0.0000000000000000e+00 -0.0000000000000000e+00 0.0000000000000000e+00  -0.0000000000000000e+00 -0.0000000000000000e+00 0.0000000000000000e+00  -0.0000000000000000e+00 -0.0000000000000000e+00 0.0000000000000000e+00  -0.0000000000000000e+00 -0.0000000000000000e+00 0.0000000000000000e+00  -0.0000000000000000e+00 -0.0000000000000000e+00 0.0000000000000000e+00  -0.0000000000000000e+00 -0.0000000000000000e+00 0.0000000000000000e+00  -0.0000000000000000e+00 -0.0000000000000000e+00 0.0000000000000000e+00  -0.0000000000000000e+00 -0.0000000000000000e+00 0.0000000000000000e+00  -0.0000000000000000e+00 -0.0000000000000000e+00 0.0000000000000000e+00  -0.0000000000000000e+00 -0.0000000000000000e+00 0.0000000000000000e+00  -0.0000000000000000e+00 -0.0000000000000000e+00 0.0000000000000000e+00  -0.0000000000000000e+00 -0.0000000000000000e+00 0.0000000000000000e+00  -0.0000000000000000e+00 -0.0000000000000000e+00 0.0000000000000000e+00  -0.0000000000000000e+00 -0.0000000000000000e+00 0.0000000000000000e+00  -0.0000000000000000e+00 -0.0000000000000000e+00 0.0000000000000000e+00  -0.0000000000000000e+00 -0.0000000000000000e+00 0.0000000000000000e+00  -0.0000000000000000e+00 -0.0000000000000000e+00 0.0000000000000000e+00  -0.0000000000000000e+00 -0.0000000000000000e+00 0.0000000000000000e+00  -0.0000000000000000e+00 -0.0000000000000000e+00 0.0000000000000000e+00  -0.0000000000000000e+00 -0.0000000000000000e+00 0.0000000000000000e+00  -0.0000000000000000e+00 -0.0000000000000000e+00 0.0000000000000000e+00  -0.0000000000000000e+00 -0.0000000000000000e+00 0.0000000000000000e+00  -0.0000000000000000e+00 -0.0000000000000000e+00 0.0000000000000000e+00  -0.0000000000000000e+00 -0.0000000000000000e+00 0.0000000000000000e+00  -0.0000000000000000e+00 -0.0000000000000000e+00 0.0000000000000000e+00  -0.0000000000000000e+00 -0.0000000000000000e+00 0.0000000000000000e+00  -0.0000000000000000e+00 -0.0000000000000000e+00 0.0000000000000000e+00  -0.0000000000000000e+00 -0.0000000000000000e+00 0.0000000000000000e+00  -0.0000000000000000e+00 -0.0000000000000000e+00 0.0000000000000000e+00  -0.0000000000000000e+00 -0.0000000000000000e+00 0.0000000000000000e+00  -0.0000000000000000e+00 -0.0000000000000000e+00 0.0000000000000000e+00  -0.0000000000000000e+00 -0.0000000000000000e+00 0.0000000000000000e+00  -0.0000000000000000e+00 -0.0000000000000000e+00 0.0000000000000000e+00  -0.0000000000000000e+00 -0.0000000000000000e+00 0.0000000000000000e+00  -0.0000000000000000e+00 -0.0000000000000000e+00 0.0000000000000000e+00  -0.0000000000000000e+00 -0.0000000000000000e+00 0.0000000000000000e+00  -0.0000000000000000e+00 -0.0000000000000000e+00 0.0000000000000000e+00  -0.0000000000000000e+00 -0.0000000000000000e+00 0.0000000000000000e+00  -0.0000000000000000e+00 -0.0000000000000000e+00 0.0000000000000000e+00  -0.0000000000000000e+00 -0.0000000000000000e+00 0.0000000000000000e+00  -0.0000000000000000e+00 -0.0000000000000000e+00 0.0000000000000000e+00  -0.0000000000000000e+00 -0.0000000000000000e+00 0.0000000000000000e+00  -0.0000000000000000e+00 -0.0000000000000000e+00 0.0000000000000000e+00  -0.0000000000000000e+00 -0.0000000000000000e+00 0.0000000000000000e+00  -0.0000000000000000e+00 -0.0000000000000000e+00 0.0000000000000000e+00  -0.0000000000000000e+00 -0.0000000000000000e+00 0.0000000000000000e+00  -0.0000000000000000e+00 -0.0000000000000000e+00 0.0000000000000000e+00  -0.0000000000000000e+00 -0.0000000000000000e+00 0.0000000000000000e+00  -0.0000000000000000e+00 -0.0000000000000000e+00 0.0000000000000000e+00  -0.0000000000000000e+00 -0.0000000000000000e+00 0.0000000000000000e+00  -0.0000000000000000e+00 -0.0000000000000000e+00 0.0000000000000000e+00  -0.0000000000000000e+00 -0.0000000000000000e+00 0.0000000000000000e+00  -0.0000000000000000e+00 -0.0000000000000000e+00 0.0000000000000000e+00  -0.0000000000000000e+00 -0.0000000000000000e+00 0.0000000000000000e+00  -0.0000000000000000e+00 -0.0000000000000000e+00 0.0000000000000000e+00  -0.0000000000000000e+00 -0.0000000000000000e+00 0.0000000000000000e+00  -0.0000000000000000e+00 -0.0000000000000000e+00 0.0000000000000000e+00  -0.0000000000000000e+00 -0.0000000000000000e+00 0.0000000000000000e+00  -0.0000000000000000e+00 -0.0000000000000000e+00 0.0000000000000000e+00  -0.0000000000000000e+00 -0.0000000000000000e+00 0.0000000000000000e+00  -0.0000000000000000e+00 -0.0000000000000000e+00 0.0000000000000000e+00  -0.0000000000000000e+00 -0.0000000000000000e+00 0.0000000000000000e+00  -0.0000000000000000e+00 -0.0000000000000000e+00 0.0000000000000000e+00  -0.0000000000000000e+00 -0.0000000000000000e+00 0.0000000000000000e+00  -0.0000000000000000e+00 -0.0000000000000000e+00 0.0000000000000000e+00  -0.0000000000000000e+00 -0.0000000000000000e+00 0.0000000000000000e+00  -0.0000000000000000e+00 -0.0000000000000000e+00 0.0000000000000000e+00  -0.0000000000000000e+00 -0.0000000000000000e+00 0.0000000000000000e+00  -0.0000000000000000e+00 -0.0000000000000000e+00 0.0000000000000000e+00  -0.0000000000000000e+00 -0.0000000000000000e+00 0.0000000000000000e+00  -0.0000000000000000e+00 -0.0000000000000000e+00 0.0000000000000000e+00  -0.0000000000000000e+00 -0.0000000000000000e+00 0.0000000000000000e+00  -0.0000000000000000e+00 -0.0000000000000000e+00 0.0000000000000000e+00  -0.0000000000000000e+00 -0.0000000000000000e+00 0.0000000000000000e+00  -0.0000000000000000e+00 -0.0000000000000000e+00 0.0000000000000000e+00  -0.0000000000000000e+00 -0.0000000000000000e+00 0.0000000000000000e+00  -0.0000000000000000e+00 -0.0000000000000000e+00 0.0000000000000000e+00  -0.0000000000000000e+00 -0.0000000000000000e+00 0.0000000000000000e+00  -0.0000000000000000e+00 -0.0000000000000000e+00 0.0000000000000000e+00  -0.0000000000000000e+00 -0.0000000000000000e+00 0.0000000000000000e+00  -0.0000000000000000e+00 -0.0000000000000000e+00 0.0000000000000000e+00  -0.0000000000000000e+00 -0.0000000000000000e+00 0.0000000000000000e+00  -0.0000000000000000e+00 -0.0000000000000000e+00 0.0000000000000000e+00  -0.0000000000000000e+00 -0.0000000000000000e+00 0.0000000000000000e+00  -0.0000000000000000e+00 -0.0000000000000000e+00 0.0000000000000000e+00  -0.0000000000000000e+00 -0.0000000000000000e+00 0.0000000000000000e+00  -0.0000000000000000e+00 -0.0000000000000000e+00 0.0000000000000000e+00  -0.0000000000000000e+00 -0.0000000000000000e+00 0.0000000000000000e+00  -0.0000000000000000e+00 -0.0000000000000000e+00 0.0000000000000000e+00  -0.0000000000000000e+00 -0.0000000000000000e+00 0.0000000000000000e+00  -0.0000000000000000e+00 -0.0000000000000000e+00 0.0000000000000000e+00  -0.0000000000000000e+00 -0.0000000000000000e+00 0.0000000000000000e+00  -0.0000000000000000e+00 -0.0000000000000000e+00 0.0000000000000000e+00  -0.0000000000000000e+00 -0.0000000000000000e+00 0.0000000000000000e+00  -0.0000000000000000e+00 -0.0000000000000000e+00 0.0000000000000000e+00  -0.0000000000000000e+00 -0.0000000000000000e+00 0.0000000000000000e+00  -0.0000000000000000e+00 -0.0000000000000000e+00 0.0000000000000000e+00  -0.0000000000000000e+00 -0.0000000000000000e+00 0.0000000000000000e+00  -0.0000000000000000e+00 -0.0000000000000000e+00 0.0000000000000000e+00  -0.0000000000000000e+00 -0.0000000000000000e+00 0.0000000000000000e+00  -0.0000000000000000e+00 -0.0000000000000000e+00 0.0000000000000000e+00  -0.0000000000000000e+00 -0.0000000000000000e+00 0.0000000000000000e+00  -0.0000000000000000e+00 -0.0000000000000000e+00 0.0000000000000000e+00  -0.0000000000000000e+00 -0.0000000000000000e+00 0.0000000000000000e+00  -0.0000000000000000e+00 -0.0000000000000000e+00 0.0000000000000000e+00  -0.0000000000000000e+00 -0.0000000000000000e+00 0.0000000000000000e+00  -0.0000000000000000e+00 -0.0000000000000000e+00 0.0000000000000000e+00  -0.0000000000000000e+00 -0.0000000000000000e+00 0.0000000000000000e+00  -0.0000000000000000e+00 -0.0000000000000000e+00 0.0000000000000000e+00  -0.0000000000000000e+00 -0.0000000000000000e+00 0.0000000000000000e+00  -0.0000000000000000e+00 -0.0000000000000000e+00 0.0000000000000000e+00  -0.0000000000000000e+00 -0.0000000000000000e+00 0.0000000000000000e+00  -0.0000000000000000e+00 -0.0000000000000000e+00 0.0000000000000000e+00  -0.0000000000000000e+00 -0.0000000000000000e+00 0.0000000000000000e+00  -0.0000000000000000e+00 -0.0000000000000000e+00 0.0000000000000000e+00  -0.0000000000000000e+00 -0.0000000000000000e+00 0.0000000000000000e+00  -0.0000000000000000e+00 -0.0000000000000000e+00 0.0000000000000000e+00  -0.0000000000000000e+00 -0.0000000000000000e+00 0.0000000000000000e+00  -0.0000000000000000e+00 -0.0000000000000000e+00 0.0000000000000000e+00  -0.0000000000000000e+00 -0.0000000000000000e+00 0.0000000000000000e+00  -0.0000000000000000e+00 -0.0000000000000000e+00 0.0000000000000000e+00  -0.0000000000000000e+00 -0.0000000000000000e+00 0.0000000000000000e+00  -0.0000000000000000e+00 -0.0000000000000000e+00 0.0000000000000000e+00  -0.0000000000000000e+00 -0.0000000000000000e+00 0.0000000000000000e+00  -0.0000000000000000e+00 -0.0000000000000000e+00 0.0000000000000000e+00  -0.0000000000000000e+00 -0.0000000000000000e+00 0.0000000000000000e+00  -0.0000000000000000e+00 -0.0000000000000000e+00 0.0000000000000000e+00  -0.0000000000000000e+00 -0.0000000000000000e+00 0.0000000000000000e+00  -0.0000000000000000e+00 -0.0000000000000000e+00 0.0000000000000000e+00  -0.0000000000000000e+00 -0.0000000000000000e+00 0.0000000000000000e+00  -0.0000000000000000e+00 -0.0000000000000000e+00 0.0000000000000000e+00  -0.0000000000000000e+00 -0.0000000000000000e+00 0.0000000000000000e+00  -0.0000000000000000e+00 -0.0000000000000000e+00 0.0000000000000000e+00  -0.0000000000000000e+00 -0.0000000000000000e+00 0.0000000000000000e+00  -0.0000000000000000e+00 -0.0000000000000000e+00 0.0000000000000000e+00  -0.0000000000000000e+00 -0.0000000000000000e+00 0.0000000000000000e+00  -0.0000000000000000e+00 -0.0000000000000000e+00 0.0000000000000000e+00  -0.0000000000000000e+00 -0.0000000000000000e+00 0.0000000000000000e+00  -0.0000000000000000e+00 -0.0000000000000000e+00 0.0000000000000000e+00  -0.0000000000000000e+00 -0.0000000000000000e+00 0.0000000000000000e+00  -0.0000000000000000e+00 -0.0000000000000000e+00 0.0000000000000000e+00  -0.0000000000000000e+00 -0.0000000000000000e+00 0.0000000000000000e+00  -0.0000000000000000e+00 -0.0000000000000000e+00 0.0000000000000000e+00  -0.0000000000000000e+00 -0.0000000000000000e+00 0.0000000000000000e+00  -0.0000000000000000e+00 -0.0000000000000000e+00 0.0000000000000000e+00  -0.0000000000000000e+00 -0.0000000000000000e+00 0.0000000000000000e+00  -0.0000000000000000e+00 -0.0000000000000000e+00 0.0000000000000000e+00  -0.0000000000000000e+00 -0.0000000000000000e+00 0.0000000000000000e+00  -0.0000000000000000e+00 -0.0000000000000000e+00 0.0000000000000000e+00  -0.0000000000000000e+00 -0.0000000000000000e+00 0.0000000000000000e+00  -0.0000000000000000e+00 -0.0000000000000000e+00 0.0000000000000000e+00  -0.0000000000000000e+00 -0.0000000000000000e+00 0.0000000000000000e+00  -0.0000000000000000e+00 -0.0000000000000000e+00 0.0000000000000000e+00  -0.0000000000000000e+00 -0.0000000000000000e+00 0.0000000000000000e+00  -0.0000000000000000e+00 -0.0000000000000000e+00 0.0000000000000000e+00  -0.0000000000000000e+00 -0.0000000000000000e+00 0.0000000000000000e+00  -0.000000000000000