<?xml version="1.0"?>
<VTKFile type="UnstructuredGrid"  version="0.1"  >
<UnstructuredGrid>
<Piece  NumberOfPoints="11902" NumberOfCells="23402">
<Points>
<DataArray  type="Float64"  NumberOfComponents="3"  format="ascii">-5 -5 0  5 -5 0  5 5 0  -5 5 0  1.029565845820408 0.0001909321706741674 0  -4.9 -5 0  -4.8 -5 0  -4.7 -5 0  -4.6 -5 0  -4.5 -5 0  -4.4 -5 0  -4.3 -5 0  -4.2 -5 0  -4.1 -5 0  -4 -5 0  -3.9 -5 0  -3.8 -5 0  -3.7 -5 0  -3.6 -5 0  -3.5 -5 0  -3.4 -5 0  -3.3 -5 0  -3.2 -5 0  -3.1 -5 0  -3 -5 0  -2.9 -5 0  -2.8 -5 0  -2.7 -5 0  -2.6 -5 0  -2.5 -5 0  -2.4 -5 0  -2.3 -5 0  -2.2 -5 0  -2.1 -5 0  -2 -5 0  -1.9 -5 0  -1.8 -5 0  -1.7 -5 0  -1.6 -5 0  -1.5 -5 0  -1.4 -5 0  -1.3 -5 0  -1.2 -5 0  -1.1 -5 0  -1 -5 0  -0.9000000000000004 -5 0  -0.7999999999999998 -5 0  -0.7000000000000002 -5 0  -0.5999999999999996 -5 0  -0.5 -5 0  -0.4000000000000004 -5 0  -0.2999999999999998 -5 0  -0.2000000000000002 -5 0  -0.09999999999999964 -5 0  0 -5 0  0.09999999999999964 -5 0  0.2000000000000002 -5 0  0.2999999999999998 -5 0  0.4000000000000004 -5 0  0.5 -5 0  0.5999999999999996 -5 0  0.7000000000000002 -5 0  0.7999999999999998 -5 0  0.9000000000000004 -5 0  1 -5 0  1.1 -5 0  1.2 -5 0  1.3 -5 0  1.4 -5 0  1.5 -5 0  1.6 -5 0  1.7 -5 0  1.8 -5 0  1.9 -5 0  2 -5 0  2.1 -5 0  2.2 -5 0  2.3 -5 0  2.4 -5 0  2.5 -5 0  2.6 -5 0  2.7 -5 0  2.8 -5 0  2.9 -5 0  3 -5 0  3.1 -5 0  3.199999999999999 -5 0  3.300000000000001 -5 0  3.4 -5 0  3.5 -5 0  3.6 -5 0  3.699999999999999 -5 0  3.800000000000001 -5 0  3.9 -5 0  4 -5 0  4.1 -5 0  4.199999999999999 -5 0  4.300000000000001 -5 0  4.4 -5 0  4.5 -5 0  4.6 -5 0  4.699999999999999 -5 0  4.800000000000001 -5 0  4.9 -5 0  5 -4.9 0  5 -4.8 0  5 -4.7 0  5 -4.6 0  5 -4.5 0  5 -4.4 0  5 -4.3 0  5 -4.2 0  5 -4.1 0  5 -4 0  5 -3.9 0  5 -3.8 0  5 -3.7 0  5 -3.6 0  5 -3.5 0  5 -3.4 0  5 -3.3 0  5 -3.2 0  5 -3.1 0  5 -3 0  5 -2.9 0  5 -2.8 0  5 -2.7 0  5 -2.6 0  5 -2.5 0  5 -2.4 0  5 -2.3 0  5 -2.2 0  5 -2.1 0  5 -2 0  5 -1.9 0  5 -1.8 0  5 -1.7 0  5 -1.6 0  5 -1.5 0  5 -1.4 0  5 -1.3 0  5 -1.2 0  5 -1.1 0  5 -1 0  5 -0.9000000000000004 0  5 -0.7999999999999998 0  5 -0.7000000000000002 0  5 -0.5999999999999996 0  5 -0.5 0  5 -0.4000000000000004 0  5 -0.2999999999999998 0  5 -0.2000000000000002 0  5 -0.09999999999999964 0  5 0 0  5 0.09999999999999964 0  5 0.2000000000000002 0  5 0.2999999999999998 0  5 0.4000000000000004 0  5 0.5 0  5 0.5999999999999996 0  5 0.7000000000000002 0  5 0.7999999999999998 0  5 0.9000000000000004 0  5 1 0  5 1.1 0  5 1.2 0  5 1.3 0  5 1.4 0  5 1.5 0  5 1.6 0  5 1.7 0  5 1.8 0  5 1.9 0  5 2 0  5 2.1 0  5 2.2 0  5 2.3 0  5 2.4 0  5 2.5 0  5 2.6 0  5 2.7 0  5 2.8 0  5 2.9 0  5 3 0  5 3.1 0  5 3.199999999999999 0  5 3.300000000000001 0  5 3.4 0  5 3.5 0  5 3.6 0  5 3.699999999999999 0  5 3.800000000000001 0  5 3.9 0  5 4 0  5 4.1 0  5 4.199999999999999 0  5 4.300000000000001 0  5 4.4 0  5 4.5 0  5 4.6 0  5 4.699999999999999 0  5 4.800000000000001 0  5 4.9 0  4.9 5 0  4.8 5 0  4.7 5 0  4.6 5 0  4.5 5 0  4.4 5 0  4.3 5 0  4.2 5 0  4.1 5 0  4 5 0  3.9 5 0  3.8 5 0  3.7 5 0  3.6 5 0  3.5 5 0  3.4 5 0  3.3 5 0  3.2 5 0  3.1 5 0  3 5 0  2.9 5 0  2.8 5 0  2.7 5 0  2.6 5 0  2.5 5 0  2.4 5 0  2.3 5 0  2.2 5 0  2.1 5 0  2 5 0  1.9 5 0  1.8 5 0  1.7 5 0  1.6 5 0  1.5 5 0  1.4 5 0  1.3 5 0  1.2 5 0  1.1 5 0  1 5 0  0.9000000000000004 5 0  0.7999999999999998 5 0  0.7000000000000002 5 0  0.5999999999999996 5 0  0.5 5 0  0.4000000000000004 5 0  0.2999999999999998 5 0  0.2000000000000002 5 0  0.09999999999999964 5 0  0 5 0  -0.09999999999999964 5 0  -0.2000000000000002 5 0  -0.2999999999999998 5 0  -0.4000000000000004 5 0  -0.5 5 0  -0.5999999999999996 5 0  -0.7000000000000002 5 0  -0.7999999999999998 5 0  -0.9000000000000004 5 0  -1 5 0  -1.1 5 0  -1.2 5 0  -1.3 5 0  -1.4 5 0  -1.5 5 0  -1.6 5 0  -1.7 5 0  -1.8 5 0  -1.9 5 0  -2 5 0  -2.1 5 0  -2.2 5 0  -2.3 5 0  -2.4 5 0  -2.5 5 0  -2.6 5 0  -2.7 5 0  -2.8 5 0  -2.9 5 0  -3 5 0  -3.1 5 0  -3.199999999999999 5 0  -3.300000000000001 5 0  -3.4 5 0  -3.5 5 0  -3.6 5 0  -3.699999999999999 5 0  -3.800000000000001 5 0  -3.9 5 0  -4 5 0  -4.1 5 0  -4.199999999999999 5 0  -4.300000000000001 5 0  -4.4 5 0  -4.5 5 0  -4.6 5 0  -4.699999999999999 5 0  -4.800000000000001 5 0  -4.9 5 0  -5 4.9 0  -5 4.8 0  -5 4.7 0  -5 4.6 0  -5 4.5 0  -5 4.4 0  -5 4.3 0  -5 4.2 0  -5 4.1 0  -5 4 0  -5 3.9 0  -5 3.8 0  -5 3.7 0  -5 3.6 0  -5 3.5 0  -5 3.4 0  -5 3.3 0  -5 3.2 0  -5 3.1 0  -5 3 0  -5 2.9 0  -5 2.8 0  -5 2.7 0  -5 2.6 0  -5 2.5 0  -5 2.4 0  -5 2.3 0  -5 2.2 0  -5 2.1 0  -5 2 0  -5 1.9 0  -5 1.8 0  -5 1.7 0  -5 1.6 0  -5 1.5 0  -5 1.4 0  -5 1.3 0  -5 1.2 0  -5 1.1 0  -5 1 0  -5 0.9000000000000004 0  -5 0.7999999999999998 0  -5 0.7000000000000002 0  -5 0.5999999999999996 0  -5 0.5 0  -5 0.4000000000000004 0  -5 0.2999999999999998 0  -5 0.2000000000000002 0  -5 0.09999999999999964 0  -5 0 0  -5 -0.09999999999999964 0  -5 -0.2000000000000002 0  -5 -0.2999999999999998 0  -5 -0.4000000000000004 0  -5 -0.5 0  -5 -0.5999999999999996 0  -5 -0.7000000000000002 0  -5 -0.7999999999999998 0  -5 -0.9000000000000004 0  -5 -1 0  -5 -1.1 0  -5 -1.2 0  -5 -1.3 0  -5 -1.4 0  -5 -1.5 0  -5 -1.6 0  -5 -1.7 0  -5 -1.8 0  -5 -1.9 0  -5 -2 0  -5 -2.1 0  -5 -2.2 0  -5 -2.3 0  -5 -2.4 0  -5 -2.5 0  -5 -2.6 0  -5 -2.7 0  -5 -2.8 0  -5 -2.9 0  -5 -3 0  -5 -3.1 0  -5 -3.199999999999999 0  -5 -3.300000000000001 0  -5 -3.4 0  -5 -3.5 0  -5 -3.6 0  -5 -3.699999999999999 0  -5 -3.800000000000001 0  -5 -3.9 0  -5 -4 0  -5 -4.1 0  -5 -4.199999999999999 0  -5 -4.300000000000001 0  -5 -4.4 0  -5 -4.5 0  -5 -4.6 0  -5 -4.699999999999999 0  -5 -4.800000000000001 0  -5 -4.9 0  1.024486353644486 0.09997395365562291 0  1.009151645374242 0.1989284652462016 0  0.9835793996742063 0.2959904926069808 0  0.9485872474801611 0.3898392165016195 0  0.9041221617328431 0.480120907432511 0  0.8507794413817242 0.5655233459068039 0  0.7888376100026107 0.645177461329646 0  0.7188327857376132 0.7183954305917886 0  0.6419224336030138 0.7845938303188444 0  0.5586490351414896 0.8430739280164389 0  0.4697142302642752 0.893001037452123 0  0.376030373915558 0.9341074946760889 0  0.2789528993760748 0.9660527215208857 0  0.1788591742185247 0.9881804823692114 0  0.07715045591651053 1.000661407866293 0  -0.02541975812192513 1.003174957150472 0  -0.1277529364229003 0.9956073390471832 0  -0.2288161843438918 0.9783886522206738 0  -0.3275663520790797 0.9513798840489394 0  -0.4230366652170375 0.9147975473136287 0  -0.5142643884862687 0.8692773423007203 0  -0.6004234623272231 0.8150157823943559 0  -0.6806287767050305 0.7527085182086775 0  -0.7540704682776234 0.682988333362465 0  -0.820061909454006 0.6062254203391569 0  -0.8777930775442159 0.5234822124365683 0  -0.9269963843264999 0.4356819502369715 0  -0.9668176149524832 0.3434179147038685 0  -0.9969789966281166 0.2478294461376409 0  -1.017349489590294 0.1497963375669712 0  -1.027624605459903 0.05018276797732159 0  -1.027631003974817 -0.04994928227369339 0  -1.017364921211328 -0.1495296679063359 0  -0.9973603128782615 -0.2475364741426307 0  -0.9668226929876067 -0.3432324083615051 0  -0.9270474295198502 -0.435361918548369 0  -0.877903651937608 -0.5232210689551161 0  -0.820184355002796 -0.6058845878944948 0  -0.7541775167283861 -0.6824926585812182 0  -0.6806116297921083 -0.7521815703707025 0  -0.6002791207209107 -0.8143402601159546 0  -0.5143544163113541 -0.8687765558038442 0  -0.4227952847063494 -0.9142667894668889 0  -0.3272979228096193 -0.950932220887583 0  -0.2284711857514534 -0.977993818371785 0  -0.1274571178957987 -0.9953241232284242 0  -0.02521768291516902 -1.003053398156372 0  0.07720597214921306 -1.00045483576628 0  0.1790814958360961 -0.987883413325542 0  0.279021201800137 -0.9657134612494342 0  0.3764384076771331 -0.9337749161096537 0  0.4698265534939884 -0.8926778625545765 0  0.5587651484908537 -0.8427586811005623 0  0.6420078077522506 -0.7846308943963864 0  0.718909122147532 -0.7184560764841317 0  0.7887462589300817 -0.6450531798909165 0  0.8506279580030992 -0.5652725253848582 0  0.9042217029779658 -0.4799542015618383 0  0.9489156192467352 -0.3898374922005715 0  0.983839548179872 -0.295900871518121 0  1.009170253157432 -0.1988087698809254 0  1.024508773297163 -0.09992832510051794 0  -2.449765287209145 4.920343358193425 0  -2.449746090327698 -4.912923139669407 0  4.912904747072484 2.449646520331981 0  4.920801297564274 -2.450949284343869 0  2.447690099827566 -4.898579327891947 0  2.442074115776887 4.902249008793525 0  -4.91291120083975 -2.449653712998925 0  -4.912914781895544 2.449657228753833 0  -1.749756019698844 4.91420363777947 0  -1.745488447433369 -4.917516416320454 0  4.923729848441074 1.745651969344404 0  4.912702243027591 -1.749644774870286 0  -4.91295703995754 -1.749351950273452 0  -4.913754450715299 1.74907782486988 0  1.747105393572403 4.908298015229238 0  1.748676634763476 -4.896862169689104 0  -1.149811529676311 4.912651931101011 0  -1.130569503695159 -4.920237665422278 0  -4.913551234800232 -1.149361756888188 0  -4.913384093412926 1.149159969381144 0  1.144742398451777 -4.916586014381833 0  1.149809627527451 4.912649982225188 0  4.913727607426596 1.147648322385233 0  4.924024991205568 -1.153263708118152 0  -0.5471732739591413 -4.914165472605175 0  -0.5469069764424443 4.922462387125809 0  -4.912987286899527 -0.5495047585286069 0  -4.913014098784799 0.5480535001474522 0  4.912391304949415 -0.5498384782398767 0  4.923405352215045 0.5464868345716425 0  0.5430032485745532 -4.901658757268006 0  0.5516438216079754 4.919435021801538 0  -4.913540681811723 -3.049713193437835 0  4.920002138928132 3.047638283071581 0  4.913067240041612 -3.049712094065708 0  -4.9143808370161 3.04679337401298 0  3.056364120268495 -4.919006579252731 0  -3.049774460366128 -4.913053862103111 0  3.053317803788701 4.915102772494567 0  -3.049213524967833 4.913930508982283 0  -4.912358590236311 -0.04998725269224885 0  0.04515071788207168 -4.916145499322085 0  0.0496022840800943 4.922851151474589 0  4.919056097672286 -0.05136433939828292 0  3.546463433302681 -4.920165512805325 0  -3.549817
[...]
<PointData  Vectors="f_423"> 
<DataArray  type="Float64"  Name="f_423"  NumberOfComponents="3" format="ascii">-0.0000000000000000e+00 -0.0000000000000000e+00 0.0000000000000000e+00  -0.0000000000000000e+00 -0.0000000000000000e+00 0.0000000000000000e+00  -0.0000000000000000e+00 -0.0000000000000000e+00 0.0000000000000000e+00  -0.0000000000000000e+00 -0.0000000000000000e+00 0.0000000000000000e+00  1.3891207750176471e-01 9.1944724818814147e-04 0.0000000000000000e+00  -0.0000000000000000e+00 -0.0000000000000000e+00 0.0000000000000000e+00  -0.0000000000000000e+00 -0.0000000000000000e+00 0.0000000000000000e+00  -0.0000000000000000e+00 -0.0000000000000000e+00 0.0000000000000000e+00  -0.0000000000000000e+00 -0.0000000000000000e+00 0.0000000000000000e+00  -0.0000000000000000e+00 -0.0000000000000000e+00 0.0000000000000000e+00  -0.0000000000000000e+00 -0.0000000000000000e+00 0.0000000000000000e+00  -0.0000000000000000e+00 -0.0000000000000000e+00 0.0000000000000000e+00  -0.0000000000000000e+00 -0.0000000000000000e+00 0.0000000000000000e+00  -0.0000000000000000e+00 -0.0000000000000000e+00 0.0000000000000000e+00  -0.0000000000000000e+00 -0.0000000000000000e+00 0.0000000000000000e+00  -0.0000000000000000e+00 -0.0000000000000000e+00 0.0000000000000000e+00  -0.0000000000000000e+00 -0.0000000000000000e+00 0.0000000000000000e+00  -0.0000000000000000e+00 -0.0000000000000000e+00 0.0000000000000000e+00  -0.0000000000000000e+00 -0.0000000000000000e+00 0.0000000000000000e+00  -0.0000000000000000e+00 -0.0000000000000000e+00 0.0000000000000000e+00  -0.0000000000000000e+00 -0.0000000000000000e+00 0.0000000000000000e+00  -0.0000000000000000e+00 -0.0000000000000000e+00 0.0000000000000000e+00  -0.0000000000000000e+00 -0.0000000000000000e+00 0.0000000000000000e+00  -0.0000000000000000e+00 -0.0000000000000000e+00 0.0000000000000000e+00  -0.0000000000000000e+00 -0.0000000000000000e+00 0.0000000000000000e+00  -0.0000000000000000e+00 -0.0000000000000000e+00 0.0000000000000000e+00  -0.0000000000000000e+00 -0.0000000000000000e+00 0.0000000000000000e+00  -0.0000000000000000e+00 -0.0000000000000000e+00 0.0000000000000000e+00  -0.0000000000000000e+00 -0.0000000000000000e+00 0.0000000000000000e+00  -0.0000000000000000e+00 -0.0000000000000000e+00 0.0000000000000000e+00  -0.0000000000000000e+00 -0.0000000000000000e+00 0.0000000000000000e+00  -0.0000000000000000e+00 -0.0000000000000000e+00 0.0000000000000000e+00  -0.0000000000000000e+00 -0.0000000000000000e+00 0.0000000000000000e+00  -0.0000000000000000e+00 -0.0000000000000000e+00 0.0000000000000000e+00  -0.0000000000000000e+00 -0.0000000000000000e+00 0.0000000000000000e+00  -0.0000000000000000e+00 -0.0000000000000000e+00 0.0000000000000000e+00  -0.0000000000000000e+00 -0.0000000000000000e+00 0.0000000000000000e+00  -0.0000000000000000e+00 -0.0000000000000000e+00 0.0000000000000000e+00  -0.0000000000000000e+00 -0.0000000000000000e+00 0.0000000000000000e+00  -0.0000000000000000e+00 -0.0000000000000000e+00 0.0000000000000000e+00  -0.0000000000000000e+00 -0.0000000000000000e+00 0.0000000000000000e+00  -0.0000000000000000e+00 -0.0000000000000000e+00 0.0000000000000000e+00  -0.0000000000000000e+00 -0.0000000000000000e+00 0.0000000000000000e+00  -0.0000000000000000e+00 -0.0000000000000000e+00 0.0000000000000000e+00  -0.0000000000000000e+00 -0.0000000000000000e+00 0.0000000000000000e+00  -0.0000000000000000e+00 -0.0000000000000000e+00 0.0000000000000000e+00  -0.0000000000000000e+00 -0.0000000000000000e+00 0.0000000000000000e+00  -0.0000000000000000e+00 -0.0000000000000000e+00 0.0000000000000000e+00  -0.0000000000000000e+00 -0.0000000000000000e+00 0.0000000000000000e+00  -0.0000000000000000e+00 -0.0000000000000000e+00 0.0000000000000000e+00  -0.0000000000000000e+00 -0.0000000000000000e+00 0.0000000000000000e+00  -0.0000000000000000e+00 -0.0000000000000000e+00 0.0000000000000000e+00  -0.0000000000000000e+00 -0.0000000000000000e+00 0.0000000000000000e+00  -0.0000000000000000e+00 -0.0000000000000000e+00 0.0000000000000000e+00  -0.0000000000000000e+00 -0.0000000000000000e+00 0.0000000000000000e+00  -0.0000000000000000e+00 -0.0000000000000000e+00 0.0000000000000000e+00  -0.0000000000000000e+00 -0.0000000000000000e+00 0.0000000000000000e+00  -0.0000000000000000e+00 -0.0000000000000000e+00 0.0000000000000000e+00  -0.0000000000000000e+00 -0.0000000000000000e+00 0.0000000000000000e+00  -0.0000000000000000e+00 -0.0000000000000000e+00 0.0000000000000000e+00  -0.0000000000000000e+00 -0.0000000000000000e+00 0.0000000000000000e+00  -0.0000000000000000e+00 -0.0000000000000000e+00 0.0000000000000000e+00  -0.0000000000000000e+00 -0.0000000000000000e+00 0.0000000000000000e+00  -0.0000000000000000e+00 -0.0000000000000000e+00 0.0000000000000000e+00  -0.0000000000000000e+00 -0.0000000000000000e+00 0.0000000000000000e+00  -0.0000000000000000e+00 -0.0000000000000000e+00 0.0000000000000000e+00  -0.0000000000000000e+00 -0.0000000000000000e+00 0.0000000000000000e+00  -0.0000000000000000e+00 -0.0000000000000000e+00 0.0000000000000000e+00  -0.0000000000000000e+00 -0.0000000000000000e+00 0.0000000000000000e+00  -0.0000000000000000e+00 -0.0000000000000000e+00 0.0000000000000000e+00  -0.0000000000000000e+00 -0.0000000000000000e+00 0.0000000000000000e+00  -0.0000000000000000e+00 -0.0000000000000000e+00 0.0000000000000000e+00  -0.0000000000000000e+00 -0.0000000000000000e+00 0.0000000000000000e+00  -0.0000000000000000e+00 -0.0000000000000000e+00 0.0000000000000000e+00  -0.0000000000000000e+00 -0.0000000000000000e+00 0.0000000000000000e+00  -0.0000000000000000e+00 -0.0000000000000000e+00 0.0000000000000000e+00  -0.0000000000000000e+00 -0.0000000000000000e+00 0.0000000000000000e+00  -0.0000000000000000e+00 -0.0000000000000000e+00 0.0000000000000000e+00  -0.0000000000000000e+00 -0.0000000000000000e+00 0.0000000000000000e+00  -0.0000000000000000e+00 -0.0000000000000000e+00 0.0000000000000000e+00  -0.0000000000000000e+00 -0.0000000000000000e+00 0.0000000000000000e+00  -0.0000000000000000e+00 -0.0000000000000000e+00 0.0000000000000000e+00  -0.0000000000000000e+00 -0.0000000000000000e+00 0.0000000000000000e+00  -0.0000000000000000e+00 -0.0000000000000000e+00 0.0000000000000000e+00  -0.0000000000000000e+00 -0.0000000000000000e+00 0.0000000000000000e+00  -0.0000000000000000e+00 -0.0000000000000000e+00 0.0000000000000000e+00  -0.0000000000000000e+00 -0.0000000000000000e+00 0.0000000000000000e+00  -0.0000000000000000e+00 -0.0000000000000000e+00 0.0000000000000000e+00  -0.0000000000000000e+00 -0.0000000000000000e+00 0.0000000000000000e+00  -0.0000000000000000e+00 -0.0000000000000000e+00 0.0000000000000000e+00  -0.0000000000000000e+00 -0.0000000000000000e+00 0.0000000000000000e+00  -0.0000000000000000e+00 -0.0000000000000000e+00 0.0000000000000000e+00  -0.0000000000000000e+00 -0.0000000000000000e+00 0.0000000000000000e+00  -0.0000000000000000e+00 -0.0000000000000000e+00 0.0000000000000000e+00  -0.0000000000000000e+00 -0.0000000000000000e+00 0.0000000000000000e+00  -0.0000000000000000e+00 -0.0000000000000000e+00 0.0000000000000000e+00  -0.0000000000000000e+00 -0.0000000000000000e+00 0.0000000000000000e+00  -0.0000000000000000e+00 -0.0000000000000000e+00 0.0000000000000000e+00  -0.0000000000000000e+00 -0.0000000000000000e+00 0.0000000000000000e+00  -0.0000000000000000e+00 -0.0000000000000000e+00 0.0000000000000000e+00  -0.0000000000000000e+00 -0.0000000000000000e+00 0.0000000000000000e+00  -0.0000000000000000e+00 -0.0000000000000000e+00 0.0000000000000000e+00  -0.0000000000000000e+00 -0.0000000000000000e+00 0.0000000000000000e+00  -0.0000000000000000e+00 -0.0000000000000000e+00 0.0000000000000000e+00  -0.0000000000000000e+00 -0.0000000000000000e+00 0.0000000000000000e+00  -0.0000000000000000e+00 -0.0000000000000000e+00 0.0000000000000000e+00  -0.0000000000000000e+00 -0.0000000000000000e+00 0.0000000000000000e+00  -0.0000000000000000e+00 -0.0000000000000000e+00 0.0000000000000000e+00  -0.0000000000000000e+00 -0.0000000000000000e+00 0.0000000000000000e+00  -0.0000000000000000e+00 -0.0000000000000000e+00 0.0000000000000000e+00  -0.0000000000000000e+00 -0.0000000000000000e+00 0.0000000000000000e+00  -0.0000000000000000e+00 -0.0000000000000000e+00 0.0000000000000000e+00  -0.0000000000000000e+00 -0.0000000000000000e+00 0.0000000000000000e+00  -0.0000000000000000e+00 -0.0000000000000000e+00 0.0000000000000000e+00  -0.0000000000000000e+00 -0.0000000000000000e+00 0.0000000000000000e+00  -0.0000000000000000e+00 -0.0000000000000000e+00 0.0000000000000000e+00  -0.0000000000000000e+00 -0.0000000000000000e+00 0.0000000000000000e+00  -0.0000000000000000e+00 -0.0000000000000000e+00 0.0000000000000000e+00  -0.0000000000000000e+00 -0.0000000000000000e+00 0.0000000000000000e+00  -0.0000000000000000e+00 -0.0000000000000000e+00 0.0000000000000000e+00  -0.0000000000000000e+00 -0.0000000000000000e+00 0.0000000000000000e+00  -0.0000000000000000e+00 -0.0000000000000000e+00 0.0000000000000000e+00  -0.0000000000000000e+00 -0.0000000000000000e+00 0.0000000000000000e+00  -0.0000000000000000e+00 -0.0000000000000000e+00 0.0000000000000000e+00  -0.0000000000000000e+00 -0.0000000000000000e+00 0.0000000000000000e+00  -0.0000000000000000e+00 -0.0000000000000000e+00 0.0000000000000000e+00  -0.0000000000000000e+00 -0.0000000000000000e+00 0.0000000000000000e+00  -0.0000000000000000e+00 -0.0000000000000000e+00 0.0000000000000000e+00  -0.0000000000000000e+00 -0.0000000000000000e+00 0.0000000000000000e+00  -0.0000000000000000e+00 -0.0000000000000000e+00 0.0000000000000000e+00  -0.0000000000000000e+00 -0.0000000000000000e+00 0.0000000000000000e+00  -0.0000000000000000e+00 -0.0000000000000000e+00 0.0000000000000000e+00  -0.0000000000000000e+00 -0.0000000000000000e+00 0.0000000000000000e+00  -0.0000000000000000e+00 -0.0000000000000000e+00 0.0000000000000000e+00  -0.0000000000000000e+00 -0.0000000000000000e+00 0.0000000000000000e+00  -0.0000000000000000e+00 -0.0000000000000000e+00 0.0000000000000000e+00  -0.0000000000000000e+00 -0.0000000000000000e+00 0.0000000000000000e+00  -0.0000000000000000e+00 -0.0000000000000000e+00 0.0000000000000000e+00  -0.0000000000000000e+00 -0.0000000000000000e+00 0.0000000000000000e+00  -0.0000000000000000e+00 -0.0000000000000000e+00 0.0000000000000000e+00  -0.0000000000000000e+00 -0.0000000000000000e+00 0.0000000000000000e+00  -0.0000000000000000e+00 -0.0000000000000000e+00 0.0000000000000000e+00  -0.0000000000000000e+00 -0.0000000000000000e+00 0.0000000000000000e+00  -0.0000000000000000e+00 -0.0000000000000000e+00 0.0000000000000000e+00  -0.0000000000000000e+00 -0.0000000000000000e+00 0.0000000000000000e+00  -0.0000000000000000e+00 -0.0000000000000000e+00 0.0000000000000000e+00  -0.0000000000000000e+00 -0.0000000000000000e+00 0.0000000000000000e+00  -0.0000000000000000e+00 -0.0000000000000000e+00 0.0000000000000000e+00  -0.0000000000000000e+00 -0.0000000000000000e+00 0.0000000000000000e+00  -0.0000000000000000e+00 -0.0000000000000000e+00 0.0000000000000000e+00  -0.0000000000000000e+00 -0.0000000000000000e+00 0.0000000000000000e+00  -0.0000000000000000e+00 -0.0000000000000000e+00 0.0000000000000000e+00  -0.0000000000000000e+00 -0.0000000000000000e+00 0.0000000000000000e+00  -0.0000000000000000e+00 -0.0000000000000000e+00 0.0000000000000000e+00  -0.0000000000000000e+00 -0.0000000000000000e+00 0.0000000000000000e+00  -0.0000000000000000e+00 -0.0000000000000000e+00 0.0000000000000000e+00  -0.0000000000000000e+00 -0.0000000000000000e+00 0.0000000000000000e+00  -0.0000000000000000e+00 -0.0000000000000000e+00 0.0000000000000000e+00  -0.0000000000000000e+00 -0.0000000000000000e+00 0.0000000000000000e+00  -0.0000000000000000e+00 -0.0000000000000000e+00 0.0000000000000000e+00  -0.0000000000000000e+00 -0.0000000000000000e+00 0.0000000000000000e+00  -0.0000000000000000e+00 -0.0000000000000000e+00 0.0000000000000000e+00  -0.0000000000000000e+00 -0.0000000000000000e+00 0.0000000000000000e+00  -0.0000000000000000e+00 -0.0000000000000000e+00 0.0000000000000000e+00  -0.0000000000000000e+00 -0.0000000000000000e+00 0.0000000000000000e+00  -0.0000000000000000e+00 -0.0000000000000000e+00 0.0000000000000000e+00  -0.0000000000000000e+00 -0.0000000000000000e+00 0.0000000000000000e+00  -0.0000000000000000e+00 -0.0000000000000000e+00 0.0000000000000000e+00  -0.0000000000000000e+00 -0.0000000000000000e+00 0.0000000000000000e+00  -0.0000000000000000e+00 -0.0000000000000000e+00 0.0000000000000000e+00  -0.0000000000000000e+00 -0.0000000000000000e+00 0.0000000000000000e+00  -0.0000000000000000e+00 -0.0000000000000000e+00 0.0000000000000000e+00  -0.0000000000000000e+00 -0.0000000000000000e+00 0.0000000000000000e+00  -0.0000000000000000e+00 -0.0000000000000000e+00 0.0000000000000000e+00  -0.0000000000000000e+00 -0.0000000000000000e+00 0.0000000000000000e+00  -0.0000000000000000e+00 -0.0000000000000000e+00 0.0000000000000000e+00  -0.0000000000000000e+00 -0.0000000000000000e+00 0.0000000000000000e+00  -0.0000000000000000e+00 -0.0000000000000000e+00 0.0000000000000000e+00  -0.0000000000000000e+00 -0.0000000000000000e+00 0.0000000000000000e+00  -0.0000000000000000e+00 -0.0000000000000000e+00 0.0000000000000000e+00  -0.0000000000000000e+00 -0.0000000000000000e+00 0.0000000000000000e+00  -0.0000000000000000e+00 -0.0000000000000000e+00 0.0000000000000000e+00  -0.0000000000000000e+00 -0.0000000000000000e+00 0.0000000000000000e+00  -0.0000000000000000e+00 -0.0000000000000000e+00 0.0000000000000000e+00  -0.0000000000000000e+00 -0.0000000000000000e+00 0.0000000000000000e+00  -0.0000000000000000e+00 -0.0000000000000000e+00 0.0000000000000000e+00  -0.0000000000000000e+00 -0.0000000000000000e+00 0.0000000000000000e+00  -0.0000000000000000e+00 -0.0000000000000000e+00 0.0000000000000000e+00  -0.0000000000000000e+00 -0.0000000000000000e+00 0.0000000000000000e+00  -0.0000000000000000e+00 -0.0000000000000000e+00 0.0000000000000000e+00  -0.0000000000000000e+00 -0.0000000000000000e+00 0.0000000000000000e+00  -0.0000000000000000e+00 -0.0000000000000000e+00 0.0000000000000000e+00  -0.0000000000000000e+00 -0.0000000000000000e+00 0.0000000000000000e+00  -0.0000000000000000e+00 -0.0000000000000000e+00 0.0000000000000000e+00  -0.0000000000000000e+00 -0.0000000000000000e+00 0.0000000000000000e+00  -0.0000000000000000e+00 -0.0000000000000000e+00 0.0000000000000000e+00  -0.0000000000000000e+00 -0.0000000000000000e+00 0.0000000000000000e+00  -0.0000000000000000e+00 -0.0000000000000000e+00 0.0000000000000000e+00  -0.0000000000000000e+00 -0.0000000000000000e+00 0.0000000000000000e+00  -0.0000000000000000e+00 -0.0000000000000000e+00 0.0000000000000000e+00  -0.0000000000000000e+00 -0.0000000000000000e+00 0.0000000000000000e+00  -0.0000000000000000e+00 -0.0000000000000000e+00 0.0000000000000000e+00  -0.0000000000000000e+00 -0.0000000000000000e+00 0.0000000000000000e+00  -0.0000000000000000e+00 -0.0000000000000000e+00 0.0000000000000000e+00  -0.0000000000000000e+00 -0.0000000000000000e+00 0.0000000000000000e+00  -0.0000000000000000e+00 -0.0000000000000000e+00 0.0000000000000000e+00  -0.0000000000000000e+00 -0.0000000000000000e+00 0.0000000000000000e+00  -0.0000000000000000e+00 -0.0000000000000000e+00 0.0000000000000000e+00  -0.0000000000000000e+00 -0.0000000000000000e+00 0.0000000000000000e+00  -0.0000000000000000e+00 -0.0000000000000000e+00 0.0000000000000000e+00  -0.0000000000000000e+00 -0.0000000000000000e+00 0.0000000000000000e+00  -0.0000000000000000e+00 -0.0000000000000000e+00 0.0000000000000000e+00  -0.0000000000000000e+00 -0.0000000000000000e+00 0.0000000000000000e+00  -0.0000000000000000e+00 -0.0000000000000000e+00 0.0000000000000000e+00  -0.0000000000000000e+00 -0.0000000000000000e+00 0.0000000000000000e+00  -0.0000000000000000e+00 -0.0000000000000000e+00 0.0000000000000000e+00  -0.0000000000000000e+00 -0.0000000000000000e+00 0.0000000000000000e+00  -0.0000000000000000e+00 -0.0000000000000000e+00 0.0000000000000000e+00  -0.0000000000000000e+00 -0.0000000000000000e+00 0.0000000000000000e+00  -0.0000000000000000e+00 -0.0000000000000000e+00 0.0000000000000000e+00  -0.0000000000000000e+00 -0.0000000000000000e+00 0.0000000000000000e+00  -0.0000000000000000e+00 -0.0000000000000000e+00 0.0000000000000000e+00  -0.0000000000000000e+00 -0.0000000000000000e+00 0.0000000000000000e+00  -0.0000000000000000e+00 -0.0000000000000000e+00 0.0000000000000000e+00  -0.0000000000000000e+00 -0.0000000000000000e+00 0.0000000000000000e+00  -0.0000000000000000e+00 -0.0000000000000000e+00 0.0000000000000000e+00  -0.0000000000000000e+00 -0.0000000000000000e+00 0.0000000000000000e+00  -0.0000000000000000e+00 -0.0000000000000000e+00 0.0000000000000000e+00  -0.0000000000000000e+00 -0.0000000000000000e+00 0.0000000000000000e+00  -0.0000000000000000e+00 -0.0000000000000000e+00 0.0000000000000000e+00  -0.0000000000000000e+00 -0.0000000000000000e+00 0.0000000000000000e+00  -0.0000000000000000e+00 -0.0000000000000000e+00 0.0000000000000000e+00  -0.0000000000000000e+00 -0.0000000000000000e+00 0.0000000000000000e+00  -0.0000000000000000e+00 -0.0000000000000000e+00 0.0000000000000000e+00  -0.0000000000000000e+00 -0.0000000000000000e+00 0.0000000000000000e+00  -0.0000000000000000e+00 -0.0000000000000000e+00 0.0000000000000000e+00  -0.0000000000000000e+00 -0.0000000000000000e+00 0.0000000000000000e+00  -0.0000000000000000e+00 -0.0000000000000000e+00 0.0000000000000000e+00  -0.0000000000000000e+00 -0.0000000000000000e+00 0.0000000000000000e+00  -0.0000000000000000e+00 -0.0000000000000000e+00 0.0000000000000000e+00  -0.0000000000000000e+00 -0.0000000000000000e+00 0.0000000000000000e+00  -0.0000000000000000e+00 -0.0000000000000000e+00 0.0000000000000000e+00  -0.0000000000000000e+00 -0.0000000000000000e+00 0.0000000000000000e+00  -0.0000000000000000e+00 -0.0000000000000000e+00 0.0000000000000000e+00  -0.0000000000000000e+00 -0.0000000000000000e+00 0.0000000000000000e+00  -0.0000000000000000e+00 -0.0000000000000000e+00 0.0000000000000000e+00  -0.0000000000000000e+00 -0.0000000000000000e+00 0.0000000000000000e+00  -0.0000000000000000e+00 -0.0000000000000000e+00 0.0000000000000000e+00  -0.0000000000000000e+00 -0.0000000000000000e+00 0.0000000000000000e+00  -0.0000000000000000e+00 -0.0000000000000000e+00 0.0000000000000000e+00  -0.0000000000000000e+00 -0.0000000000000000e+00 0.0000000000000000e+00  -0.0000000000000000e+00 -0.0000000000000000e+00 0.0000000000000000e+00  -0.0000000000000000e+00 -0.0000000000000000e+00 0.0000000000000000e+00  -0.0000000000000000e+00 -0.0000000000000000e+00 0.0000000000000000e+00  -0.0000000000000000e+00 -0.0000000000000000e+00 0.0000000000000000e+00  -0.0000000000000000e+00 -0.0000000000000000e+00 0.0000000000000000e+00  -0.0000000000000000e+00 -0.0000000000000000e+00 0.0000000000000000e+00  -0.0000000000000000e+00 -0.0000000000000000e+00 0.0000000000000000e+00  -0.0000000000000000e+00 -0.0000000000000000e+00 0.0000000000000000e+00  -0.0000000000000000e+00 -0.0000000000000000e+00 0.0000000000000000e+00  -0.0000000000000000e+00 -0.0000000000000000e+00 0.0000000000000000e+00  -0.0000000000000000e+00 -0.0000000000000000e+00 0.0000000000000000e+00  -0.0000000000000000e+00 -0.0000000000000000e+00 0.0000000000000000e+00  -0.0000000000000000e+00 -0.0000000000000000e+00 0.0000000000000000e+00  -0.0000000000000000e+00 -0.0000000000000000e+00 0.0000000000000000e+00  -0.0000000000000000e+00 -0.0000000000000000e+00 0.0000000000000000e+00  -0.0000000000000000e+00 -0.0000000000000000e+00 0.0000000000000000e+00  -0.0000000000000000e+00 -0.0000000000000000e+00 0.0000000000000000e+00  -0.0000000000000000e+00 -0.0000000000000000e+00 0.0000000000000000e+00  -0.0000000000000000e+00 -0.0000000000000000e+00 0.0000000000000000e+00  -0.0000000000000000e+00 -0.0000000000000000e+00 0.0000000000000000e+00  -0.0000000000000000e+00 -0.0000000000000000e+00 0.0000000000000000e+00  -0.0000000000000000e+00 -0.0000000000000000e+00 0.0000000000000000e+00  -0.0000000000000000e+00 -0.0000000000000000e+00 0.0000000000000000e+00  -0.0000000000000000e+00 -0.0000000000000000e+00 0.0000000000000000e+00  -0.0000000000000000e+00 -0.0000000000000000e+00 0.0000000000000000e+00  -0.0000000000000000e