<?xml version="1.0"?>
<VTKFile type="UnstructuredGrid"  version="0.1"  >
<UnstructuredGrid>
<Piece  NumberOfPoints="11902" NumberOfCells="23402">
<Points>
<DataArray  type="Float64"  NumberOfComponents="3"  format="ascii">-5 -5 0  5 -5 0  5 5 0  -5 5 0  1.206999503540382 0.001319334619526854 0  -4.9 -5 0  -4.8 -5 0  -4.7 -5 0  -4.6 -5 0  -4.5 -5 0  -4.4 -5 0  -4.3 -5 0  -4.2 -5 0  -4.1 -5 0  -4 -5 0  -3.9 -5 0  -3.8 -5 0  -3.7 -5 0  -3.6 -5 0  -3.5 -5 0  -3.4 -5 0  -3.3 -5 0  -3.2 -5 0  -3.1 -5 0  -3 -5 0  -2.9 -5 0  -2.8 -5 0  -2.7 -5 0  -2.6 -5 0  -2.5 -5 0  -2.4 -5 0  -2.3 -5 0  -2.2 -5 0  -2.1 -5 0  -2 -5 0  -1.9 -5 0  -1.8 -5 0  -1.7 -5 0  -1.6 -5 0  -1.5 -5 0  -1.4 -5 0  -1.3 -5 0  -1.2 -5 0  -1.1 -5 0  -1 -5 0  -0.9000000000000004 -5 0  -0.7999999999999998 -5 0  -0.7000000000000002 -5 0  -0.5999999999999996 -5 0  -0.5 -5 0  -0.4000000000000004 -5 0  -0.2999999999999998 -5 0  -0.2000000000000002 -5 0  -0.09999999999999964 -5 0  0 -5 0  0.09999999999999964 -5 0  0.2000000000000002 -5 0  0.2999999999999998 -5 0  0.4000000000000004 -5 0  0.5 -5 0  0.5999999999999996 -5 0  0.7000000000000002 -5 0  0.7999999999999998 -5 0  0.9000000000000004 -5 0  1 -5 0  1.1 -5 0  1.2 -5 0  1.3 -5 0  1.4 -5 0  1.5 -5 0  1.6 -5 0  1.7 -5 0  1.8 -5 0  1.9 -5 0  2 -5 0  2.1 -5 0  2.2 -5 0  2.3 -5 0  2.4 -5 0  2.5 -5 0  2.6 -5 0  2.7 -5 0  2.8 -5 0  2.9 -5 0  3 -5 0  3.1 -5 0  3.199999999999999 -5 0  3.300000000000001 -5 0  3.4 -5 0  3.5 -5 0  3.6 -5 0  3.699999999999999 -5 0  3.800000000000001 -5 0  3.9 -5 0  4 -5 0  4.1 -5 0  4.199999999999999 -5 0  4.300000000000001 -5 0  4.4 -5 0  4.5 -5 0  4.6 -5 0  4.699999999999999 -5 0  4.800000000000001 -5 0  4.9 -5 0  5 -4.9 0  5 -4.8 0  5 -4.7 0  5 -4.6 0  5 -4.5 0  5 -4.4 0  5 -4.3 0  5 -4.2 0  5 -4.1 0  5 -4 0  5 -3.9 0  5 -3.8 0  5 -3.7 0  5 -3.6 0  5 -3.5 0  5 -3.4 0  5 -3.3 0  5 -3.2 0  5 -3.1 0  5 -3 0  5 -2.9 0  5 -2.8 0  5 -2.7 0  5 -2.6 0  5 -2.5 0  5 -2.4 0  5 -2.3 0  5 -2.2 0  5 -2.1 0  5 -2 0  5 -1.9 0  5 -1.8 0  5 -1.7 0  5 -1.6 0  5 -1.5 0  5 -1.4 0  5 -1.3 0  5 -1.2 0  5 -1.1 0  5 -1 0  5 -0.9000000000000004 0  5 -0.7999999999999998 0  5 -0.7000000000000002 0  5 -0.5999999999999996 0  5 -0.5 0  5 -0.4000000000000004 0  5 -0.2999999999999998 0  5 -0.2000000000000002 0  5 -0.09999999999999964 0  5 0 0  5 0.09999999999999964 0  5 0.2000000000000002 0  5 0.2999999999999998 0  5 0.4000000000000004 0  5 0.5 0  5 0.5999999999999996 0  5 0.7000000000000002 0  5 0.7999999999999998 0  5 0.9000000000000004 0  5 1 0  5 1.1 0  5 1.2 0  5 1.3 0  5 1.4 0  5 1.5 0  5 1.6 0  5 1.7 0  5 1.8 0  5 1.9 0  5 2 0  5 2.1 0  5 2.2 0  5 2.3 0  5 2.4 0  5 2.5 0  5 2.6 0  5 2.7 0  5 2.8 0  5 2.9 0  5 3 0  5 3.1 0  5 3.199999999999999 0  5 3.300000000000001 0  5 3.4 0  5 3.5 0  5 3.6 0  5 3.699999999999999 0  5 3.800000000000001 0  5 3.9 0  5 4 0  5 4.1 0  5 4.199999999999999 0  5 4.300000000000001 0  5 4.4 0  5 4.5 0  5 4.6 0  5 4.699999999999999 0  5 4.800000000000001 0  5 4.9 0  4.9 5 0  4.8 5 0  4.7 5 0  4.6 5 0  4.5 5 0  4.4 5 0  4.3 5 0  4.2 5 0  4.1 5 0  4 5 0  3.9 5 0  3.8 5 0  3.7 5 0  3.6 5 0  3.5 5 0  3.4 5 0  3.3 5 0  3.2 5 0  3.1 5 0  3 5 0  2.9 5 0  2.8 5 0  2.7 5 0  2.6 5 0  2.5 5 0  2.4 5 0  2.3 5 0  2.2 5 0  2.1 5 0  2 5 0  1.9 5 0  1.8 5 0  1.7 5 0  1.6 5 0  1.5 5 0  1.4 5 0  1.3 5 0  1.2 5 0  1.1 5 0  1 5 0  0.9000000000000004 5 0  0.7999999999999998 5 0  0.7000000000000002 5 0  0.5999999999999996 5 0  0.5 5 0  0.4000000000000004 5 0  0.2999999999999998 5 0  0.2000000000000002 5 0  0.09999999999999964 5 0  0 5 0  -0.09999999999999964 5 0  -0.2000000000000002 5 0  -0.2999999999999998 5 0  -0.4000000000000004 5 0  -0.5 5 0  -0.5999999999999996 5 0  -0.7000000000000002 5 0  -0.7999999999999998 5 0  -0.9000000000000004 5 0  -1 5 0  -1.1 5 0  -1.2 5 0  -1.3 5 0  -1.4 5 0  -1.5 5 0  -1.6 5 0  -1.7 5 0  -1.8 5 0  -1.9 5 0  -2 5 0  -2.1 5 0  -2.2 5 0  -2.3 5 0  -2.4 5 0  -2.5 5 0  -2.6 5 0  -2.7 5 0  -2.8 5 0  -2.9 5 0  -3 5 0  -3.1 5 0  -3.199999999999999 5 0  -3.300000000000001 5 0  -3.4 5 0  -3.5 5 0  -3.6 5 0  -3.699999999999999 5 0  -3.800000000000001 5 0  -3.9 5 0  -4 5 0  -4.1 5 0  -4.199999999999999 5 0  -4.300000000000001 5 0  -4.4 5 0  -4.5 5 0  -4.6 5 0  -4.699999999999999 5 0  -4.800000000000001 5 0  -4.9 5 0  -5 4.9 0  -5 4.8 0  -5 4.7 0  -5 4.6 0  -5 4.5 0  -5 4.4 0  -5 4.3 0  -5 4.2 0  -5 4.1 0  -5 4 0  -5 3.9 0  -5 3.8 0  -5 3.7 0  -5 3.6 0  -5 3.5 0  -5 3.4 0  -5 3.3 0  -5 3.2 0  -5 3.1 0  -5 3 0  -5 2.9 0  -5 2.8 0  -5 2.7 0  -5 2.6 0  -5 2.5 0  -5 2.4 0  -5 2.3 0  -5 2.2 0  -5 2.1 0  -5 2 0  -5 1.9 0  -5 1.8 0  -5 1.7 0  -5 1.6 0  -5 1.5 0  -5 1.4 0  -5 1.3 0  -5 1.2 0  -5 1.1 0  -5 1 0  -5 0.9000000000000004 0  -5 0.7999999999999998 0  -5 0.7000000000000002 0  -5 0.5999999999999996 0  -5 0.5 0  -5 0.4000000000000004 0  -5 0.2999999999999998 0  -5 0.2000000000000002 0  -5 0.09999999999999964 0  -5 0 0  -5 -0.09999999999999964 0  -5 -0.2000000000000002 0  -5 -0.2999999999999998 0  -5 -0.4000000000000004 0  -5 -0.5 0  -5 -0.5999999999999996 0  -5 -0.7000000000000002 0  -5 -0.7999999999999998 0  -5 -0.9000000000000004 0  -5 -1 0  -5 -1.1 0  -5 -1.2 0  -5 -1.3 0  -5 -1.4 0  -5 -1.5 0  -5 -1.6 0  -5 -1.7 0  -5 -1.8 0  -5 -1.9 0  -5 -2 0  -5 -2.1 0  -5 -2.2 0  -5 -2.3 0  -5 -2.4 0  -5 -2.5 0  -5 -2.6 0  -5 -2.7 0  -5 -2.8 0  -5 -2.9 0  -5 -3 0  -5 -3.1 0  -5 -3.199999999999999 0  -5 -3.300000000000001 0  -5 -3.4 0  -5 -3.5 0  -5 -3.6 0  -5 -3.699999999999999 0  -5 -3.800000000000001 0  -5 -3.9 0  -5 -4 0  -5 -4.1 0  -5 -4.199999999999999 0  -5 -4.300000000000001 0  -5 -4.4 0  -5 -4.5 0  -5 -4.6 0  -5 -4.699999999999999 0  -5 -4.800000000000001 0  -5 -4.9 0  1.200905203498507 0.09879193827108235 0  1.18191184165296 0.1967650983643795 0  1.150247095379804 0.2939003114224163 0  1.109347694973043 0.3851280342756815 0  1.056057881665261 0.4757437999268759 0  0.9934442745937359 0.5607782695509662 0  0.91979669758435 0.6405500591883716 0  0.8369364738770733 0.7134309532257517 0  0.7471004079829809 0.7790230428720446 0  0.6488351043602524 0.8374417730979051 0  0.5434082826679525 0.8884972470558538 0  0.4340576259030304 0.930551246166656 0  0.3224653845487506 0.9633995395141957 0  0.2048821092371873 0.9857551425240411 0  0.08879279020618082 1.000808037287457 0  -0.02772124055125772 1.003619399487229 0  -0.1444976233037554 0.9934658917044128 0  -0.2632907846249082 0.9756698058156957 0  -0.378446294887293 0.9496666613153456 0  -0.488201126870646 0.9131888367098563 0  -0.59340183433394 0.8675042749467634 0  -0.6934651837500001 0.8128007630492938 0  -0.7862818503614873 0.7497085703018551 0  -0.8728269752675405 0.6789419206931762 0  -0.9522095807663514 0.600743836341232 0  -1.021080902394778 0.5184826784884549 0  -1.080287480812454 0.4316998612656381 0  -1.128203074564915 0.3397275482938096 0  -1.164084542681193 0.2459797886344326 0  -1.18812284969984 0.1497027868178566 0  -1.20027780300325 0.05075132633220466 0  -1.200264565653056 -0.04891273713684433 0  -1.188034358191421 -0.1474993205016074 0  -1.164762643558939 -0.2437527315029946 0  -1.127549528986176 -0.3394186242616705 0  -1.080627460975134 -0.4305594123675112 0  -1.022126259201048 -0.5176364793826281 0  -0.9538426412504349 -0.5994265638646187 0  -0.8748438580228626 -0.6764129939188569 0  -0.78797061948034 -0.746074866285577 0  -0.6937526745748661 -0.8072917826360846 0  -0.5935259169874338 -0.8615140961746928 0  -0.4852622057760647 -0.9086396082768895 0  -0.3748184725786975 -0.9468015995087906 0  -0.2603042101766522 -0.9744177531163951 0  -0.1431057818806112 -0.9926171683323295 0  -0.02744527083638527 -1.002713012551106 0  0.08938588280304391 -0.9980020671658438 0  0.2080255558693092 -0.9833538519975819 0  0.3242169116758905 -0.9617283028551608 0  0.4375952967623377 -0.9291291899562253 0  0.5451867254423324 -0.8875506400274 0  0.6495903413377959 -0.8371124120721012 0  0.747251107135888 -0.7800563037770661 0  0.8369879743766183 -0.7141924989693041 0  0.9192753218620824 -0.6400245714375963 0  0.9918942041052755 -0.5601335572769821 0  1.055886888907591 -0.4751418669891944 0  1.110359654490017 -0.3851840739187087 0  1.151718999265045 -0.2923451669824949 0  1.18220969741072 -0.1959104871944974 0  1.200938920448252 -0.09832378393955683 0  -2.448749674097102 4.918460190067763 0  -2.448641015414729 -4.910869968858839 0  4.91080279655144 2.448162295890348 0  4.918894172641163 -2.449599598681979 0  2.446404066111989 -4.896166735522224 0  2.440829925794146 4.899915385720681 0  -4.910826869028711 -2.4481858694591 0  -4.91082497123644 2.448189752905261 0  -1.748711242383576 4.91150221898868 0  -1.744489636981423 -4.914924174659104 0  4.921080802198254 1.744311933036808 0  4.90967747051931 -1.74810845576973 0  -4.909965898429142 -1.74783869250123 0  -4.910784441298125 1.747580718811534 0  1.745996351411931 4.90539559694098 0  1.747434245813316 -4.893603586557754 0  -1.148982671863974 4.909390143440293 0  -1.129824354526956 -4.917257037041969 0  -4.90981389828215 -1.148119058734099 0  -4.909634202861145 1.147919255110788 0  1.143968040166052 -4.913465013152031 0  1.148990624048844 4.90937833971117 0  4.909959058246546 1.146395978855594 0  4.920714665058224 -1.152155702695795 0  -0.5467429542457276 -4.910630998083559 0  -0.5465172300615452 4.919258821575641 0  -4.908651441371202 -0.5488148823832583 0  -4.908675784060765 0.5473713967717773 0  4.907982835084189 -0.5491351733335705 0  4.919549024551151 0.5458780915599313 0  0.5425319487379359 -4.897598216848595 0  0.5512474513725008 4.916102990591293 0  -4.9121323279399 -3.048498074419377 0  4.918687532587204 3.046500898440126 0  4.911642746663206 -3.048476988028342 0  -4.912978971699917 3.045587922790335 0  3.055455969667247 -4.917621973842224 0  -3.048798049127383 -4.911574264946458 0  3.052361853377952 4.913647343426024 0  -3.048242995558926 4.912461690540296 0  -4.907798818552955 -0.04991830690485934 0  0.04512466335604448 -4.912586377991256 0  0.04957240959621704 4.919566599505712 0  4.914803643361392 -0.05129975023785487 0  3.545741197348528 -4.919193868439389 0  -3.549032851627211 4.912106794
[...]
<PointData  Scalars="f_27"> 
<DataArray  type="Float64"  Name="f_27"  format="ascii">0.0000000000000000e+00  0.0000000000000000e+00  0.0000000000000000e+00  0.0000000000000000e+00  8.7806193178003611e-01  0.0000000000000000e+00  0.0000000000000000e+00  0.0000000000000000e+00  0.0000000000000000e+00  0.0000000000000000e+00  0.0000000000000000e+00  0.0000000000000000e+00  0.0000000000000000e+00  0.0000000000000000e+00  0.0000000000000000e+00  0.0000000000000000e+00  0.0000000000000000e+00  0.0000000000000000e+00  0.0000000000000000e+00  0.0000000000000000e+00  0.0000000000000000e+00  0.0000000000000000e+00  0.0000000000000000e+00  0.0000000000000000e+00  0.0000000000000000e+00  0.0000000000000000e+00  0.0000000000000000e+00  0.0000000000000000e+00  0.0000000000000000e+00  0.0000000000000000e+00  0.0000000000000000e+00  0.0000000000000000e+00  0.0000000000000000e+00  0.0000000000000000e+00  0.0000000000000000e+00  0.0000000000000000e+00  0.0000000000000000e+00  0.0000000000000000e+00  0.0000000000000000e+00  0.0000000000000000e+00  0.0000000000000000e+00  0.0000000000000000e+00  0.0000000000000000e+00  0.0000000000000000e+00  0.0000000000000000e+00  0.0000000000000000e+00  0.0000000000000000e+00  0.0000000000000000e+00  0.0000000000000000e+00  0.0000000000000000e+00  0.0000000000000000e+00  0.0000000000000000e+00  0.0000000000000000e+00  0.0000000000000000e+00  0.0000000000000000e+00  0.0000000000000000e+00  0.0000000000000000e+00  0.0000000000000000e+00  0.0000000000000000e+00  0.0000000000000000e+00  0.0000000000000000e+00  0.0000000000000000e+00  0.0000000000000000e+00  0.0000000000000000e+00  0.0000000000000000e+00  0.0000000000000000e+00  0.0000000000000000e+00  0.0000000000000000e+00  0.0000000000000000e+00  0.0000000000000000e+00  0.0000000000000000e+00  0.0000000000000000e+00  0.0000000000000000e+00  0.0000000000000000e+00  0.0000000000000000e+00  0.0000000000000000e+00  0.0000000000000000e+00  0.0000000000000000e+00  0.0000000000000000e+00  0.0000000000000000e+00  0.0000000000000000e+00  0.0000000000000000e+00  0.0000000000000000e+00  0.0000000000000000e+00  0.0000000000000000e+00  0.0000000000000000e+00  0.0000000000000000e+00  0.0000000000000000e+00  0.0000000000000000e+00  0.0000000000000000e+00  0.0000000000000000e+00  0.0000000000000000e+00  0.0000000000000000e+00  0.0000000000000000e+00  0.0000000000000000e+00  0.0000000000000000e+00  0.0000000000000000e+00  0.0000000000000000e+00  0.0000000000000000e+00  0.0000000000000000e+00  0.0000000000000000e+00  0.0000000000000000e+00  0.0000000000000000e+00  0.0000000000000000e+00  0.0000000000000000e+00  0.0000000000000000e+00  0.0000000000000000e+00  0.0000000000000000e+00  0.0000000000000000e+00  0.0000000000000000e+00  0.0000000000000000e+00  0.0000000000000000e+00  0.0000000000000000e+00  0.0000000000000000e+00  0.0000000000000000e+00  0.0000000000000000e+00  0.0000000000000000e+00  0.0000000000000000e+00  0.0000000000000000e+00  0.0000000000000000e+00  0.0000000000000000e+00  0.0000000000000000e+00  0.0000000000000000e+00  0.0000000000000000e+00  0.0000000000000000e+00  0.0000000000000000e+00  0.0000000000000000e+00  0.0000000000000000e+00  0.0000000000000000e+00  0.0000000000000000e+00  0.0000000000000000e+00  0.0000000000000000e+00  0.0000000000000000e+00  0.0000000000000000e+00  0.0000000000000000e+00  0.0000000000000000e+00  0.0000000000000000e+00  0.0000000000000000e+00  0.0000000000000000e+00  0.0000000000000000e+00  0.0000000000000000e+00  0.0000000000000000e+00  0.0000000000000000e+00  0.0000000000000000e+00  0.0000000000000000e+00  0.0000000000000000e+00  0.0000000000000000e+00  0.0000000000000000e+00  0.0000000000000000e+00  0.0000000000000000e+00  0.0000000000000000e+00  0.0000000000000000e+00  0.0000000000000000e+00  0.0000000000000000e+00  0.0000000000000000e+00  0.0000000000000000e+00  0.0000000000000000e+00  0.0000000000000000e+00  0.0000000000000000e+00  0.0000000000000000e+00  0.0000000000000000e+00  0.0000000000000000e+00  0.0000000000000000e+00  0.0000000000000000e+00  0.0000000000000000e+00  0.0000000000000000e+00  0.0000000000000000e+00  0.0000000000000000e+00  0.0000000000000000e+00  0.0000000000000000e+00  0.0000000000000000e+00  0.0000000000000000e+00  0.0000000000000000e+00  0.0000000000000000e+00  0.0000000000000000e+00  0.0000000000000000e+00  0.0000000000000000e+00  0.0000000000000000e+00  0.0000000000000000e+00  0.0000000000000000e+00  0.0000000000000000e+00  0.0000000000000000e+00  0.0000000000000000e+00  0.0000000000000000e+00  0.0000000000000000e+00  0.0000000000000000e+00  0.0000000000000000e+00  0.0000000000000000e+00  0.0000000000000000e+00  0.0000000000000000e+00  0.0000000000000000e+00  0.0000000000000000e+00  0.0000000000000000e+00  0.0000000000000000e+00  0.0000000000000000e+00  0.0000000000000000e+00  0.0000000000000000e+00  0.0000000000000000e+00  0.0000000000000000e+00  0.0000000000000000e+00  0.0000000000000000e+00  0.0000000000000000e+00  0.0000000000000000e+00  0.0000000000000000e+00  0.0000000000000000e+00  0.0000000000000000e+00  0.0000000000000000e+00  0.0000000000000000e+00  0.0000000000000000e+00  0.0000000000000000e+00  0.0000000000000000e+00  0.0000000000000000e+00  0.0000000000000000e+00  0.0000000000000000e+00  0.0000000000000000e+00  0.0000000000000000e+00  0.0000000000000000e+00  0.0000000000000000e+00  0.0000000000000000e+00  0.0000000000000000e+00  0.0000000000000000e+00  0.0000000000000000e+00  0.0000000000000000e+00  0.0000000000000000e+00  0.0000000000000000e+00  0.0000000000000000e+00  0.0000000000000000e+00  0.0000000000000000e+00  0.0000000000000000e+00  0.0000000000000000e+00  0.0000000000000000e+00  0.0000000000000000e+00  0.0000000000000000e+00  0.0000000000000000e+00  0.0000000000000000e+00  0.0000000000000000e+00  0.0000000000000000e+00  0.0000000000000000e+00  0.0000000000000000e+00  0.0000000000000000e+00  0.0000000000000000e+00  0.0000000000000000e+00  0.0000000000000000e+00  0.0000000000000000e+00  0.0000000000000000e+00  0.0000000000000000e+00  0.0000000000000000e+00  0.0000000000000000e+00  0.0000000000000000e+00  0.0000000000000000e+00  0.0000000000000000e+00  0.0000000000000000e+00  0.0000000000000000e+00  0.0000000000000000e+00  0.0000000000000000e+00  0.0000000000000000e+00  0.0000000000000000e+00  0.0000000000000000e+00  0.0000000000000000e+00  0.0000000000000000e+00  0.0000000000000000e+00  0.0000000000000000e+00  0.0000000000000000e+00  0.0000000000000000e+00  0.0000000000000000e+00  0.0000000000000000e+00  0.0000000000000000e+00  0.0000000000000000e+00  0.0000000000000000e+00  0.0000000000000000e+00  0.0000000000000000e+00  0.0000000000000000e+00  0.0000000000000000e+00  0.0000000000000000e+00  0.0000000000000000e+00  0.0000000000000000e+00  0.0000000000000000e+00  0.0000000000000000e+00  0.0000000000000000e+00  0.0000000000000000e+00  0.0000000000000000e+00  0.0000000000000000e+00  0.0000000000000000e+00  0.0000000000000000e+00  0.0000000000000000e+00  0.0000000000000000e+00  0.0000000000000000e+00  0.0000000000000000e+00  0.0000000000000000e+00  0.0000000000000000e+00  0.0000000000000000e+00  0.0000000000000000e+00  0.0000000000000000e+00  0.0000000000000000e+00  0.0000000000000000e+00  0.0000000000000000e+00  0.0000000000000000e+00  0.0000000000000000e+00  0.0000000000000000e+00  0.0000000000000000e+00  0.0000000000000000e+00  0.0000000000000000e+00  0.0000000000000000e+00  0.0000000000000000e+00  0.0000000000000000e+00  0.0000000000000000e+00  0.0000000000000000e+00  0.0000000000000000e+00  0.0000000000000000e+00  0.0000000000000000e+00  0.0000000000000000e+00  0.0000000000000000e+00  0.0000000000000000e+00  0.0000000000000000e+00  0.0000000000000000e+00  0.0000000000000000e+00  0.0000000000000000e+00  0.0000000000000000e+00  0.0000000000000000e+00  0.0000000000000000e+00  0.0000000000000000e+00  0.0000000000000000e+00  0.0000000000000000e+00  0.0000000000000000e+00  0.0000000000000000e+00  0.0000000000000000e+00  0.0000000000000000e+00  0.0000000000000000e+00  0.0000000000000000e+00  0.0000000000000000e+00  0.0000000000000000e+00  0.0000000000000000e+00  0.0000000000000000e+00  0.0000000000000000e+00  0.0000000000000000e+00  0.0000000000000000e+00  0.0000000000000000e+00  0.0000000000000000e+00  0.0000000000000000e+00  0.0000000000000000e+00  0.0000000000000000e+00  0.0000000000000000e+00  0.0000000000000000e+00  0.0000000000000000e+00  0.0000000000000000e+00  0.0000000000000000e+00  0.0000000000000000e+00  0.0000000000000000e+00  0.0000000000000000e+00  0.0000000000000000e+00  0.0000000000000000e+00  0.0000000000000000e+00  0.0000000000000000e+00  0.0000000000000000e+00  0.0000000000000000e+00  0.0000000000000000e+00  0.0000000000000000e+00  0.0000000000000000e+00  0.0000000000000000e+00  0.0000000000000000e+00  0.0000000000000000e+00  0.0000000000000000e+00  0.0000000000000000e+00  0.0000000000000000e+00  0.0000000000000000e+00  0.0000000000000000e+00  0.0000000000000000e+00  0.0000000000000000e+00  0.0000000000000000e+00  0.0000000000000000e+00  0.0000000000000000e+00  0.0000000000000000e+00  0.0000000000000000e+00  0.0000000000000000e+00  0.0000000000000000e+00  0.0000000000000000e+00  0.0000000000000000e+00  0.0000000000000000e+00  0.0000000000000000e+00  0.0000000000000000e+00  0.0000000000000000e+00  0.0000000000000000e+00  0.0000000000000000e+00  0.0000000000000000e+00  0.0000000000000000e+00  0.0000000000000000e+00  0.0000000000000000e+00  0.0000000000000000e+00  0.0000000000000000e+00  0.0000000000000000e+00  0.0000000000000000e+00  0.0000000000000000e+00  0.0000000000000000e+00  0.0000000000000000e+00  0.0000000000000000e+00  0.0000000000000000e+00  0.0000000000000000e+00  0.0000000000000000e+00  0.0000000000000000e+00  0.0000000000000000e+00  0.0000000000000000e+00  8.7379286513479026e-01  8.8116234236890711e-01  9.0693000334515284e-01  9.0693556408667575e-01  8.9128594178250298e-01  8.5979422914320891e-01  8.6650997241629191e-01  8.9695803451979883e-01  8.8523563279261530e-01  8.5827257477641872e-01  8.7093896282884886e-01  8.7592021546093490e-01  8.5270128270665957e-01  8.8787586286514841e-01  8.8417925758352656e-01  8.8595039665553588e-01  9.0304930665892147e-01  8.8229705578561435e-01  8.7253012204794833e-01  8.8767508707387521e-01  8.8096594298308228e-01  8.8549878672381332e-01  8.7964966195432526e-01  8.6796201018119901e-01  8.8041310647640902e-01  8.9371779604682111e-01  8.7636383683952368e-01  8.8419185971577108e-01  9.0128123942816907e-01  8.9280086648328905e-01  8.8431197988788468e-01  8.8123084579318056e-01  8.8757405368248588e-01  8.4459463319881900e-01  8.8685492837810265e-01  8.7246809140093751e-01  8.8419915997387843e-01  8.6708021333812646e-01  8.6899229586889926e-01  8.8617590786257228e-01  9.1116742105135717e-01  8.5897071948718662e-01  8.9018380115446150e-01  8.6886311930924276e-01  8.7649503525371553e-01  8.8500636347221240e-01  8.3250964383863024e-01  8.5720544516413089e-01  8.8122257912220958e-01  8.7409744804998535e-01  8.8505511509242762e-01  8.9644003147563533e-01  8.8509947594308236e-01  8.6331397056616377e-01  8.7728908186056964e-01  8.8208682018475493e-01  8.9473660447368752e-01  8.8208645345228420e-01  8.4707078203340125e-01  8.7220197596672311e-01  8.7611324597820772e-01  8.6899633607470916e-01  -1.0716537062732354e-31  8.0538788069913465e-32  1.5423080885180417e-34  2.6450313261427740e-34  1.3176509427611642e-31  1.8516844939834774e-31  4.0692785736156061e-36  -1.8642629976697512e-35  -2.3171991651572148e-31  -8.1479559124448953e-32  3.6200761598201704e-32  5.2069860320691034e-32  2.8784916482239722e-32  3.4769183631683527e-32  1.8138578279173862e-30  9.5932307359790157e-31  -2.8692591691136493e-30  8.0764891888382993e-32  -4.1250589273013768e-30  -5.7748312708438297e-30  -9.3354784713574802e-31  -1.0486395496599143e-30  -2.7126097340304165e-30  -3.4704225746726805e-30  -1.9836672711410992e-30  -1.5066270139338588e-30  -4.5972976304931617e-29  8.7974655617581200e-30  -2.2385783981643283e-29  -1.1743080386418094e-28  4.2521868450960646e-30  -1.0105809565598057e-30  -2.5085907173109156e-36  1.7117633308694573e-36  1.3767915809883983e-36  -2.4684544447090595e-36  2.4195602604686945e-33  1.5428917218511854e-33  1.3274196153874876e-33  1.5684843059068766e-33  -5.2748323255137473e-28  5.7506371836847566e-30  -2.8435896284989634e-31  9.2147460793594994e-28  5.5586817944424646e-36  3.3456966697973698e-36  7.2134451169803972e-36  -2.2598198647028973e-38  2.5944805515638096e-40  -2.5004103320861596e-38  7.8950624471623633e-39  -1.2494809157840416e-36  4.7362592423193657e-40  -8.6754947532447434e-38  -1.8640672288688815e-38  -7.6198559028604884e-40  -9.2298665158567223e-38  6.6732096232192784e-40  -5.0674166742344584e-38  -1.0217955032323430e-39  -2.1885938178384142e-40  -2.7045479518009630e-40  -2.2313985250819951e-40  -7.7135485626983051e-42  -1.5380344838318240e-42  2.4735574951543353e-41  3.1681460454996216e-41  -2.8172203896479779e-40  8.8465192377418828e-28  1.2400324370034962e-30  -7.6044978808998449e-31  8.3069822238714250e-28  1.4988946086121653e-30  8.6798001805797065e-31  4.3251924407975148e-30  3.7371205526147670e-30  9.2025450157721064e-31  9.0839804142155090e-31  -8.0709926426309947e-31  -5.1697954358176274e-30  -9.2897188178081574e-31  -2.6219239386940970e-31  1.8306062276239459e-29  2.9625460856831181e-29  -1.8504026442996244e-31  9.7852513561459626e-31  -5.7168237939901162e-31  3.9654390454186423e-31  -1.1307266488611544e-30  -9.0087253750976017e-31  -9.1330021655560191e-33  -8.2940838228199230e-33  -2.2177468172635682e-31  -2.4355266598627632e-31  4.7736460742997434e-33  4.7366200813752182e-33  2.1672068543195272e-35  -8.9989193664395583e-33  1.5266520449046586e-32  -2.1526938660820387e-35  4.9486747413926818e-33  -2.1552654205486416e-35  2.0146728217609201e-35  1.9831874589945368e-32  1.1808598551488798e-42  4.3849576107086640e-42  -8.8734098787627764e-43  -1.7187678510331634e-42  -4.8521271336933662e-43  -1.2741850505424104e-42  1.8964959267148124e-42  1.4130735459502494e-42  1.7413478941537398e-28  8.6168829111670340e-30  1.5122325016066810e-30  9.4706447704590996e-28  3.2271240975204212e-32  -1.0408158843131207e-33  -1.2187352112388193e-33  -8.8913665481490310e-32  1.2046961795540416e-33  9.2859953797386129e-32  1.6243320597145498e-31  1.0819914720297208e-33  -3.3765867185484693e-37  -5.1539901623903045e-34  -2.3347287928164498e-34  -9.9450304959478818e-39  -2.7274528618343995e-37  -4.2400560169477557e-36  -3.1563370234761868e-34  7.3674679504442723e-38  1.7447182331542893e-39  -1.0581863614886063e-40  -9.3978964323304589e-37  -1.8585098950434910e-39  -3.4608507549497384e-37  -1.7597364692372803e-39  5.7424127049205519e-39  -6.4481182150571540e-41  -4.5161489320116913e-37  -2.4992402131032292e-39  8.9613707909933797e-42  -9.2300557245260997e-41  5.3410591086723740e-39  -3.2811374803815979e-41  -2.2692917066770207e-37  -2.3233926649291538e-39  -4.4568178115430471e-43  1.9780118058796586e-43  -2.7740034871886287e-43  -6.6148498008603751e-43  -2.2953243291229500e-28  2.9944155959802730e-29  -1.1505663903672263e-27  2.7520407297075917e-27  4.6502160708493178e-27  -1.6591721719015266e-26  -1.4158179970569619e-26  6.5834516576545037e-26  3.0823385014626751e-26  -1.9789141420884224e-25  -2.5069044595744723e-26  4.1997210036918403e-25  -1.7477307582834357e-25  -2.9783108590441885e-25  1.2118092661003544e-24  -2.6418729775160526e-24  -4.8365803968984535e-24  1.7418275953367971e-23  1.4237888903322550e-23  -6.8144607959542463e-23  -2.9956639908433016e-23  -3.9747512903795157e-23  1.9766982332157284e-22  2.6226961666007992e-23  -4.0376304827406004e-22  1.2352520921873579e-22  2.7879961359486711e-22  -7.5907417890377339e-22  1.9741563679094325e-21  2.3172622126797342e-21  -1.0983423561508699e-20  -3.8121570949239294e-21  2.6674652882415685e-21  3.1751226620903817e-20  -2.6117852194305773e-21  -4.4423393621763319e-20  3.8716291378246845e-20  -6.9173347195744542e-20  -1.2070964438008781e-19  5.8975480012334232e-19  1.3357583490067070e-19  -1.5522304586603504e-18  4.1507271331541675e-19  -1.4508639932619759e-18  9.0018873102122278e-19  -2.1427121421995091e-18  7.9518498632570632e-18  3.1777271648227136e-18  1.0008129630095964e-19  -2.2426160337609039e-18  5.5183023024440872e-18  4.3653872226052208e-18  -1.1028480775124210e-19  -2.2169910947398555e-18  4.5276013875553085e-19  -1.1411917936232948e-19  4.3222303856122696e-18  -2.1765377129584973e-18  4.1783510045592625e-19  7.1524637301857688e-20  -1.2976262371609062e-19  3.1194314233646874e-19  -1.9611439815598648e-18  2.9912227935001283e-19  -1.3165253655629633e-19  1.6179142557845437e-19  -1.4487332064660659e-18  4.1278594899912263e-19  -1.0825531120002361e-19  2.8284265284732086e-20  -8.4744872546814291e-19  4.2206255689468632e-19  -1.4093383442156621e-18  2.3032672027382795e-20  -1.4997831626900905e-19  3.2665651824503773e-18  -1.5723637380483185e-18  4.8607123872990454e-18  8.6414007146352793e-19  -1.7898984075732904e-17  1.0538349436134234e-17  -5.6723287348695369e-17  -1.4134962827617683e-18  1.6136919760377213e-17  -3.8067681213243753e-17  -5.8631654675195316e-18  1.0885018906414656e-16  -5.7470489828411448e-17  3.0345668325091542e-16  -9.1797892650404607e-17  3.1637148052788100e-16  -5.5843868891298256e-17  5.8251816442369010e-17  2.5740996580261314e-17  -2.0615774738221887e-16  2.2066163371505703e-17  7.3690027235771345e-18  -2.5547968238702473e-01  5.9479199386858222e-17  -1.5688250763686709e-16  5.6669452860688985e-18  1.3050521314815997e-16  -2.6712945182637421e-01  -6.5224541887381589e-17  2.9919163106087088e-16  -2.4919086918481820e-01  -7.4293846646576801e-17  2.0634477629659101e-16  -1.0464765612173806e-15  -4.1221147727444241e-16  2.8088100251637219e-17  1.1789206615109018e-16  -1.3033687512477034e-15  2.0929403162315689e-17  -5.6965582500422322e-17  2.1741786281432851e-16  -8.0430794229943766e-16  -6.1357397254075266e-16  9.9532278457419560e-17  -1.4538193487608043e-16  1.3260170188420754e-15  -1.0492569455556854e-18  5.8037065102323987e-17  -2.1776731348642220e-16  8.5866723243337657e-16  3.4863569991183589e-16  1.0569631734641902e-17  -2.6617286002079080e-16  4.7129627936515242e-16  7.5872031910259841e-16  -5.2067241767911021e-17  -3.1779344128608171e-16  -8.2792015947588278e-17  1.3451993675258397e-15  -1.5676110624059464e-16  -2.9742792057883533e-16  -1.0896447532145193e-15  1.8097118604888268e-15  -7.2800818694027765e-15  -1.6247036892149168e-15  -3.0962715147412385e-16  2.0419024480816369e-15  -8.6316343301860144e-15  -9.6222261546265076e-16  -4.4505591782955584e-16  1.8819994122000300e-15  -9.8793260590292840e-15  8.2627783528422272e-16  1.1059368720920735e-14  -8.5003274737014926e-15  3.7744461895631181e-14  -2.0815535062628107e-15  2.2825691981889675e-15  -3.6511110809252227e-15  2.6556331503718640e-14  -6.7802525185743745e-15  6.0484362998606146e-15  9.8367056384231022e-15  -7.4823145454023579e-14  2.1935232240164641e-14  -3.9751346211951399e-14  -1.9201965372909579e-14  -2.2126049076889298e-15  1.5886010788537757e-14  -1.0148667698212005e-13  3.6488347319593704e-14  -1.6055566184846511e-13  4.6206445344910349e-14  -1.7766416034458904e-13  4.9189872622176231e-14  -1.9149588242704955e-13  5.5224143707915941e-14  -2.2141200237412613e-13  6.3256512380511359e-14  -2.4246863263632991e-13  6.3404110090846842e-14  -2.1463692912125186e-13  4.6833133427949410e-14  -1.2243952963888371e-13  1.7605755305928123e-14  -1.4137356927927993e-14  -5.5347294229591293e-15  3.7747628943803147e-14  -9.4703021609238276e-15  2.2504107024536456e-14  -2.2321891137847308e-15  -2.9283145633736497e-15  1.6847179640395221e-15  -1.1613384574262273e-16  -1.8879824960651510e-16  1.1130016223307498e-16  -1.8559528614130258e-18  -2.7798138537236731e-17  7.1400794427641318e-18  3.8874493133170832e-18  -2.0071419263739737e-18  -6.4668480109313012e-20  -2.3159740379161108e-18  3.2012490224322924e-19  -1.2839174115176411e-14  6.3819039683480500e-19  -1.2334647706375634e-18  2.9509651494602804e-20  6.5822567379983635e-19  -1.7354784013931861e-19  2.8649965414319370e-19  1.5790157827333304e-21 