<?xml version="1.0"?>
<VTKFile type="UnstructuredGrid"  version="0.1"  >
<UnstructuredGrid>
<Piece  NumberOfPoints="11902" NumberOfCells="23402">
<Points>
<DataArray  type="Float64"  NumberOfComponents="3"  format="ascii">-5 -5 0  5 -5 0  5 5 0  -5 5 0  1.029565845820408 0.0001909321706741674 0  -4.9 -5 0  -4.8 -5 0  -4.7 -5 0  -4.6 -5 0  -4.5 -5 0  -4.4 -5 0  -4.3 -5 0  -4.2 -5 0  -4.1 -5 0  -4 -5 0  -3.9 -5 0  -3.8 -5 0  -3.7 -5 0  -3.6 -5 0  -3.5 -5 0  -3.4 -5 0  -3.3 -5 0  -3.2 -5 0  -3.1 -5 0  -3 -5 0  -2.9 -5 0  -2.8 -5 0  -2.7 -5 0  -2.6 -5 0  -2.5 -5 0  -2.4 -5 0  -2.3 -5 0  -2.2 -5 0  -2.1 -5 0  -2 -5 0  -1.9 -5 0  -1.8 -5 0  -1.7 -5 0  -1.6 -5 0  -1.5 -5 0  -1.4 -5 0  -1.3 -5 0  -1.2 -5 0  -1.1 -5 0  -1 -5 0  -0.9000000000000004 -5 0  -0.7999999999999998 -5 0  -0.7000000000000002 -5 0  -0.5999999999999996 -5 0  -0.5 -5 0  -0.4000000000000004 -5 0  -0.2999999999999998 -5 0  -0.2000000000000002 -5 0  -0.09999999999999964 -5 0  0 -5 0  0.09999999999999964 -5 0  0.2000000000000002 -5 0  0.2999999999999998 -5 0  0.4000000000000004 -5 0  0.5 -5 0  0.5999999999999996 -5 0  0.7000000000000002 -5 0  0.7999999999999998 -5 0  0.9000000000000004 -5 0  1 -5 0  1.1 -5 0  1.2 -5 0  1.3 -5 0  1.4 -5 0  1.5 -5 0  1.6 -5 0  1.7 -5 0  1.8 -5 0  1.9 -5 0  2 -5 0  2.1 -5 0  2.2 -5 0  2.3 -5 0  2.4 -5 0  2.5 -5 0  2.6 -5 0  2.7 -5 0  2.8 -5 0  2.9 -5 0  3 -5 0  3.1 -5 0  3.199999999999999 -5 0  3.300000000000001 -5 0  3.4 -5 0  3.5 -5 0  3.6 -5 0  3.699999999999999 -5 0  3.800000000000001 -5 0  3.9 -5 0  4 -5 0  4.1 -5 0  4.199999999999999 -5 0  4.300000000000001 -5 0  4.4 -5 0  4.5 -5 0  4.6 -5 0  4.699999999999999 -5 0  4.800000000000001 -5 0  4.9 -5 0  5 -4.9 0  5 -4.8 0  5 -4.7 0  5 -4.6 0  5 -4.5 0  5 -4.4 0  5 -4.3 0  5 -4.2 0  5 -4.1 0  5 -4 0  5 -3.9 0  5 -3.8 0  5 -3.7 0  5 -3.6 0  5 -3.5 0  5 -3.4 0  5 -3.3 0  5 -3.2 0  5 -3.1 0  5 -3 0  5 -2.9 0  5 -2.8 0  5 -2.7 0  5 -2.6 0  5 -2.5 0  5 -2.4 0  5 -2.3 0  5 -2.2 0  5 -2.1 0  5 -2 0  5 -1.9 0  5 -1.8 0  5 -1.7 0  5 -1.6 0  5 -1.5 0  5 -1.4 0  5 -1.3 0  5 -1.2 0  5 -1.1 0  5 -1 0  5 -0.9000000000000004 0  5 -0.7999999999999998 0  5 -0.7000000000000002 0  5 -0.5999999999999996 0  5 -0.5 0  5 -0.4000000000000004 0  5 -0.2999999999999998 0  5 -0.2000000000000002 0  5 -0.09999999999999964 0  5 0 0  5 0.09999999999999964 0  5 0.2000000000000002 0  5 0.2999999999999998 0  5 0.4000000000000004 0  5 0.5 0  5 0.5999999999999996 0  5 0.7000000000000002 0  5 0.7999999999999998 0  5 0.9000000000000004 0  5 1 0  5 1.1 0  5 1.2 0  5 1.3 0  5 1.4 0  5 1.5 0  5 1.6 0  5 1.7 0  5 1.8 0  5 1.9 0  5 2 0  5 2.1 0  5 2.2 0  5 2.3 0  5 2.4 0  5 2.5 0  5 2.6 0  5 2.7 0  5 2.8 0  5 2.9 0  5 3 0  5 3.1 0  5 3.199999999999999 0  5 3.300000000000001 0  5 3.4 0  5 3.5 0  5 3.6 0  5 3.699999999999999 0  5 3.800000000000001 0  5 3.9 0  5 4 0  5 4.1 0  5 4.199999999999999 0  5 4.300000000000001 0  5 4.4 0  5 4.5 0  5 4.6 0  5 4.699999999999999 0  5 4.800000000000001 0  5 4.9 0  4.9 5 0  4.8 5 0  4.7 5 0  4.6 5 0  4.5 5 0  4.4 5 0  4.3 5 0  4.2 5 0  4.1 5 0  4 5 0  3.9 5 0  3.8 5 0  3.7 5 0  3.6 5 0  3.5 5 0  3.4 5 0  3.3 5 0  3.2 5 0  3.1 5 0  3 5 0  2.9 5 0  2.8 5 0  2.7 5 0  2.6 5 0  2.5 5 0  2.4 5 0  2.3 5 0  2.2 5 0  2.1 5 0  2 5 0  1.9 5 0  1.8 5 0  1.7 5 0  1.6 5 0  1.5 5 0  1.4 5 0  1.3 5 0  1.2 5 0  1.1 5 0  1 5 0  0.9000000000000004 5 0  0.7999999999999998 5 0  0.7000000000000002 5 0  0.5999999999999996 5 0  0.5 5 0  0.4000000000000004 5 0  0.2999999999999998 5 0  0.2000000000000002 5 0  0.09999999999999964 5 0  0 5 0  -0.09999999999999964 5 0  -0.2000000000000002 5 0  -0.2999999999999998 5 0  -0.4000000000000004 5 0  -0.5 5 0  -0.5999999999999996 5 0  -0.7000000000000002 5 0  -0.7999999999999998 5 0  -0.9000000000000004 5 0  -1 5 0  -1.1 5 0  -1.2 5 0  -1.3 5 0  -1.4 5 0  -1.5 5 0  -1.6 5 0  -1.7 5 0  -1.8 5 0  -1.9 5 0  -2 5 0  -2.1 5 0  -2.2 5 0  -2.3 5 0  -2.4 5 0  -2.5 5 0  -2.6 5 0  -2.7 5 0  -2.8 5 0  -2.9 5 0  -3 5 0  -3.1 5 0  -3.199999999999999 5 0  -3.300000000000001 5 0  -3.4 5 0  -3.5 5 0  -3.6 5 0  -3.699999999999999 5 0  -3.800000000000001 5 0  -3.9 5 0  -4 5 0  -4.1 5 0  -4.199999999999999 5 0  -4.300000000000001 5 0  -4.4 5 0  -4.5 5 0  -4.6 5 0  -4.699999999999999 5 0  -4.800000000000001 5 0  -4.9 5 0  -5 4.9 0  -5 4.8 0  -5 4.7 0  -5 4.6 0  -5 4.5 0  -5 4.4 0  -5 4.3 0  -5 4.2 0  -5 4.1 0  -5 4 0  -5 3.9 0  -5 3.8 0  -5 3.7 0  -5 3.6 0  -5 3.5 0  -5 3.4 0  -5 3.3 0  -5 3.2 0  -5 3.1 0  -5 3 0  -5 2.9 0  -5 2.8 0  -5 2.7 0  -5 2.6 0  -5 2.5 0  -5 2.4 0  -5 2.3 0  -5 2.2 0  -5 2.1 0  -5 2 0  -5 1.9 0  -5 1.8 0  -5 1.7 0  -5 1.6 0  -5 1.5 0  -5 1.4 0  -5 1.3 0  -5 1.2 0  -5 1.1 0  -5 1 0  -5 0.9000000000000004 0  -5 0.7999999999999998 0  -5 0.7000000000000002 0  -5 0.5999999999999996 0  -5 0.5 0  -5 0.4000000000000004 0  -5 0.2999999999999998 0  -5 0.2000000000000002 0  -5 0.09999999999999964 0  -5 0 0  -5 -0.09999999999999964 0  -5 -0.2000000000000002 0  -5 -0.2999999999999998 0  -5 -0.4000000000000004 0  -5 -0.5 0  -5 -0.5999999999999996 0  -5 -0.7000000000000002 0  -5 -0.7999999999999998 0  -5 -0.9000000000000004 0  -5 -1 0  -5 -1.1 0  -5 -1.2 0  -5 -1.3 0  -5 -1.4 0  -5 -1.5 0  -5 -1.6 0  -5 -1.7 0  -5 -1.8 0  -5 -1.9 0  -5 -2 0  -5 -2.1 0  -5 -2.2 0  -5 -2.3 0  -5 -2.4 0  -5 -2.5 0  -5 -2.6 0  -5 -2.7 0  -5 -2.8 0  -5 -2.9 0  -5 -3 0  -5 -3.1 0  -5 -3.199999999999999 0  -5 -3.300000000000001 0  -5 -3.4 0  -5 -3.5 0  -5 -3.6 0  -5 -3.699999999999999 0  -5 -3.800000000000001 0  -5 -3.9 0  -5 -4 0  -5 -4.1 0  -5 -4.199999999999999 0  -5 -4.300000000000001 0  -5 -4.4 0  -5 -4.5 0  -5 -4.6 0  -5 -4.699999999999999 0  -5 -4.800000000000001 0  -5 -4.9 0  1.024486353644486 0.09997395365562291 0  1.009151645374242 0.1989284652462016 0  0.9835793996742063 0.2959904926069808 0  0.9485872474801611 0.3898392165016195 0  0.9041221617328431 0.480120907432511 0  0.8507794413817242 0.5655233459068039 0  0.7888376100026107 0.645177461329646 0  0.7188327857376132 0.7183954305917886 0  0.6419224336030138 0.7845938303188444 0  0.5586490351414896 0.8430739280164389 0  0.4697142302642752 0.893001037452123 0  0.376030373915558 0.9341074946760889 0  0.2789528993760748 0.9660527215208857 0  0.1788591742185247 0.9881804823692114 0  0.07715045591651053 1.000661407866293 0  -0.02541975812192513 1.003174957150472 0  -0.1277529364229003 0.9956073390471832 0  -0.2288161843438918 0.9783886522206738 0  -0.3275663520790797 0.9513798840489394 0  -0.4230366652170375 0.9147975473136287 0  -0.5142643884862687 0.8692773423007203 0  -0.6004234623272231 0.8150157823943559 0  -0.6806287767050305 0.7527085182086775 0  -0.7540704682776234 0.682988333362465 0  -0.820061909454006 0.6062254203391569 0  -0.8777930775442159 0.5234822124365683 0  -0.9269963843264999 0.4356819502369715 0  -0.9668176149524832 0.3434179147038685 0  -0.9969789966281166 0.2478294461376409 0  -1.017349489590294 0.1497963375669712 0  -1.027624605459903 0.05018276797732159 0  -1.027631003974817 -0.04994928227369339 0  -1.017364921211328 -0.1495296679063359 0  -0.9973603128782615 -0.2475364741426307 0  -0.9668226929876067 -0.3432324083615051 0  -0.9270474295198502 -0.435361918548369 0  -0.877903651937608 -0.5232210689551161 0  -0.820184355002796 -0.6058845878944948 0  -0.7541775167283861 -0.6824926585812182 0  -0.6806116297921083 -0.7521815703707025 0  -0.6002791207209107 -0.8143402601159546 0  -0.5143544163113541 -0.8687765558038442 0  -0.4227952847063494 -0.9142667894668889 0  -0.3272979228096193 -0.950932220887583 0  -0.2284711857514534 -0.977993818371785 0  -0.1274571178957987 -0.9953241232284242 0  -0.02521768291516902 -1.003053398156372 0  0.07720597214921306 -1.00045483576628 0  0.1790814958360961 -0.987883413325542 0  0.279021201800137 -0.9657134612494342 0  0.3764384076771331 -0.9337749161096537 0  0.4698265534939884 -0.8926778625545765 0  0.5587651484908537 -0.8427586811005623 0  0.6420078077522506 -0.7846308943963864 0  0.718909122147532 -0.7184560764841317 0  0.7887462589300817 -0.6450531798909165 0  0.8506279580030992 -0.5652725253848582 0  0.9042217029779658 -0.4799542015618383 0  0.9489156192467352 -0.3898374922005715 0  0.983839548179872 -0.295900871518121 0  1.009170253157432 -0.1988087698809254 0  1.024508773297163 -0.09992832510051794 0  -2.449765287209145 4.920343358193425 0  -2.449746090327698 -4.912923139669407 0  4.912904747072484 2.449646520331981 0  4.920801297564274 -2.450949284343869 0  2.447690099827566 -4.898579327891947 0  2.442074115776887 4.902249008793525 0  -4.91291120083975 -2.449653712998925 0  -4.912914781895544 2.449657228753833 0  -1.749756019698844 4.91420363777947 0  -1.745488447433369 -4.917516416320454 0  4.923729848441074 1.745651969344404 0  4.912702243027591 -1.749644774870286 0  -4.91295703995754 -1.749351950273452 0  -4.913754450715299 1.74907782486988 0  1.747105393572403 4.908298015229238 0  1.748676634763476 -4.896862169689104 0  -1.149811529676311 4.912651931101011 0  -1.130569503695159 -4.920237665422278 0  -4.913551234800232 -1.149361756888188 0  -4.913384093412926 1.149159969381144 0  1.144742398451777 -4.916586014381833 0  1.149809627527451 4.912649982225188 0  4.913727607426596 1.147648322385233 0  4.924024991205568 -1.153263708118152 0  -0.5471732739591413 -4.914165472605175 0  -0.5469069764424443 4.922462387125809 0  -4.912987286899527 -0.5495047585286069 0  -4.913014098784799 0.5480535001474522 0  4.912391304949415 -0.5498384782398767 0  4.923405352215045 0.5464868345716425 0  0.5430032485745532 -4.901658757268006 0  0.5516438216079754 4.919435021801538 0  -4.913540681811723 -3.049713193437835 0  4.920002138928132 3.047638283071581 0  4.913067240041612 -3.049712094065708 0  -4.9143808370161 3.04679337401298 0  3.056364120268495 -4.919006579252731 0  -3.049774460366128 -4.913053862103111 0  3.053317803788701 4.915102772494567 0  -3.049213524967833 4.913930508982283 0  -4.912358590236311 -0.04998725269224885 0  0.04515071788207168 -4.916145499322085 0  0.0496022840800943 4.922851151474589 0  4.919056097672286 -0.05136433939828292 0  3.546463433302681 -4.920165512805325 0  -3.549817
[...]
<PointData  Scalars="f_27"> 
<DataArray  type="Float64"  Name="f_27"  format="ascii">0.0000000000000000e+00  0.0000000000000000e+00  0.0000000000000000e+00  0.0000000000000000e+00  5.3139608862708898e-01  0.0000000000000000e+00  0.0000000000000000e+00  0.0000000000000000e+00  0.0000000000000000e+00  0.0000000000000000e+00  0.0000000000000000e+00  0.0000000000000000e+00  0.0000000000000000e+00  0.0000000000000000e+00  0.0000000000000000e+00  0.0000000000000000e+00  0.0000000000000000e+00  0.0000000000000000e+00  0.0000000000000000e+00  0.0000000000000000e+00  0.0000000000000000e+00  0.0000000000000000e+00  0.0000000000000000e+00  0.0000000000000000e+00  0.0000000000000000e+00  0.0000000000000000e+00  0.0000000000000000e+00  0.0000000000000000e+00  0.0000000000000000e+00  0.0000000000000000e+00  0.0000000000000000e+00  0.0000000000000000e+00  0.0000000000000000e+00  0.0000000000000000e+00  0.0000000000000000e+00  0.0000000000000000e+00  0.0000000000000000e+00  0.0000000000000000e+00  0.0000000000000000e+00  0.0000000000000000e+00  0.0000000000000000e+00  0.0000000000000000e+00  0.0000000000000000e+00  0.0000000000000000e+00  0.0000000000000000e+00  0.0000000000000000e+00  0.0000000000000000e+00  0.0000000000000000e+00  0.0000000000000000e+00  0.0000000000000000e+00  0.0000000000000000e+00  0.0000000000000000e+00  0.0000000000000000e+00  0.0000000000000000e+00  0.0000000000000000e+00  0.0000000000000000e+00  0.0000000000000000e+00  0.0000000000000000e+00  0.0000000000000000e+00  0.0000000000000000e+00  0.0000000000000000e+00  0.0000000000000000e+00  0.0000000000000000e+00  0.0000000000000000e+00  0.0000000000000000e+00  0.0000000000000000e+00  0.0000000000000000e+00  0.0000000000000000e+00  0.0000000000000000e+00  0.0000000000000000e+00  0.0000000000000000e+00  0.0000000000000000e+00  0.0000000000000000e+00  0.0000000000000000e+00  0.0000000000000000e+00  0.0000000000000000e+00  0.0000000000000000e+00  0.0000000000000000e+00  0.0000000000000000e+00  0.0000000000000000e+00  0.0000000000000000e+00  0.0000000000000000e+00  0.0000000000000000e+00  0.0000000000000000e+00  0.0000000000000000e+00  0.0000000000000000e+00  0.0000000000000000e+00  0.0000000000000000e+00  0.0000000000000000e+00  0.0000000000000000e+00  0.0000000000000000e+00  0.0000000000000000e+00  0.0000000000000000e+00  0.0000000000000000e+00  0.0000000000000000e+00  0.0000000000000000e+00  0.0000000000000000e+00  0.0000000000000000e+00  0.0000000000000000e+00  0.0000000000000000e+00  0.0000000000000000e+00  0.0000000000000000e+00  0.0000000000000000e+00  0.0000000000000000e+00  0.0000000000000000e+00  0.0000000000000000e+00  0.0000000000000000e+00  0.0000000000000000e+00  0.0000000000000000e+00  0.0000000000000000e+00  0.0000000000000000e+00  0.0000000000000000e+00  0.0000000000000000e+00  0.0000000000000000e+00  0.0000000000000000e+00  0.0000000000000000e+00  0.0000000000000000e+00  0.0000000000000000e+00  0.0000000000000000e+00  0.0000000000000000e+00  0.0000000000000000e+00  0.0000000000000000e+00  0.0000000000000000e+00  0.0000000000000000e+00  0.0000000000000000e+00  0.0000000000000000e+00  0.0000000000000000e+00  0.0000000000000000e+00  0.0000000000000000e+00  0.0000000000000000e+00  0.0000000000000000e+00  0.0000000000000000e+00  0.0000000000000000e+00  0.0000000000000000e+00  0.0000000000000000e+00  0.0000000000000000e+00  0.0000000000000000e+00  0.0000000000000000e+00  0.0000000000000000e+00  0.0000000000000000e+00  0.0000000000000000e+00  0.0000000000000000e+00  0.0000000000000000e+00  0.0000000000000000e+00  0.0000000000000000e+00  0.0000000000000000e+00  0.0000000000000000e+00  0.0000000000000000e+00  0.0000000000000000e+00  0.0000000000000000e+00  0.0000000000000000e+00  0.0000000000000000e+00  0.0000000000000000e+00  0.0000000000000000e+00  0.0000000000000000e+00  0.0000000000000000e+00  0.0000000000000000e+00  0.0000000000000000e+00  0.0000000000000000e+00  0.0000000000000000e+00  0.0000000000000000e+00  0.0000000000000000e+00  0.0000000000000000e+00  0.0000000000000000e+00  0.0000000000000000e+00  0.0000000000000000e+00  0.0000000000000000e+00  0.0000000000000000e+00  0.0000000000000000e+00  0.0000000000000000e+00  0.0000000000000000e+00  0.0000000000000000e+00  0.0000000000000000e+00  0.0000000000000000e+00  0.0000000000000000e+00  0.0000000000000000e+00  0.0000000000000000e+00  0.0000000000000000e+00  0.0000000000000000e+00  0.0000000000000000e+00  0.0000000000000000e+00  0.0000000000000000e+00  0.0000000000000000e+00  0.0000000000000000e+00  0.0000000000000000e+00  0.0000000000000000e+00  0.0000000000000000e+00  0.0000000000000000e+00  0.0000000000000000e+00  0.0000000000000000e+00  0.0000000000000000e+00  0.0000000000000000e+00  0.0000000000000000e+00  0.0000000000000000e+00  0.0000000000000000e+00  0.0000000000000000e+00  0.0000000000000000e+00  0.0000000000000000e+00  0.0000000000000000e+00  0.0000000000000000e+00  0.0000000000000000e+00  0.0000000000000000e+00  0.0000000000000000e+00  0.0000000000000000e+00  0.0000000000000000e+00  0.0000000000000000e+00  0.0000000000000000e+00  0.0000000000000000e+00  0.0000000000000000e+00  0.0000000000000000e+00  0.0000000000000000e+00  0.0000000000000000e+00  0.0000000000000000e+00  0.0000000000000000e+00  0.0000000000000000e+00  0.0000000000000000e+00  0.0000000000000000e+00  0.0000000000000000e+00  0.0000000000000000e+00  0.0000000000000000e+00  0.0000000000000000e+00  0.0000000000000000e+00  0.0000000000000000e+00  0.0000000000000000e+00  0.0000000000000000e+00  0.0000000000000000e+00  0.0000000000000000e+00  0.0000000000000000e+00  0.0000000000000000e+00  0.0000000000000000e+00  0.0000000000000000e+00  0.0000000000000000e+00  0.0000000000000000e+00  0.0000000000000000e+00  0.0000000000000000e+00  0.0000000000000000e+00  0.0000000000000000e+00  0.0000000000000000e+00  0.0000000000000000e+00  0.0000000000000000e+00  0.0000000000000000e+00  0.0000000000000000e+00  0.0000000000000000e+00  0.0000000000000000e+00  0.0000000000000000e+00  0.0000000000000000e+00  0.0000000000000000e+00  0.0000000000000000e+00  0.0000000000000000e+00  0.0000000000000000e+00  0.0000000000000000e+00  0.0000000000000000e+00  0.0000000000000000e+00  0.0000000000000000e+00  0.0000000000000000e+00  0.0000000000000000e+00  0.0000000000000000e+00  0.0000000000000000e+00  0.0000000000000000e+00  0.0000000000000000e+00  0.0000000000000000e+00  0.0000000000000000e+00  0.0000000000000000e+00  0.0000000000000000e+00  0.0000000000000000e+00  0.0000000000000000e+00  0.0000000000000000e+00  0.0000000000000000e+00  0.0000000000000000e+00  0.0000000000000000e+00  0.0000000000000000e+00  0.0000000000000000e+00  0.0000000000000000e+00  0.0000000000000000e+00  0.0000000000000000e+00  0.0000000000000000e+00  0.0000000000000000e+00  0.0000000000000000e+00  0.0000000000000000e+00  0.0000000000000000e+00  0.0000000000000000e+00  0.0000000000000000e+00  0.0000000000000000e+00  0.0000000000000000e+00  0.0000000000000000e+00  0.0000000000000000e+00  0.0000000000000000e+00  0.0000000000000000e+00  0.0000000000000000e+00  0.0000000000000000e+00  0.0000000000000000e+00  0.0000000000000000e+00  0.0000000000000000e+00  0.0000000000000000e+00  0.0000000000000000e+00  0.0000000000000000e+00  0.0000000000000000e+00  0.0000000000000000e+00  0.0000000000000000e+00  0.0000000000000000e+00  0.0000000000000000e+00  0.0000000000000000e+00  0.0000000000000000e+00  0.0000000000000000e+00  0.0000000000000000e+00  0.0000000000000000e+00  0.0000000000000000e+00  0.0000000000000000e+00  0.0000000000000000e+00  0.0000000000000000e+00  0.0000000000000000e+00  0.0000000000000000e+00  0.0000000000000000e+00  0.0000000000000000e+00  0.0000000000000000e+00  0.0000000000000000e+00  0.0000000000000000e+00  0.0000000000000000e+00  0.0000000000000000e+00  0.0000000000000000e+00  0.0000000000000000e+00  0.0000000000000000e+00  0.0000000000000000e+00  0.0000000000000000e+00  0.0000000000000000e+00  0.0000000000000000e+00  0.0000000000000000e+00  0.0000000000000000e+00  0.0000000000000000e+00  0.0000000000000000e+00  0.0000000000000000e+00  0.0000000000000000e+00  0.0000000000000000e+00  0.0000000000000000e+00  0.0000000000000000e+00  0.0000000000000000e+00  0.0000000000000000e+00  0.0000000000000000e+00  0.0000000000000000e+00  0.0000000000000000e+00  0.0000000000000000e+00  0.0000000000000000e+00  0.0000000000000000e+00  0.0000000000000000e+00  0.0000000000000000e+00  0.0000000000000000e+00  0.0000000000000000e+00  0.0000000000000000e+00  0.0000000000000000e+00  0.0000000000000000e+00  0.0000000000000000e+00  0.0000000000000000e+00  0.0000000000000000e+00  0.0000000000000000e+00  0.0000000000000000e+00  0.0000000000000000e+00  0.0000000000000000e+00  0.0000000000000000e+00  0.0000000000000000e+00  0.0000000000000000e+00  0.0000000000000000e+00  0.0000000000000000e+00  0.0000000000000000e+00  0.0000000000000000e+00  0.0000000000000000e+00  0.0000000000000000e+00  0.0000000000000000e+00  0.0000000000000000e+00  0.0000000000000000e+00  0.0000000000000000e+00  0.0000000000000000e+00  0.0000000000000000e+00  0.0000000000000000e+00  0.0000000000000000e+00  0.0000000000000000e+00  0.0000000000000000e+00  0.0000000000000000e+00  0.0000000000000000e+00  0.0000000000000000e+00  0.0000000000000000e+00  0.0000000000000000e+00  0.0000000000000000e+00  0.0000000000000000e+00  0.0000000000000000e+00  0.0000000000000000e+00  0.0000000000000000e+00  0.0000000000000000e+00  0.0000000000000000e+00  0.0000000000000000e+00  0.0000000000000000e+00  0.0000000000000000e+00  0.0000000000000000e+00  0.0000000000000000e+00  0.0000000000000000e+00  0.0000000000000000e+00  0.0000000000000000e+00  0.0000000000000000e+00  0.0000000000000000e+00  0.0000000000000000e+00  0.0000000000000000e+00  0.0000000000000000e+00  5.2042751645533514e-01  5.3432539362509279e-01  6.1916369373783642e-01  6.1358507072806157e-01  5.5947544978207453e-01  4.8034711513423023e-01  4.9348232581046719e-01  5.8054160796618570e-01  5.4572556347771450e-01  4.7101012741077264e-01  4.9884031441896559e-01  5.1958113758624325e-01  4.4978832724906792e-01  5.4469099156912093e-01  5.3714759345120788e-01  5.4676261581939412e-01  5.9394560272393837e-01  5.2609349113785886e-01  5.0820567076535039e-01  5.5126400923487751e-01  5.2904767424499111e-01  5.4165949779770828e-01  5.2903566232897947e-01  4.9471106147134958e-01  5.3144530004457458e-01  5.7459316316151376e-01  5.2175212234028667e-01  5.4843431674947796e-01  5.9603127703663450e-01  5.7128636343734385e-01  5.4454263624016230e-01  5.3960092481665922e-01  5.6093350423983879e-01  4.4794384908595619e-01  5.5059980527707086e-01  5.1728128656313488e-01  5.4647078216655942e-01  4.9696392171102249e-01  4.9774213865426603e-01  5.4905716041278441e-01  6.2572244111241526e-01  4.7628780653100206e-01  5.5548353378701854e-01  4.9869356934268627e-01  5.1283437673188736e-01  5.3969924940280967e-01  4.1374073199740874e-01  4.6796796857100148e-01  5.2657975421758729e-01  5.0588047331777897e-01  5.4190982142711197e-01  5.7342804009787662e-01  5.4130449674866377e-01  4.8793016284561042e-01  5.2106537907473893e-01  5.3652627990922241e-01  5.7499786125905383e-01  5.3351596680639179e-01  4.4949841328154416e-01  5.1514167303538683e-01  5.2637944618255450e-01  5.0499297880546223e-01  -2.2458036716594408e-31  1.5397520526670297e-31  3.2169184817448496e-34  5.2884510645114162e-34  2.7812952125470053e-31  3.4396205823212926e-31  -4.7961763636480756e-36  -6.6605949692679246e-35  -3.3931253361494858e-31  -1.1250062267371907e-31  7.5548253263712918e-32  9.9492843976354268e-32  5.5221602587719077e-32  6.2910018041621565e-32  3.2588975271562367e-30  1.7072465476405695e-30  -5.6224565101259034e-30  3.2270634331644287e-31  -8.1622652518762876e-30  -1.1246762953518385e-29  -1.8491123799146721e-30  -2.0695578041120877e-30  -5.7057060833443670e-30  -6.2803479722675055e-30  -3.8384230461934286e-30  -3.2564394574568416e-30  -1.2693082298785575e-28  -3.3363352937012464e-30  -4.3790673752737084e-29  -2.5908669291230667e-28  8.2136990862662232e-30  -2.2620338290430347e-30  -4.9236319733154879e-36  3.4463122140285533e-36  2.6501679684265002e-36  -5.0616732186652051e-36  4.8928493546478545e-33  3.6718696499485608e-33  2.9252976942245925e-33  3.1691750270221899e-33  -1.1290661466515901e-27  1.1070394550357143e-29  -2.9154678971524108e-31  1.8415664514025612e-27  1.1381486630610337e-35  6.7848094291227119e-36  1.4656975556138788e-35  -4.6208718929070586e-38  4.9979206939449913e-39  -4.8938198032879782e-38  1.9923151714275899e-38  -3.1444279677051386e-36  8.6426768374838092e-40  -1.7982195345551875e-37  -4.5362382557426971e-38  -1.5468697833225242e-39  -1.9002931836217244e-37  1.3508256709683110e-39  -1.0609390282557671e-37  -2.1385816062442453e-39  -4.1546408616903317e-40  -5.5497270454452151e-40  -4.3536599465814461e-40  -1.5173805420845833e-41  -4.9592147503310438e-43  4.8542458010882807e-41  6.4825733079285011e-41  -5.7812339954294982e-40  1.8561853112902076e-27  2.1418204531152342e-30  -1.4961570216311744e-30  1.6524000411973235e-27  3.6507457608789386e-30  1.6407705370823377e-30  9.7102964668373121e-30  1.0726314406882812e-29  1.7924490806844590e-30  1.6708405605693728e-30  -1.2390187357646098e-30  -9.9813624191184067e-30  -1.7408680402556318e-30  -4.8744069322284849e-31  3.3084641225819718e-29  5.9584981125409984e-29  -3.3494175457648248e-31  1.7589811330860922e-30  -1.6053999667088763e-30  7.3422336642399568e-31  -2.2860177357198888e-30  -1.5347667184222187e-30  -1.7227201100067304e-32  -1.6670980908700256e-32  -4.4656745039754962e-31  -5.0108543351467391e-31  9.3798797272097044e-33  9.0416424059268366e-33  4.2648705074273318e-35  -1.5639088851578861e-32  2.7961146023878666e-32  -4.5157891188382155e-35  1.0139612771028403e-32  -4.2835036292717830e-35  4.0852552262033158e-35  4.1380149569756413e-32  2.4054513835524133e-42  8.5819042644733606e-42  -1.8060688550656253e-42  -3.9517394317603416e-42  -8.5349040120611980e-43  -2.5812862670779263e-42  4.0392168701338686e-42  2.9047059015901622e-42  3.9119371021680948e-28  1.6619225963148774e-29  4.3966536700332271e-30  1.8106721729102599e-27  7.3836789560773775e-32  -2.1015324682649184e-33  -2.3853043329936047e-33  -2.2362179408065281e-31  2.3043257763914194e-33  1.9414873919952348e-31  3.3146483885475404e-31  2.2619648987900896e-33  -6.6620693287929892e-37  -1.0717890040524560e-33  -4.7528468788365598e-34  3.4644710811107114e-38  -5.5846576480500561e-37  -1.7999337144511882e-35  -6.8677127939211966e-34  1.9431103107202026e-37  3.7855965321571299e-39  -2.1373150492100973e-40  -1.8472987536658547e-36  -3.6714828299960912e-39  -8.0727522680103869e-37  -3.1848079695466215e-39  1.0585061247944920e-38  -1.0552468844073217e-40  -9.1509859790876761e-37  -4.9512996801611121e-39  1.4701615293575924e-40  -1.9197666947831491e-40  1.0262404845963751e-38  -4.2310375327401811e-41  -5.0175513899279593e-37  -4.7526369466594276e-39  -8.9162698148236449e-43  3.9822444642369768e-43  -6.2785833038450941e-43  -1.4029706891663581e-42  -4.6334843859765626e-28  -5.2386780159935526e-29  -2.4652920151831028e-27  6.1738734749622478e-27  9.6578294535148208e-27  -3.5524777196806212e-26  -2.8287345243793039e-26  1.3655293830548294e-25  5.6933969129865184e-26  -3.9432971350430742e-25  -2.2539084556398116e-26  7.6921868362624979e-25  -4.5614721246541583e-25  -1.9596878720141707e-25  2.7351217374558768e-24  -6.7931670118041401e-24  -1.0343439682716972e-23  3.9131477230242214e-23  2.9309897046305910e-23  -1.4519997122480363e-22  -5.9219599926076359e-23  -1.0081039341907410e-22  4.0521937153316525e-22  4.5719999831942469e-23  -7.9467367887600672e-22  2.6385487359205070e-22  4.6371237562860213e-22  -1.5259562195945386e-21  4.1419118965374451e-21  4.5561814540814225e-21  -2.1923676476024442e-20  -7.4206797974530702e-21  4.0767504270073321e-21  6.2223268648588871e-20  -4.8732054309263413e-21  -8.6674531051995709e-20  7.3571891350602557e-20  -1.2942279243986535e-19  -2.2961676313285512e-19  1.1188344347452168e-18  2.5706545247780424e-19  -2.9551910103062960e-18  7.7255656674640807e-19  -2.7189836187638662e-18  1.7710397443404922e-18  -4.0331940862699874e-18  1.4884853436929086e-17  6.0195441645405632e-18  1.8536329731205388e-19  -4.2485853157257526e-18  1.0358771423179474e-17  8.4133780484941628e-18  -2.3571160810060336e-19  -4.1992936444292203e-18  8.7356982610863651e-19  -2.9539042692942645e-19  8.6202272005292222e-18  -4.1314680348075485e-18  8.2409431866945965e-19  1.6079937140164068e-20  -2.3764813470321090e-19  6.4770465629646616e-19  -3.8622440485785239e-18  4.9608143198932973e-19  -2.5353843129104665e-19  3.6075673904498655e-19  -3.0096653096499587e-18  8.1682699220815263e-19  -2.2069077912636630e-19  6.1113377956883711e-20  -1.6603279030667585e-18  7.9106863974678576e-19  -2.4334379742564365e-18  4.4881086023041712e-20  -4.4224837007878525e-19  7.1330115062841787e-18  -3.2865214820640580e-18  1.0199873288735134e-17  1.5803544884093485e-18  -3.5294394745481468e-17  2.1021503358039164e-17  -1.1408069663540349e-16  -2.7850026264543713e-18  3.2763152101877987e-17  -7.8345255507159253e-17  -1.1727841120782674e-17  2.2375802077942758e-16  -1.1945285770919285e-16  6.3801182206018239e-16  -1.9559206812221575e-16  6.8950892872606777e-16  -1.2810779628952526e-16  1.7716006068167999e-16  3.6948010218219303e-17  -3.6805568177711819e-16  4.8077053232056034e-17  1.3117320026036696e-17  -1.4243698960827794e-01  1.0982952900494337e-16  -2.9103866784148589e-16  8.0890352809602552e-18  2.6324144353986501e-16  -1.6215868759979996e-01  -1.2866057893193023e-16  5.8673703526463837e-16  -1.4295068443553915e-01  -1.4519515944215965e-16  4.0436897671401995e-16  -2.0471742324170861e-15  -8.2351916504077688e-16  6.5011404514812162e-17  1.7362717429390829e-16  -2.7800625244387763e-15  4.0978247061288126e-17  -9.3671940279527547e-17  3.6126124557040200e-16  -1.3215690886901549e-15  -1.0135161432016202e-15  1.6362031244839095e-16  -2.3925811862105724e-16  2.1782912047182255e-15  1.4025822078916421e-17  8.8778507734366515e-17  -3.2872915281894733e-16  1.3227018992161515e-15  4.5932377345931969e-16  4.5609370460913584e-17  -5.1800985635120892e-16  1.1983722588872290e-15  1.3766367674777833e-15  -7.8532057762857984e-17  -6.4184421681748664e-16  8.3928503881468749e-17  2.5790855121924778e-15  -2.8983271634775113e-16  -6.0118828260699353e-16  -1.9516890425731926e-15  3.5002759544873809e-15  -1.4332006752438789e-14  -3.0240183407706288e-15  -6.2430036449274453e-16  3.9680645862687021e-15  -1.6980860218037614e-14  -1.7855850771387861e-15  -8.8259263863055899e-16  3.6695523033581614e-15  -1.9409557310042446e-14  1.6632757078279875e-15  2.1453222732736266e-14  -1.6613248335327536e-14  7.4343592972573078e-14  -4.4011946142232939e-15  4.4474454981588745e-15  -6.7263260188193589e-15  4.7579542397114156e-14  -1.0614590592488200e-14  -3.7621016266099553e-15  2.4481408555452598e-14  -1.6410465046749751e-13  4.4315891394406391e-14  -6.3590833856154393e-14  -4.7848648812369872e-14  -3.2466291966278656e-15  3.5273188195816315e-14  -2.1877398407721083e-13  7.7510983269382338e-14  -3.4013505433963948e-13  9.8391571659887043e-14  -3.8212452638248803e-13  1.0627665763933761e-13  -4.1310287930573067e-13  1.1711547407978941e-13  -4.6128921207217617e-13  1.2960308467519322e-13  -4.9345259346474847e-13  1.2939638783385847e-13  -4.4346343686396554e-13  9.8241234265451882e-14  -2.6298493704920926e-13  3.8883572012038151e-14  -3.5395809012690661e-14  -1.0982842252123292e-14  8.0456573569072276e-14  -2.0692196698382264e-14  5.0887244681586799e-14  -5.4625990555640279e-15  -4.5103772514468934e-15  3.7856081640297917e-15  -1.1909466974167051e-16  -4.5197401916968050e-16  2.2152563571916413e-16  5.5198890790874952e-18  -5.9084086815102427e-17  1.3960619709385253e-17  8.8505807244576695e-18  -4.2322911370088574e-18  -3.2796538686372885e-19  -4.4203310576771481e-18  7.1702281537015365e-19  -2.7553526782979653e-14  1.3036967943971589e-18  -2.7071201869094738e-18  1.1106693155314274e-19  1.2392934084497175e-18  -3.4694969280611435e-19  6.1222018024988966e-19  -5.3814417446565207e-21