<?xml version="1.0"?>
<VTKFile type="UnstructuredGrid"  version="0.1"  >
<UnstructuredGrid>
<Piece  NumberOfPoints="11902" NumberOfCells="23402">
<Points>
<DataArray  type="Float64"  NumberOfComponents="3"  format="ascii">-5 -5 0  5 -5 0  5 5 0  -5 5 0  1.114558233322134 0.0007677048187864728 0  -4.9 -5 0  -4.8 -5 0  -4.7 -5 0  -4.6 -5 0  -4.5 -5 0  -4.4 -5 0  -4.3 -5 0  -4.2 -5 0  -4.1 -5 0  -4 -5 0  -3.9 -5 0  -3.8 -5 0  -3.7 -5 0  -3.6 -5 0  -3.5 -5 0  -3.4 -5 0  -3.3 -5 0  -3.2 -5 0  -3.1 -5 0  -3 -5 0  -2.9 -5 0  -2.8 -5 0  -2.7 -5 0  -2.6 -5 0  -2.5 -5 0  -2.4 -5 0  -2.3 -5 0  -2.2 -5 0  -2.1 -5 0  -2 -5 0  -1.9 -5 0  -1.8 -5 0  -1.7 -5 0  -1.6 -5 0  -1.5 -5 0  -1.4 -5 0  -1.3 -5 0  -1.2 -5 0  -1.1 -5 0  -1 -5 0  -0.9000000000000004 -5 0  -0.7999999999999998 -5 0  -0.7000000000000002 -5 0  -0.5999999999999996 -5 0  -0.5 -5 0  -0.4000000000000004 -5 0  -0.2999999999999998 -5 0  -0.2000000000000002 -5 0  -0.09999999999999964 -5 0  0 -5 0  0.09999999999999964 -5 0  0.2000000000000002 -5 0  0.2999999999999998 -5 0  0.4000000000000004 -5 0  0.5 -5 0  0.5999999999999996 -5 0  0.7000000000000002 -5 0  0.7999999999999998 -5 0  0.9000000000000004 -5 0  1 -5 0  1.1 -5 0  1.2 -5 0  1.3 -5 0  1.4 -5 0  1.5 -5 0  1.6 -5 0  1.7 -5 0  1.8 -5 0  1.9 -5 0  2 -5 0  2.1 -5 0  2.2 -5 0  2.3 -5 0  2.4 -5 0  2.5 -5 0  2.6 -5 0  2.7 -5 0  2.8 -5 0  2.9 -5 0  3 -5 0  3.1 -5 0  3.199999999999999 -5 0  3.300000000000001 -5 0  3.4 -5 0  3.5 -5 0  3.6 -5 0  3.699999999999999 -5 0  3.800000000000001 -5 0  3.9 -5 0  4 -5 0  4.1 -5 0  4.199999999999999 -5 0  4.300000000000001 -5 0  4.4 -5 0  4.5 -5 0  4.6 -5 0  4.699999999999999 -5 0  4.800000000000001 -5 0  4.9 -5 0  5 -4.9 0  5 -4.8 0  5 -4.7 0  5 -4.6 0  5 -4.5 0  5 -4.4 0  5 -4.3 0  5 -4.2 0  5 -4.1 0  5 -4 0  5 -3.9 0  5 -3.8 0  5 -3.7 0  5 -3.6 0  5 -3.5 0  5 -3.4 0  5 -3.3 0  5 -3.2 0  5 -3.1 0  5 -3 0  5 -2.9 0  5 -2.8 0  5 -2.7 0  5 -2.6 0  5 -2.5 0  5 -2.4 0  5 -2.3 0  5 -2.2 0  5 -2.1 0  5 -2 0  5 -1.9 0  5 -1.8 0  5 -1.7 0  5 -1.6 0  5 -1.5 0  5 -1.4 0  5 -1.3 0  5 -1.2 0  5 -1.1 0  5 -1 0  5 -0.9000000000000004 0  5 -0.7999999999999998 0  5 -0.7000000000000002 0  5 -0.5999999999999996 0  5 -0.5 0  5 -0.4000000000000004 0  5 -0.2999999999999998 0  5 -0.2000000000000002 0  5 -0.09999999999999964 0  5 0 0  5 0.09999999999999964 0  5 0.2000000000000002 0  5 0.2999999999999998 0  5 0.4000000000000004 0  5 0.5 0  5 0.5999999999999996 0  5 0.7000000000000002 0  5 0.7999999999999998 0  5 0.9000000000000004 0  5 1 0  5 1.1 0  5 1.2 0  5 1.3 0  5 1.4 0  5 1.5 0  5 1.6 0  5 1.7 0  5 1.8 0  5 1.9 0  5 2 0  5 2.1 0  5 2.2 0  5 2.3 0  5 2.4 0  5 2.5 0  5 2.6 0  5 2.7 0  5 2.8 0  5 2.9 0  5 3 0  5 3.1 0  5 3.199999999999999 0  5 3.300000000000001 0  5 3.4 0  5 3.5 0  5 3.6 0  5 3.699999999999999 0  5 3.800000000000001 0  5 3.9 0  5 4 0  5 4.1 0  5 4.199999999999999 0  5 4.300000000000001 0  5 4.4 0  5 4.5 0  5 4.6 0  5 4.699999999999999 0  5 4.800000000000001 0  5 4.9 0  4.9 5 0  4.8 5 0  4.7 5 0  4.6 5 0  4.5 5 0  4.4 5 0  4.3 5 0  4.2 5 0  4.1 5 0  4 5 0  3.9 5 0  3.8 5 0  3.7 5 0  3.6 5 0  3.5 5 0  3.4 5 0  3.3 5 0  3.2 5 0  3.1 5 0  3 5 0  2.9 5 0  2.8 5 0  2.7 5 0  2.6 5 0  2.5 5 0  2.4 5 0  2.3 5 0  2.2 5 0  2.1 5 0  2 5 0  1.9 5 0  1.8 5 0  1.7 5 0  1.6 5 0  1.5 5 0  1.4 5 0  1.3 5 0  1.2 5 0  1.1 5 0  1 5 0  0.9000000000000004 5 0  0.7999999999999998 5 0  0.7000000000000002 5 0  0.5999999999999996 5 0  0.5 5 0  0.4000000000000004 5 0  0.2999999999999998 5 0  0.2000000000000002 5 0  0.09999999999999964 5 0  0 5 0  -0.09999999999999964 5 0  -0.2000000000000002 5 0  -0.2999999999999998 5 0  -0.4000000000000004 5 0  -0.5 5 0  -0.5999999999999996 5 0  -0.7000000000000002 5 0  -0.7999999999999998 5 0  -0.9000000000000004 5 0  -1 5 0  -1.1 5 0  -1.2 5 0  -1.3 5 0  -1.4 5 0  -1.5 5 0  -1.6 5 0  -1.7 5 0  -1.8 5 0  -1.9 5 0  -2 5 0  -2.1 5 0  -2.2 5 0  -2.3 5 0  -2.4 5 0  -2.5 5 0  -2.6 5 0  -2.7 5 0  -2.8 5 0  -2.9 5 0  -3 5 0  -3.1 5 0  -3.199999999999999 5 0  -3.300000000000001 5 0  -3.4 5 0  -3.5 5 0  -3.6 5 0  -3.699999999999999 5 0  -3.800000000000001 5 0  -3.9 5 0  -4 5 0  -4.1 5 0  -4.199999999999999 5 0  -4.300000000000001 5 0  -4.4 5 0  -4.5 5 0  -4.6 5 0  -4.699999999999999 5 0  -4.800000000000001 5 0  -4.9 5 0  -5 4.9 0  -5 4.8 0  -5 4.7 0  -5 4.6 0  -5 4.5 0  -5 4.4 0  -5 4.3 0  -5 4.2 0  -5 4.1 0  -5 4 0  -5 3.9 0  -5 3.8 0  -5 3.7 0  -5 3.6 0  -5 3.5 0  -5 3.4 0  -5 3.3 0  -5 3.2 0  -5 3.1 0  -5 3 0  -5 2.9 0  -5 2.8 0  -5 2.7 0  -5 2.6 0  -5 2.5 0  -5 2.4 0  -5 2.3 0  -5 2.2 0  -5 2.1 0  -5 2 0  -5 1.9 0  -5 1.8 0  -5 1.7 0  -5 1.6 0  -5 1.5 0  -5 1.4 0  -5 1.3 0  -5 1.2 0  -5 1.1 0  -5 1 0  -5 0.9000000000000004 0  -5 0.7999999999999998 0  -5 0.7000000000000002 0  -5 0.5999999999999996 0  -5 0.5 0  -5 0.4000000000000004 0  -5 0.2999999999999998 0  -5 0.2000000000000002 0  -5 0.09999999999999964 0  -5 0 0  -5 -0.09999999999999964 0  -5 -0.2000000000000002 0  -5 -0.2999999999999998 0  -5 -0.4000000000000004 0  -5 -0.5 0  -5 -0.5999999999999996 0  -5 -0.7000000000000002 0  -5 -0.7999999999999998 0  -5 -0.9000000000000004 0  -5 -1 0  -5 -1.1 0  -5 -1.2 0  -5 -1.3 0  -5 -1.4 0  -5 -1.5 0  -5 -1.6 0  -5 -1.7 0  -5 -1.8 0  -5 -1.9 0  -5 -2 0  -5 -2.1 0  -5 -2.2 0  -5 -2.3 0  -5 -2.4 0  -5 -2.5 0  -5 -2.6 0  -5 -2.7 0  -5 -2.8 0  -5 -2.9 0  -5 -3 0  -5 -3.1 0  -5 -3.199999999999999 0  -5 -3.300000000000001 0  -5 -3.4 0  -5 -3.5 0  -5 -3.6 0  -5 -3.699999999999999 0  -5 -3.800000000000001 0  -5 -3.9 0  -5 -4 0  -5 -4.1 0  -5 -4.199999999999999 0  -5 -4.300000000000001 0  -5 -4.4 0  -5 -4.5 0  -5 -4.6 0  -5 -4.699999999999999 0  -5 -4.800000000000001 0  -5 -4.9 0  1.109156527723519 0.1003877393833533 0  1.092329004626716 0.1996634754898433 0  1.063951420092331 0.2973917156793491 0  1.026370646620596 0.3908001012647357 0  0.9781794394810748 0.4817544094700255 0  0.9207704667517869 0.5674552974551497 0  0.8535638616680348 0.6472786185934224 0  0.7772845368733323 0.7203885413800342 0  0.6941071421123045 0.7867033511942596 0  0.6039910820578128 0.8455451529838923 0  0.5073741999520833 0.8955898294703397 0  0.405742474765828 0.9368954959220783 0  0.3012818537235689 0.9693333397332452 0  0.1929298208009444 0.9914411101989575 0  0.08367096903107371 1.004295297768275 0  -0.02683392808344217 1.006878258599731 0  -0.1370929806418618 0.9988631430316899 0  -0.2462803585848505 0.9817855060478028 0  -0.3530303533069923 0.9548971285252359 0  -0.456016606939645 0.9181453607175173 0  -0.5542573877310576 0.8727465496542591 0  -0.6473107220254826 0.818193219991996 0  -0.7339313977018255 0.755751491682964 0  -0.8134331429600041 0.6859338243097002 0  -0.8851639615750934 0.6084047286520319 0  -0.9476576025761848 0.5252683977442226 0  -1.001385418689797 0.4374075076542857 0  -1.044593995121511 0.3446300562620622 0  -1.077165568162232 0.2489689287026482 0  -1.099298933524113 0.1508682389563463 0  -1.110551955340022 0.0508014766898202 0  -1.110578537623662 -0.04983973534990017 0  -1.099349101446193 -0.1497489304196897 0  -1.078336252936521 -0.2478285587168204 0  -1.044529923508328 -0.3441258543534077 0  -1.001640238805311 -0.4363448645040169 0  -0.9481714942594196 -0.524406185036116 0  -0.8858154874615087 -0.6072630298447279 0  -0.8140646735997876 -0.6841402955371645 0  -0.7341262872295518 -0.753687138779081 0  -0.6469544320903582 -0.8155217019037804 0  -0.5545899056012201 -0.870325364187994 0  -0.4548258996377526 -0.9159034250660933 0  -0.3517384461034606 -0.953170836568054 0  -0.2448061277987232 -0.9804613032724426 0  -0.1360262289625646 -0.9979365245506886 0  -0.02613738048866762 -1.006435547016675 0  0.0840337938787173 -1.003365140869634 0  0.1941113428987357 -0.9902374686820643 0  0.3018489485060483 -0.9681126271804378 0  0.407551271662632 -0.9357938147332656 0  0.5080844296109961 -0.8946711469634958 0  0.6044178486575982 -0.8447856237932053 0  0.6943475246901967 -0.7870982950396586 0  0.7774685079308638 -0.7207217788491473 0  0.8532445899502383 -0.6468313039210145 0  0.9200742713650362 -0.5667634785637771 0  0.9783417625995423 -0.4813205328218665 0  1.027367600999945 -0.3908838468229754 0  1.064878677198346 -0.2968173693585519 0  1.092410581184162 -0.1991745904174342 0  1.109187294302027 -0.1001323945242564 0  -2.449201045167875 4.919294892945127 0  -2.44913215243894 -4.911780049233652 0  4.911734493223355 2.448818418435691 0  4.91973947285569 -2.45019621965215 0  2.446975698921951 -4.897236300337259 0  2.441382894628302 4.900949855588135 0  -4.911750694760839 -2.448834682219084 0  -4.911751226489176 2.448838427077684 0  -1.749176799506039 4.912702992902906 0  -1.744934763418585 -4.916076427490757 0  4.922257434807079 1.744905562423539 0  4.91102115116438 -1.748788987523597 0  -4.911294445350739 -1.748508974588787 0  -4.912103619848306 1.748243870306411 0  1.746490576436419 4.906685693879227 0  1.747987982360152 -4.89505220275753 0  -1.149352792549738 4.910843027589164 0  -1.130157268127158 -4.918584780886305 0  -4.911476835107505 -1.148670463486192 0  -4.911302758431576 1.148469789168918 0  1.144313948865815 -4.914855358623432 0  1.14935642289717 4.910835719696165 0  4.911636076857778 1.146951717192208 0  4.922187687769078 -1.15264734359094 0  -0.5469353290681238 -4.91220764250736 0  -0.5466916740407255 4.920687758391739 0  -4.91058323402216 -0.5491213873393549 0  -4.910608695362067 0.5476744560444599 0  4.909947216406652 -0.5494476493098627 0  4.921267285963573 0.5461485871363598 0  0.5427427956910309 -4.899409574123223 0  0.5514248095059411 4.917589325206089 0  -4.912755556234135 -3.04903434140651 0  4.919269235952411 3.047002921657396 0  4.912273172203649 -3.049022131529647 0  -4.913599309838311 3.046119962176768 0  3.055858514988842 -4.918234297851799 0  -3.049230929423997 -4.912228540166426 0  3.052785614230239 4.914291029860345 0  -3.048673148918025 4.913111275638849 0  -4.909831273960316 -0.04994895543092776 0  0.0451363050363883 -4.914174665711552 0  0.0495858081807091 4.92103231301053 0  4.916699265941587 -0.05132843854989886 0  3.546060928347166 -4.91962282304191 0  -3.549380257086817 4.
[...]
<PointData  Scalars="f_27"> 
<DataArray  type="Float64"  Name="f_27"  format="ascii">0.0000000000000000e+00  0.0000000000000000e+00  0.0000000000000000e+00  0.0000000000000000e+00  6.9060540297557282e-01  0.0000000000000000e+00  0.0000000000000000e+00  0.0000000000000000e+00  0.0000000000000000e+00  0.0000000000000000e+00  0.0000000000000000e+00  0.0000000000000000e+00  0.0000000000000000e+00  0.0000000000000000e+00  0.0000000000000000e+00  0.0000000000000000e+00  0.0000000000000000e+00  0.0000000000000000e+00  0.0000000000000000e+00  0.0000000000000000e+00  0.0000000000000000e+00  0.0000000000000000e+00  0.0000000000000000e+00  0.0000000000000000e+00  0.0000000000000000e+00  0.0000000000000000e+00  0.0000000000000000e+00  0.0000000000000000e+00  0.0000000000000000e+00  0.0000000000000000e+00  0.0000000000000000e+00  0.0000000000000000e+00  0.0000000000000000e+00  0.0000000000000000e+00  0.0000000000000000e+00  0.0000000000000000e+00  0.0000000000000000e+00  0.0000000000000000e+00  0.0000000000000000e+00  0.0000000000000000e+00  0.0000000000000000e+00  0.0000000000000000e+00  0.0000000000000000e+00  0.0000000000000000e+00  0.0000000000000000e+00  0.0000000000000000e+00  0.0000000000000000e+00  0.0000000000000000e+00  0.0000000000000000e+00  0.0000000000000000e+00  0.0000000000000000e+00  0.0000000000000000e+00  0.0000000000000000e+00  0.0000000000000000e+00  0.0000000000000000e+00  0.0000000000000000e+00  0.0000000000000000e+00  0.0000000000000000e+00  0.0000000000000000e+00  0.0000000000000000e+00  0.0000000000000000e+00  0.0000000000000000e+00  0.0000000000000000e+00  0.0000000000000000e+00  0.0000000000000000e+00  0.0000000000000000e+00  0.0000000000000000e+00  0.0000000000000000e+00  0.0000000000000000e+00  0.0000000000000000e+00  0.0000000000000000e+00  0.0000000000000000e+00  0.0000000000000000e+00  0.0000000000000000e+00  0.0000000000000000e+00  0.0000000000000000e+00  0.0000000000000000e+00  0.0000000000000000e+00  0.0000000000000000e+00  0.0000000000000000e+00  0.0000000000000000e+00  0.0000000000000000e+00  0.0000000000000000e+00  0.0000000000000000e+00  0.0000000000000000e+00  0.0000000000000000e+00  0.0000000000000000e+00  0.0000000000000000e+00  0.0000000000000000e+00  0.0000000000000000e+00  0.0000000000000000e+00  0.0000000000000000e+00  0.0000000000000000e+00  0.0000000000000000e+00  0.0000000000000000e+00  0.0000000000000000e+00  0.0000000000000000e+00  0.0000000000000000e+00  0.0000000000000000e+00  0.0000000000000000e+00  0.0000000000000000e+00  0.0000000000000000e+00  0.0000000000000000e+00  0.0000000000000000e+00  0.0000000000000000e+00  0.0000000000000000e+00  0.0000000000000000e+00  0.0000000000000000e+00  0.0000000000000000e+00  0.0000000000000000e+00  0.0000000000000000e+00  0.0000000000000000e+00  0.0000000000000000e+00  0.0000000000000000e+00  0.0000000000000000e+00  0.0000000000000000e+00  0.0000000000000000e+00  0.0000000000000000e+00  0.0000000000000000e+00  0.0000000000000000e+00  0.0000000000000000e+00  0.0000000000000000e+00  0.0000000000000000e+00  0.0000000000000000e+00  0.0000000000000000e+00  0.0000000000000000e+00  0.0000000000000000e+00  0.0000000000000000e+00  0.0000000000000000e+00  0.0000000000000000e+00  0.0000000000000000e+00  0.0000000000000000e+00  0.0000000000000000e+00  0.0000000000000000e+00  0.0000000000000000e+00  0.0000000000000000e+00  0.0000000000000000e+00  0.0000000000000000e+00  0.0000000000000000e+00  0.0000000000000000e+00  0.0000000000000000e+00  0.0000000000000000e+00  0.0000000000000000e+00  0.0000000000000000e+00  0.0000000000000000e+00  0.0000000000000000e+00  0.0000000000000000e+00  0.0000000000000000e+00  0.0000000000000000e+00  0.0000000000000000e+00  0.0000000000000000e+00  0.0000000000000000e+00  0.0000000000000000e+00  0.0000000000000000e+00  0.0000000000000000e+00  0.0000000000000000e+00  0.0000000000000000e+00  0.0000000000000000e+00  0.0000000000000000e+00  0.0000000000000000e+00  0.0000000000000000e+00  0.0000000000000000e+00  0.0000000000000000e+00  0.0000000000000000e+00  0.0000000000000000e+00  0.0000000000000000e+00  0.0000000000000000e+00  0.0000000000000000e+00  0.0000000000000000e+00  0.0000000000000000e+00  0.0000000000000000e+00  0.0000000000000000e+00  0.0000000000000000e+00  0.0000000000000000e+00  0.0000000000000000e+00  0.0000000000000000e+00  0.0000000000000000e+00  0.0000000000000000e+00  0.0000000000000000e+00  0.0000000000000000e+00  0.0000000000000000e+00  0.0000000000000000e+00  0.0000000000000000e+00  0.0000000000000000e+00  0.0000000000000000e+00  0.0000000000000000e+00  0.0000000000000000e+00  0.0000000000000000e+00  0.0000000000000000e+00  0.0000000000000000e+00  0.0000000000000000e+00  0.0000000000000000e+00  0.0000000000000000e+00  0.0000000000000000e+00  0.0000000000000000e+00  0.0000000000000000e+00  0.0000000000000000e+00  0.0000000000000000e+00  0.0000000000000000e+00  0.0000000000000000e+00  0.0000000000000000e+00  0.0000000000000000e+00  0.0000000000000000e+00  0.0000000000000000e+00  0.0000000000000000e+00  0.0000000000000000e+00  0.0000000000000000e+00  0.0000000000000000e+00  0.0000000000000000e+00  0.0000000000000000e+00  0.0000000000000000e+00  0.0000000000000000e+00  0.0000000000000000e+00  0.0000000000000000e+00  0.0000000000000000e+00  0.0000000000000000e+00  0.0000000000000000e+00  0.0000000000000000e+00  0.0000000000000000e+00  0.0000000000000000e+00  0.0000000000000000e+00  0.0000000000000000e+00  0.0000000000000000e+00  0.0000000000000000e+00  0.0000000000000000e+00  0.0000000000000000e+00  0.0000000000000000e+00  0.0000000000000000e+00  0.0000000000000000e+00  0.0000000000000000e+00  0.0000000000000000e+00  0.0000000000000000e+00  0.0000000000000000e+00  0.0000000000000000e+00  0.0000000000000000e+00  0.0000000000000000e+00  0.0000000000000000e+00  0.0000000000000000e+00  0.0000000000000000e+00  0.0000000000000000e+00  0.0000000000000000e+00  0.0000000000000000e+00  0.0000000000000000e+00  0.0000000000000000e+00  0.0000000000000000e+00  0.0000000000000000e+00  0.0000000000000000e+00  0.0000000000000000e+00  0.0000000000000000e+00  0.0000000000000000e+00  0.0000000000000000e+00  0.0000000000000000e+00  0.0000000000000000e+00  0.0000000000000000e+00  0.0000000000000000e+00  0.0000000000000000e+00  0.0000000000000000e+00  0.0000000000000000e+00  0.0000000000000000e+00  0.0000000000000000e+00  0.0000000000000000e+00  0.0000000000000000e+00  0.0000000000000000e+00  0.0000000000000000e+00  0.0000000000000000e+00  0.0000000000000000e+00  0.0000000000000000e+00  0.0000000000000000e+00  0.0000000000000000e+00  0.0000000000000000e+00  0.0000000000000000e+00  0.0000000000000000e+00  0.0000000000000000e+00  0.0000000000000000e+00  0.0000000000000000e+00  0.0000000000000000e+00  0.0000000000000000e+00  0.0000000000000000e+00  0.0000000000000000e+00  0.0000000000000000e+00  0.0000000000000000e+00  0.0000000000000000e+00  0.0000000000000000e+00  0.0000000000000000e+00  0.0000000000000000e+00  0.0000000000000000e+00  0.0000000000000000e+00  0.0000000000000000e+00  0.0000000000000000e+00  0.0000000000000000e+00  0.0000000000000000e+00  0.0000000000000000e+00  0.0000000000000000e+00  0.0000000000000000e+00  0.0000000000000000e+00  0.0000000000000000e+00  0.0000000000000000e+00  0.0000000000000000e+00  0.0000000000000000e+00  0.0000000000000000e+00  0.0000000000000000e+00  0.0000000000000000e+00  0.0000000000000000e+00  0.0000000000000000e+00  0.0000000000000000e+00  0.0000000000000000e+00  0.0000000000000000e+00  0.0000000000000000e+00  0.0000000000000000e+00  0.0000000000000000e+00  0.0000000000000000e+00  0.0000000000000000e+00  0.0000000000000000e+00  0.0000000000000000e+00  0.0000000000000000e+00  0.0000000000000000e+00  0.0000000000000000e+00  0.0000000000000000e+00  0.0000000000000000e+00  0.0000000000000000e+00  0.0000000000000000e+00  0.0000000000000000e+00  0.0000000000000000e+00  0.0000000000000000e+00  0.0000000000000000e+00  0.0000000000000000e+00  0.0000000000000000e+00  0.0000000000000000e+00  0.0000000000000000e+00  0.0000000000000000e+00  0.0000000000000000e+00  0.0000000000000000e+00  0.0000000000000000e+00  0.0000000000000000e+00  0.0000000000000000e+00  0.0000000000000000e+00  0.0000000000000000e+00  0.0000000000000000e+00  0.0000000000000000e+00  0.0000000000000000e+00  0.0000000000000000e+00  0.0000000000000000e+00  0.0000000000000000e+00  0.0000000000000000e+00  0.0000000000000000e+00  0.0000000000000000e+00  0.0000000000000000e+00  0.0000000000000000e+00  0.0000000000000000e+00  0.0000000000000000e+00  0.0000000000000000e+00  0.0000000000000000e+00  0.0000000000000000e+00  0.0000000000000000e+00  0.0000000000000000e+00  0.0000000000000000e+00  0.0000000000000000e+00  0.0000000000000000e+00  0.0000000000000000e+00  0.0000000000000000e+00  0.0000000000000000e+00  0.0000000000000000e+00  0.0000000000000000e+00  0.0000000000000000e+00  0.0000000000000000e+00  0.0000000000000000e+00  0.0000000000000000e+00  0.0000000000000000e+00  0.0000000000000000e+00  0.0000000000000000e+00  0.0000000000000000e+00  0.0000000000000000e+00  0.0000000000000000e+00  0.0000000000000000e+00  0.0000000000000000e+00  0.0000000000000000e+00  0.0000000000000000e+00  0.0000000000000000e+00  0.0000000000000000e+00  0.0000000000000000e+00  0.0000000000000000e+00  0.0000000000000000e+00  0.0000000000000000e+00  0.0000000000000000e+00  0.0000000000000000e+00  0.0000000000000000e+00  0.0000000000000000e+00  0.0000000000000000e+00  0.0000000000000000e+00  0.0000000000000000e+00  0.0000000000000000e+00  0.0000000000000000e+00  0.0000000000000000e+00  0.0000000000000000e+00  0.0000000000000000e+00  0.0000000000000000e+00  0.0000000000000000e+00  0.0000000000000000e+00  0.0000000000000000e+00  0.0000000000000000e+00  0.0000000000000000e+00  6.8138096428808470e-01  6.9358507327240759e-01  7.5695648027854012e-01  7.5341743884535550e-01  7.1438984617115464e-01  6.4876177573876637e-01  6.6034055443650630e-01  7.3054766288593476e-01  7.0340610258362901e-01  6.4203176547836405e-01  6.6648635587313254e-01  6.8365840496495078e-01  6.2479930206721779e-01  7.0468788683384020e-01  6.9700480655273866e-01  7.0435873017675998e-01  7.4151115082606600e-01  6.8846372256784760e-01  6.7392547076004039e-01  7.0849388740561903e-01  6.9039796895208205e-01  7.0077654716059889e-01  6.9016593225745204e-01  6.6208800472514473e-01  6.9159098313791445e-01  7.2496773741651144e-01  6.8313610526063562e-01  7.0357177019270101e-01  7.4090114213216751e-01  7.2174721734947644e-01  7.0110623184178489e-01  6.9655495583851457e-01  7.1415550952786044e-01  6.2010938262264781e-01  7.0765503954569153e-01  6.7855290840806270e-01  7.0334378303862766e-01  6.6317354880283741e-01  6.6451524417015051e-01  7.0587059612373959e-01  7.6512282641376606e-01  6.4633446588334609e-01  7.1252647742062825e-01  6.6611194692428766e-01  6.7765872017393181e-01  7.0052077679199920e-01  5.9182526125342927e-01  6.4008958138633865e-01  6.8983516445918192e-01  6.7219016174632640e-01  7.0146602212135190e-01  7.2549840093995621e-01  7.0031368203180822e-01  6.5623496401526304e-01  6.8395152729450548e-01  6.9530650752566858e-01  7.2534082207603356e-01  6.9367545479393633e-01  6.2222336025561831e-01  6.7764722425014878e-01  6.8648010126350467e-01  6.6912504168994191e-01  -2.0329160680935820e-31  1.4333331348352245e-31  2.8714092690053384e-34  4.8126609196180353e-34  2.5159933889289530e-31  3.2627272922112635e-31  -1.3611059577068309e-36  -5.3221905223685622e-35  -3.3512479617513919e-31  -1.2014857981621474e-31  6.7331433733710534e-32  9.1823775705028291e-32  5.0585454030110926e-32  5.8661063559585727e-32  3.0712340907940708e-30  1.6496542387065834e-30  -5.0718517434710689e-30  2.6707845817827574e-31  -7.3352943755874201e-30  -1.0187743777589656e-29  -1.7175673990069779e-30  -1.8577881261218877e-30  -5.0576316748719051e-30  -5.9332464080334019e-30  -3.6065869532063446e-30  -2.8071014439038613e-30  -1.0092479439820248e-28  8.2286205510359067e-30  -4.1595483895419381e-29  -2.2548751779657162e-28  7.6561580081926197e-30  -1.8956781638274447e-30  -4.5565028879051513e-36  3.1209947842666793e-36  2.4485445068650968e-36  -4.5911812062950576e-36  4.4862815535768992e-33  3.1472680634905021e-33  2.5645527533450737e-33  2.9115499956463129e-33  -1.0127874295928898e-27  1.0359025559621254e-29  -3.3857225281505286e-31  1.6815291927931086e-27  1.0228526441592308e-35  6.0416572884703619e-36  1.3352839455136029e-35  -4.1994220202168242e-38  3.4288283686996053e-39  -4.5124739382464217e-38  1.7249168935173625e-38  -2.7634888983164269e-36  8.1650843543557112e-40  -1.6352559581190738e-37  -3.9796942097738302e-38  -1.4224878698334951e-39  -1.7303644207729744e-37  1.2260539816622364e-39  -9.7480400580526442e-38  -1.9371729865824428e-39  -3.8575091811898027e-40  -5.0553663102193406e-40  -4.0302216736358599e-40  -1.3624356377253820e-41  -1.1939439796899607e-42  4.5065701399614265e-41  5.9114771714029756e-41  -5.2812255375665788e-40  1.6441888819880095e-27  2.0588561517441880e-30  -1.3118540181533267e-30  1.5009808919566768e-27  3.1173889800440286e-30  1.5225858081744710e-30  7.7783519854115732e-30  7.9267687081113818e-30  1.6354599810458225e-30  1.5902634581705614e-30  -1.1691464720575589e-30  -9.3083381761653244e-30  -1.6029113678175714e-30  -4.5038436356643997e-31  3.1120763458641665e-29  5.3461546935253902e-29  -3.0947979445866311e-31  1.6296114259742322e-30  -1.4002414328254934e-30  7.0309449124808700e-31  -2.0721090446221062e-30  -1.4874904767186582e-30  -1.6085850512180026e-32  -1.5114805696072461e-32  -4.1011632533999209e-31  -4.6625578650153012e-31  8.5086164709587116e-33  8.3228829982732258e-33  3.9059619187664917e-35  -1.5601459922906670e-32  2.6002345050558739e-32  -4.0641054112065442e-35  9.2494100663863541e-33  -3.9462646574707334e-35  3.6855595206142517e-35  3.7400889187874688e-32  2.2177908250814684e-42  7.9224842682628670e-42  -1.6334310966850815e-42  -3.5378889494494125e-42  -8.1771824805335325e-43  -2.4490751642765917e-42  3.6462195367145983e-42  2.6399131714872202e-42  3.3216497049818508e-28  1.5506016945268406e-29  3.3936395144068439e-30  1.6729347119595610e-27  6.6192652984011404e-32  -1.8916653606095023e-33  -2.1821952597418502e-33  -1.9050671921094200e-31  2.1458269187495304e-33  1.7624150177197375e-31  2.9770095537599038e-31  2.0303502206569665e-33  -6.1171019307742552e-37  -9.7765017504373822e-34  -4.3954787334545384e-34  1.7253238366246798e-38  -5.0586261610452487e-37  -1.7513138151466426e-35  -6.1686570078576208e-34  1.6665489448956267e-37  3.3868794311722935e-39  -1.9560481156447153e-40  -1.7276464877751776e-36  -3.2740723643253880e-39  -7.2137458679333911e-37  -2.9902806231542660e-39  9.9974875229629986e-39  -1.0300643513018079e-40  -8.4505489449135693e-37  -4.5120662215724576e-39  1.5635599413562824e-40  -1.7523926575570190e-40  9.5056889924115550e-39  -4.4686775882584094e-41  -4.4993642437667685e-37  -4.3497491351915913e-39  -8.2690191260524567e-43  3.5613544171401099e-43  -5.5575809608991132e-43  -1.2693562502453667e-42  -4.2977448136814588e-28  2.9026426627422573e-29  -2.1554813995417727e-27  5.2514696340099417e-27  8.5783789490165726e-27  -3.1078712568766146e-26  -2.5574855690898851e-26  1.2136004290770759e-25  5.3345082173164429e-26  -3.5690814837974244e-25  -3.1362973140698570e-26  7.2344572614443797e-25  -3.7020097144882070e-25  -3.3627884712613366e-25  2.3517767755034474e-24  -5.5428297825613600e-24  -9.1071148547345902e-24  3.3706023194315831e-23  2.6290410792740052e-23  -1.2804285696552562e-22  -5.4333992950297566e-23  -8.2658334783206169e-23  3.6421609274831719e-22  4.5663926120771289e-23  -7.3111662354228390e-22  2.2823869325699925e-22  4.8005375443730935e-22  -1.3735311854529326e-21  3.6187059098851189e-21  4.1668313741450999e-21  -1.9809507762237977e-20  -6.8834078955215489e-21  4.5182149294678287e-21  5.7033358019396560e-20  -4.2882708950541048e-21  -8.0550413211144815e-20  6.7690530018202131e-20  -1.1728036440761576e-19  -2.1247520665897131e-19  1.0319360414922981e-18  2.3847186963305848e-19  -2.7357194912357385e-18  7.1805737014469244e-19  -2.4904470602160860e-18  1.6372016034379168e-18  -3.7499688472895363e-18  1.3841714922375467e-17  5.5928913809099648e-18  1.7285384805437031e-19  -3.9498180674587355e-18  9.6551047516596947e-18  7.7828263874703879e-18  -2.1135436303941423e-19  -3.9091810654548585e-18  8.0864168234225430e-19  -2.5142103699410917e-19  7.8963510625792000e-18  -3.8457883992537797e-18  7.5812039525830454e-19  5.0252023517731750e-20  -2.2387915468043252e-19  5.8695365013158864e-19  -3.5541906477317967e-18  4.8166601596228249e-19  -2.3500451993336180e-19  3.2121269139728674e-19  -2.7286661491695219e-18  7.4928476106112678e-19  -2.0127265055159912e-19  5.6657630901651853e-20  -1.5410367697556906e-18  7.4116707740574198e-19  -2.3241821922497616e-18  4.1269162222669765e-20  -3.7930714358085616e-19  6.4448691645856952e-18  -2.9884688842653669e-18  9.1821061081425826e-18  1.5511993139058741e-18  -3.2896743580958457e-17  1.9410334155936238e-17  -1.0458920445121006e-16  -2.5959926289702817e-18  2.9751785708861771e-17  -6.9582527657188673e-17  -1.1503410168484635e-17  2.0696642821005192e-16  -1.0914314459963377e-16  5.7806491155641495e-16  -1.7578198125991214e-16  6.1224698696379565e-16  -1.1099850789778963e-16  1.3621890327215039e-16  4.0610692776650605e-17  -3.5923391161886624e-16  4.2705382266999449e-17  1.3198604568406394e-17  -1.9036057482115562e-01  1.0537632991455726e-16  -2.7908174376378921e-16  9.4307005083620049e-18  2.3801925155903104e-16  -2.0736762839775916e-01  -1.1799126065872389e-16  5.3984664029469053e-16  -1.9031353131923998e-01  -1.3380592672610745e-16  3.7213593447478455e-16  -1.8851997005778406e-15  -7.5213745039508353e-16  5.6451193773557302e-17  1.7865729984108643e-16  -2.4969491092248766e-15  3.7735419483836640e-17  -9.1986574355104859e-17  3.5284413887366349e-16  -1.2977278035113444e-15  -9.9056182833416926e-16  1.5986260427246292e-16  -2.3211909371058380e-16  2.1276237663183208e-15  8.8907649339477006e-19  9.0414018103833287e-17  -3.3274860333871567e-16  1.3418679463598960e-15  4.8131129814722506e-16  3.7558702587250740e-17  -4.8654949139169981e-16  1.0659560441925943e-15  1.3095788360264203e-15  -7.8014326111167933e-17  -5.9623720239045040e-16  3.3698460667713962e-17  2.4159258497417429e-15  -2.7350879475915056e-16  -5.5707678145567818e-16  -1.8495364078294574e-15  3.2660248697196720e-15  -1.3320569970458560e-14  -2.8438352189098019e-15  -5.7646486804893923e-16  3.6910268856554773e-15  -1.5738466462932921e-14  -1.6833255643452964e-15  -8.1571558912812142e-16  3.4062461662757565e-15  -1.7961318195937315e-14  1.5199369509421655e-15  1.9974288723609029e-14  -1.5402291704624177e-14  6.8637030052531475e-14  -3.9095916265767730e-15  4.1190412711147138e-15  -6.3846782324027005e-15  4.5440018650002683e-14  -1.0589922037196498e-14  6.3985356290094801e-16  2.1442196832267264e-14  -1.4874027325061031e-13  4.1418158621766022e-14  -6.6699549006963643e-14  -4.0259851295307908e-14  -3.5831342743554308e-15  3.1188332022361551e-14  -1.9581916288969955e-13  6.9779255518393073e-14  -3.0631904192789050e-13  8.8372573228402953e-14  -3.4140495011848122e-13  9.4652511780480238e-14  -3.6744168466361960e-13  1.0471632561185915e-13  -4.1490736205291503e-13  1.1739331791154558e-13  -4.4863373479890266e-13  1.1780892010091813e-13  -4.0294057953364792e-13  8.9081147198910027e-14  -2.3746232324806045e-13  3.5051941771875074e-14  -3.1929706957742077e-14  -9.7783052565585905e-15  7.1564195843206311e-14  -1.8365070378016342e-14  4.4851548475273889e-14  -4.7359937373462979e-15  -4.4056097480599980e-15  3.3440925613532303e-15  -1.3323034064752049e-16  -3.9421468220365715e-16  2.0121609383469776e-16  3.0305158285392877e-18  -5.2760970819825290e-17  1.2734426884847983e-17  7.7505484916318366e-18  -3.7888745720245861e-18  -2.3969298876948771e-19  -4.1046740617234275e-18  6.3144389284922543e-19  -2.4646686382284949e-14  1.1835631492845005e-18  -2.4013678183061440e-18  8.5756573487856509e-20  1.1558764158381690e-18  -3.1702307996955108e-19  5.4666136546428609e-19  -2.1824258891511879e-21  -