<?xml version="1.0"?>
<VTKFile type="UnstructuredGrid"  version="0.1"  >
<UnstructuredGrid>
<Piece  NumberOfPoints="11902" NumberOfCells="23402">
<Points>
<DataArray  type="Float64"  NumberOfComponents="3"  format="ascii">-5 -5 0  5 -5 0  5 5 0  -5 5 0  1.06946381779721 0.0004582497145295671 0  -4.9 -5 0  -4.8 -5 0  -4.7 -5 0  -4.6 -5 0  -4.5 -5 0  -4.4 -5 0  -4.3 -5 0  -4.2 -5 0  -4.1 -5 0  -4 -5 0  -3.9 -5 0  -3.8 -5 0  -3.7 -5 0  -3.6 -5 0  -3.5 -5 0  -3.4 -5 0  -3.3 -5 0  -3.2 -5 0  -3.1 -5 0  -3 -5 0  -2.9 -5 0  -2.8 -5 0  -2.7 -5 0  -2.6 -5 0  -2.5 -5 0  -2.4 -5 0  -2.3 -5 0  -2.2 -5 0  -2.1 -5 0  -2 -5 0  -1.9 -5 0  -1.8 -5 0  -1.7 -5 0  -1.6 -5 0  -1.5 -5 0  -1.4 -5 0  -1.3 -5 0  -1.2 -5 0  -1.1 -5 0  -1 -5 0  -0.9000000000000004 -5 0  -0.7999999999999998 -5 0  -0.7000000000000002 -5 0  -0.5999999999999996 -5 0  -0.5 -5 0  -0.4000000000000004 -5 0  -0.2999999999999998 -5 0  -0.2000000000000002 -5 0  -0.09999999999999964 -5 0  0 -5 0  0.09999999999999964 -5 0  0.2000000000000002 -5 0  0.2999999999999998 -5 0  0.4000000000000004 -5 0  0.5 -5 0  0.5999999999999996 -5 0  0.7000000000000002 -5 0  0.7999999999999998 -5 0  0.9000000000000004 -5 0  1 -5 0  1.1 -5 0  1.2 -5 0  1.3 -5 0  1.4 -5 0  1.5 -5 0  1.6 -5 0  1.7 -5 0  1.8 -5 0  1.9 -5 0  2 -5 0  2.1 -5 0  2.2 -5 0  2.3 -5 0  2.4 -5 0  2.5 -5 0  2.6 -5 0  2.7 -5 0  2.8 -5 0  2.9 -5 0  3 -5 0  3.1 -5 0  3.199999999999999 -5 0  3.300000000000001 -5 0  3.4 -5 0  3.5 -5 0  3.6 -5 0  3.699999999999999 -5 0  3.800000000000001 -5 0  3.9 -5 0  4 -5 0  4.1 -5 0  4.199999999999999 -5 0  4.300000000000001 -5 0  4.4 -5 0  4.5 -5 0  4.6 -5 0  4.699999999999999 -5 0  4.800000000000001 -5 0  4.9 -5 0  5 -4.9 0  5 -4.8 0  5 -4.7 0  5 -4.6 0  5 -4.5 0  5 -4.4 0  5 -4.3 0  5 -4.2 0  5 -4.1 0  5 -4 0  5 -3.9 0  5 -3.8 0  5 -3.7 0  5 -3.6 0  5 -3.5 0  5 -3.4 0  5 -3.3 0  5 -3.2 0  5 -3.1 0  5 -3 0  5 -2.9 0  5 -2.8 0  5 -2.7 0  5 -2.6 0  5 -2.5 0  5 -2.4 0  5 -2.3 0  5 -2.2 0  5 -2.1 0  5 -2 0  5 -1.9 0  5 -1.8 0  5 -1.7 0  5 -1.6 0  5 -1.5 0  5 -1.4 0  5 -1.3 0  5 -1.2 0  5 -1.1 0  5 -1 0  5 -0.9000000000000004 0  5 -0.7999999999999998 0  5 -0.7000000000000002 0  5 -0.5999999999999996 0  5 -0.5 0  5 -0.4000000000000004 0  5 -0.2999999999999998 0  5 -0.2000000000000002 0  5 -0.09999999999999964 0  5 0 0  5 0.09999999999999964 0  5 0.2000000000000002 0  5 0.2999999999999998 0  5 0.4000000000000004 0  5 0.5 0  5 0.5999999999999996 0  5 0.7000000000000002 0  5 0.7999999999999998 0  5 0.9000000000000004 0  5 1 0  5 1.1 0  5 1.2 0  5 1.3 0  5 1.4 0  5 1.5 0  5 1.6 0  5 1.7 0  5 1.8 0  5 1.9 0  5 2 0  5 2.1 0  5 2.2 0  5 2.3 0  5 2.4 0  5 2.5 0  5 2.6 0  5 2.7 0  5 2.8 0  5 2.9 0  5 3 0  5 3.1 0  5 3.199999999999999 0  5 3.300000000000001 0  5 3.4 0  5 3.5 0  5 3.6 0  5 3.699999999999999 0  5 3.800000000000001 0  5 3.9 0  5 4 0  5 4.1 0  5 4.199999999999999 0  5 4.300000000000001 0  5 4.4 0  5 4.5 0  5 4.6 0  5 4.699999999999999 0  5 4.800000000000001 0  5 4.9 0  4.9 5 0  4.8 5 0  4.7 5 0  4.6 5 0  4.5 5 0  4.4 5 0  4.3 5 0  4.2 5 0  4.1 5 0  4 5 0  3.9 5 0  3.8 5 0  3.7 5 0  3.6 5 0  3.5 5 0  3.4 5 0  3.3 5 0  3.2 5 0  3.1 5 0  3 5 0  2.9 5 0  2.8 5 0  2.7 5 0  2.6 5 0  2.5 5 0  2.4 5 0  2.3 5 0  2.2 5 0  2.1 5 0  2 5 0  1.9 5 0  1.8 5 0  1.7 5 0  1.6 5 0  1.5 5 0  1.4 5 0  1.3 5 0  1.2 5 0  1.1 5 0  1 5 0  0.9000000000000004 5 0  0.7999999999999998 5 0  0.7000000000000002 5 0  0.5999999999999996 5 0  0.5 5 0  0.4000000000000004 5 0  0.2999999999999998 5 0  0.2000000000000002 5 0  0.09999999999999964 5 0  0 5 0  -0.09999999999999964 5 0  -0.2000000000000002 5 0  -0.2999999999999998 5 0  -0.4000000000000004 5 0  -0.5 5 0  -0.5999999999999996 5 0  -0.7000000000000002 5 0  -0.7999999999999998 5 0  -0.9000000000000004 5 0  -1 5 0  -1.1 5 0  -1.2 5 0  -1.3 5 0  -1.4 5 0  -1.5 5 0  -1.6 5 0  -1.7 5 0  -1.8 5 0  -1.9 5 0  -2 5 0  -2.1 5 0  -2.2 5 0  -2.3 5 0  -2.4 5 0  -2.5 5 0  -2.6 5 0  -2.7 5 0  -2.8 5 0  -2.9 5 0  -3 5 0  -3.1 5 0  -3.199999999999999 5 0  -3.300000000000001 5 0  -3.4 5 0  -3.5 5 0  -3.6 5 0  -3.699999999999999 5 0  -3.800000000000001 5 0  -3.9 5 0  -4 5 0  -4.1 5 0  -4.199999999999999 5 0  -4.300000000000001 5 0  -4.4 5 0  -4.5 5 0  -4.6 5 0  -4.699999999999999 5 0  -4.800000000000001 5 0  -4.9 5 0  -5 4.9 0  -5 4.8 0  -5 4.7 0  -5 4.6 0  -5 4.5 0  -5 4.4 0  -5 4.3 0  -5 4.2 0  -5 4.1 0  -5 4 0  -5 3.9 0  -5 3.8 0  -5 3.7 0  -5 3.6 0  -5 3.5 0  -5 3.4 0  -5 3.3 0  -5 3.2 0  -5 3.1 0  -5 3 0  -5 2.9 0  -5 2.8 0  -5 2.7 0  -5 2.6 0  -5 2.5 0  -5 2.4 0  -5 2.3 0  -5 2.2 0  -5 2.1 0  -5 2 0  -5 1.9 0  -5 1.8 0  -5 1.7 0  -5 1.6 0  -5 1.5 0  -5 1.4 0  -5 1.3 0  -5 1.2 0  -5 1.1 0  -5 1 0  -5 0.9000000000000004 0  -5 0.7999999999999998 0  -5 0.7000000000000002 0  -5 0.5999999999999996 0  -5 0.5 0  -5 0.4000000000000004 0  -5 0.2999999999999998 0  -5 0.2000000000000002 0  -5 0.09999999999999964 0  -5 0 0  -5 -0.09999999999999964 0  -5 -0.2000000000000002 0  -5 -0.2999999999999998 0  -5 -0.4000000000000004 0  -5 -0.5 0  -5 -0.5999999999999996 0  -5 -0.7000000000000002 0  -5 -0.7999999999999998 0  -5 -0.9000000000000004 0  -5 -1 0  -5 -1.1 0  -5 -1.2 0  -5 -1.3 0  -5 -1.4 0  -5 -1.5 0  -5 -1.6 0  -5 -1.7 0  -5 -1.8 0  -5 -1.9 0  -5 -2 0  -5 -2.1 0  -5 -2.2 0  -5 -2.3 0  -5 -2.4 0  -5 -2.5 0  -5 -2.6 0  -5 -2.7 0  -5 -2.8 0  -5 -2.9 0  -5 -3 0  -5 -3.1 0  -5 -3.199999999999999 0  -5 -3.300000000000001 0  -5 -3.4 0  -5 -3.5 0  -5 -3.6 0  -5 -3.699999999999999 0  -5 -3.800000000000001 0  -5 -3.9 0  -5 -4 0  -5 -4.1 0  -5 -4.199999999999999 0  -5 -4.300000000000001 0  -5 -4.4 0  -5 -4.5 0  -5 -4.6 0  -5 -4.699999999999999 0  -5 -4.800000000000001 0  -5 -4.9 0  1.06423837004427 0.1003226294705178 0  1.048229624439437 0.199579692403655 0  1.021342926903657 0.2970792327353065 0  0.9851469754879497 0.3908989377696467 0  0.9389915606239224 0.4816220788221134 0  0.8837835217542932 0.5672930164638094 0  0.8194209407644617 0.6470874738740426 0  0.7464568747521286 0.7203392913506308 0  0.6666181839971209 0.7866962647565776 0  0.5801709250033031 0.8454321781657334 0  0.4876711518506003 0.8954160964733922 0  0.3902197282570342 0.9366195982055798 0  0.2896676357120288 0.9688073547946431 0  0.18567753632967 0.9908768473109354 0  0.08031757379623453 1.003487168689406 0  -0.02609464237651371 1.006032544715522 0  -0.1322590936965813 0.9982955188472832 0  -0.2371637770340951 0.9811890021460092 0  -0.3396713965864036 0.9542086221706659 0  -0.4387133570740496 0.9174913000211624 0  -0.5332851482848027 0.8719991966112505 0  -0.6226942849608893 0.8175734078004062 0  -0.7059327374898031 0.7551647683066935 0  -0.7821966977672827 0.6853768309708581 0  -0.8508186897917596 0.6081907677267501 0  -0.9107238318212055 0.5251317774967638 0  -0.9620186304580096 0.4371788105552077 0  -1.003374521024575 0.3445463669819684 0  -1.034624652362214 0.2487512468846947 0  -1.055823826324225 0.1505186735437173 0  -1.066564399257403 0.05054349891354851 0  -1.066581695593891 -0.04997859276139443 0  -1.055861554401502 -0.1498667134069623 0  -1.035458024691666 -0.2480628655890594 0  -1.003366809464999 -0.3441662309360964 0  -0.9621568360625291 -0.4364693158159752 0  -0.9110082294155529 -0.5245527516613122 0  -0.8511524778555885 -0.6074330776533509 0  -0.782496851838773 -0.6842405306082738 0  -0.7059500201084963 -0.7539213263839695 0  -0.6224023684556804 -0.8159776291567165 0  -0.5335010641504453 -0.8707064092041811 0  -0.4380843337165829 -0.9161965848808152 0  -0.3389849094370014 -0.9531549250338265 0  -0.2363195472269645 -0.9803029198256293 0  -0.1315764424727163 -0.9976674620998773 0  -0.02562629086281669 -1.005767004869712 0  0.0804946005834011 -1.002982814829567 0  0.1862841309220115 -0.9901710056266958 0  0.2899060113361044 -0.9680278167803532 0  0.3912436711597176 -0.9358840856347134 0  0.4880103804387451 -0.894743528416973 0  0.5804360458209358 -0.8448124653325674 0  0.6667985987751489 -0.7868582475722123 0  0.7466102386439664 -0.7205127233270624 0  0.819214235466093 -0.6468025246016031 0  0.8833937791829068 -0.5667768743900266 0  0.9391676812185071 -0.4812930316839886 0  0.9858556127071468 -0.390929190563194 0  1.021937711258266 -0.2968099817386584 0  1.048274552247276 -0.1992910158652465 0  1.064275072373155 -0.1001919735056949 0  -2.449481370718785 4.919815180866778 0  -2.449437172846579 -4.912347290413358 0  4.912315246628367 2.4492288565529 0  4.920266405623269 -2.450569460074303 0  2.447330643461755 -4.897902819678334 0  2.441726317428189 4.901594596452245 0  -4.912326565315547 -2.449240587317828 0  -4.912328624066529 2.449244228169844 0  -1.74946495134447 4.913448702892032 0  -1.745210224978525 -4.916791992278839 0  4.922988942825336 1.745275906819477 0  4.911856352409683 -1.749213593248772 0  -4.912120372332239 -1.748927195853994 0  -4.912923723748105 1.748657619927024 0  1.746796442525641 4.907486930892143 0  1.748330591082476 -4.895951680612914 0  -1.14958124079353 4.911742836003957 0  -1.130362588135386 -4.919406999505551 0  -4.912508287563135 -1.149013742816179 0  -4.912337681788746 1.148812509994191 0  1.144527325743853 -4.915716286681335 0  1.149582117766692 4.911738235165662 0  4.912676155685629 1.147297654175333 0  4.923101319620677 -1.152953427151522 0  -0.5470539034830064 -4.913182207142497 0  -0.5467989925531126 4.921571120134388 0  -4.911779418397767 -0.5493118911239045 0  -4.911805565581007 0.5478627968700185 0  4.911163435578759 -0.5496418603488361 0  4.922331214115508 0.5463166724486308 0  0.5428725914662726 -4.900529192753567 0  0.5515339537213503 4.918508088996158 0  -4.913144832510152 -3.049370504744094 0  4.919632631773353 3.047317577538842 0  4.91266690858428 -3.049363826197802 0  -4.913986807992429 3.046453444167344 0  3.056109406674809 -4.918617103966243 0  -3.049500649137944 -4.912637611144266 0  3.053049703246163 4.914693405133053 0  -3.048941286745457 4.913517346293948 0  -4.911089079168536 -0.04996799814616398 0  0.04514348077994364 -4.915155911090941 0  0.04959401466486919 4.921937881883517 0  4.917872318501121 -0.05134628185851108 0  3.54626050771494 -4.919891591957746 0  -3.54959
[...]
<PointData  Scalars="f_27"> 
<DataArray  type="Float64"  Name="f_27"  format="ascii">0.0000000000000000e+00  0.0000000000000000e+00  0.0000000000000000e+00  0.0000000000000000e+00  6.0382131567619246e-01  0.0000000000000000e+00  0.0000000000000000e+00  0.0000000000000000e+00  0.0000000000000000e+00  0.0000000000000000e+00  0.0000000000000000e+00  0.0000000000000000e+00  0.0000000000000000e+00  0.0000000000000000e+00  0.0000000000000000e+00  0.0000000000000000e+00  0.0000000000000000e+00  0.0000000000000000e+00  0.0000000000000000e+00  0.0000000000000000e+00  0.0000000000000000e+00  0.0000000000000000e+00  0.0000000000000000e+00  0.0000000000000000e+00  0.0000000000000000e+00  0.0000000000000000e+00  0.0000000000000000e+00  0.0000000000000000e+00  0.0000000000000000e+00  0.0000000000000000e+00  0.0000000000000000e+00  0.0000000000000000e+00  0.0000000000000000e+00  0.0000000000000000e+00  0.0000000000000000e+00  0.0000000000000000e+00  0.0000000000000000e+00  0.0000000000000000e+00  0.0000000000000000e+00  0.0000000000000000e+00  0.0000000000000000e+00  0.0000000000000000e+00  0.0000000000000000e+00  0.0000000000000000e+00  0.0000000000000000e+00  0.0000000000000000e+00  0.0000000000000000e+00  0.0000000000000000e+00  0.0000000000000000e+00  0.0000000000000000e+00  0.0000000000000000e+00  0.0000000000000000e+00  0.0000000000000000e+00  0.0000000000000000e+00  0.0000000000000000e+00  0.0000000000000000e+00  0.0000000000000000e+00  0.0000000000000000e+00  0.0000000000000000e+00  0.0000000000000000e+00  0.0000000000000000e+00  0.0000000000000000e+00  0.0000000000000000e+00  0.0000000000000000e+00  0.0000000000000000e+00  0.0000000000000000e+00  0.0000000000000000e+00  0.0000000000000000e+00  0.0000000000000000e+00  0.0000000000000000e+00  0.0000000000000000e+00  0.0000000000000000e+00  0.0000000000000000e+00  0.0000000000000000e+00  0.0000000000000000e+00  0.0000000000000000e+00  0.0000000000000000e+00  0.0000000000000000e+00  0.0000000000000000e+00  0.0000000000000000e+00  0.0000000000000000e+00  0.0000000000000000e+00  0.0000000000000000e+00  0.0000000000000000e+00  0.0000000000000000e+00  0.0000000000000000e+00  0.0000000000000000e+00  0.0000000000000000e+00  0.0000000000000000e+00  0.0000000000000000e+00  0.0000000000000000e+00  0.0000000000000000e+00  0.0000000000000000e+00  0.0000000000000000e+00  0.0000000000000000e+00  0.0000000000000000e+00  0.0000000000000000e+00  0.0000000000000000e+00  0.0000000000000000e+00  0.0000000000000000e+00  0.0000000000000000e+00  0.0000000000000000e+00  0.0000000000000000e+00  0.0000000000000000e+00  0.0000000000000000e+00  0.0000000000000000e+00  0.0000000000000000e+00  0.0000000000000000e+00  0.0000000000000000e+00  0.0000000000000000e+00  0.0000000000000000e+00  0.0000000000000000e+00  0.0000000000000000e+00  0.0000000000000000e+00  0.0000000000000000e+00  0.0000000000000000e+00  0.0000000000000000e+00  0.0000000000000000e+00  0.0000000000000000e+00  0.0000000000000000e+00  0.0000000000000000e+00  0.0000000000000000e+00  0.0000000000000000e+00  0.0000000000000000e+00  0.0000000000000000e+00  0.0000000000000000e+00  0.0000000000000000e+00  0.0000000000000000e+00  0.0000000000000000e+00  0.0000000000000000e+00  0.0000000000000000e+00  0.0000000000000000e+00  0.0000000000000000e+00  0.0000000000000000e+00  0.0000000000000000e+00  0.0000000000000000e+00  0.0000000000000000e+00  0.0000000000000000e+00  0.0000000000000000e+00  0.0000000000000000e+00  0.0000000000000000e+00  0.0000000000000000e+00  0.0000000000000000e+00  0.0000000000000000e+00  0.0000000000000000e+00  0.0000000000000000e+00  0.0000000000000000e+00  0.0000000000000000e+00  0.0000000000000000e+00  0.0000000000000000e+00  0.0000000000000000e+00  0.0000000000000000e+00  0.0000000000000000e+00  0.0000000000000000e+00  0.0000000000000000e+00  0.0000000000000000e+00  0.0000000000000000e+00  0.0000000000000000e+00  0.0000000000000000e+00  0.0000000000000000e+00  0.0000000000000000e+00  0.0000000000000000e+00  0.0000000000000000e+00  0.0000000000000000e+00  0.0000000000000000e+00  0.0000000000000000e+00  0.0000000000000000e+00  0.0000000000000000e+00  0.0000000000000000e+00  0.0000000000000000e+00  0.0000000000000000e+00  0.0000000000000000e+00  0.0000000000000000e+00  0.0000000000000000e+00  0.0000000000000000e+00  0.0000000000000000e+00  0.0000000000000000e+00  0.0000000000000000e+00  0.0000000000000000e+00  0.0000000000000000e+00  0.0000000000000000e+00  0.0000000000000000e+00  0.0000000000000000e+00  0.0000000000000000e+00  0.0000000000000000e+00  0.0000000000000000e+00  0.0000000000000000e+00  0.0000000000000000e+00  0.0000000000000000e+00  0.0000000000000000e+00  0.0000000000000000e+00  0.0000000000000000e+00  0.0000000000000000e+00  0.0000000000000000e+00  0.0000000000000000e+00  0.0000000000000000e+00  0.0000000000000000e+00  0.0000000000000000e+00  0.0000000000000000e+00  0.0000000000000000e+00  0.0000000000000000e+00  0.0000000000000000e+00  0.0000000000000000e+00  0.0000000000000000e+00  0.0000000000000000e+00  0.0000000000000000e+00  0.0000000000000000e+00  0.0000000000000000e+00  0.0000000000000000e+00  0.0000000000000000e+00  0.0000000000000000e+00  0.0000000000000000e+00  0.0000000000000000e+00  0.0000000000000000e+00  0.0000000000000000e+00  0.0000000000000000e+00  0.0000000000000000e+00  0.0000000000000000e+00  0.0000000000000000e+00  0.0000000000000000e+00  0.0000000000000000e+00  0.0000000000000000e+00  0.0000000000000000e+00  0.0000000000000000e+00  0.0000000000000000e+00  0.0000000000000000e+00  0.0000000000000000e+00  0.0000000000000000e+00  0.0000000000000000e+00  0.0000000000000000e+00  0.0000000000000000e+00  0.0000000000000000e+00  0.0000000000000000e+00  0.0000000000000000e+00  0.0000000000000000e+00  0.0000000000000000e+00  0.0000000000000000e+00  0.0000000000000000e+00  0.0000000000000000e+00  0.0000000000000000e+00  0.0000000000000000e+00  0.0000000000000000e+00  0.0000000000000000e+00  0.0000000000000000e+00  0.0000000000000000e+00  0.0000000000000000e+00  0.0000000000000000e+00  0.0000000000000000e+00  0.0000000000000000e+00  0.0000000000000000e+00  0.0000000000000000e+00  0.0000000000000000e+00  0.0000000000000000e+00  0.0000000000000000e+00  0.0000000000000000e+00  0.0000000000000000e+00  0.0000000000000000e+00  0.0000000000000000e+00  0.0000000000000000e+00  0.0000000000000000e+00  0.0000000000000000e+00  0.0000000000000000e+00  0.0000000000000000e+00  0.0000000000000000e+00  0.0000000000000000e+00  0.0000000000000000e+00  0.0000000000000000e+00  0.0000000000000000e+00  0.0000000000000000e+00  0.0000000000000000e+00  0.0000000000000000e+00  0.0000000000000000e+00  0.0000000000000000e+00  0.0000000000000000e+00  0.0000000000000000e+00  0.0000000000000000e+00  0.0000000000000000e+00  0.0000000000000000e+00  0.0000000000000000e+00  0.0000000000000000e+00  0.0000000000000000e+00  0.0000000000000000e+00  0.0000000000000000e+00  0.0000000000000000e+00  0.0000000000000000e+00  0.0000000000000000e+00  0.0000000000000000e+00  0.0000000000000000e+00  0.0000000000000000e+00  0.0000000000000000e+00  0.0000000000000000e+00  0.0000000000000000e+00  0.0000000000000000e+00  0.0000000000000000e+00  0.0000000000000000e+00  0.0000000000000000e+00  0.0000000000000000e+00  0.0000000000000000e+00  0.0000000000000000e+00  0.0000000000000000e+00  0.0000000000000000e+00  0.0000000000000000e+00  0.0000000000000000e+00  0.0000000000000000e+00  0.0000000000000000e+00  0.0000000000000000e+00  0.0000000000000000e+00  0.0000000000000000e+00  0.0000000000000000e+00  0.0000000000000000e+00  0.0000000000000000e+00  0.0000000000000000e+00  0.0000000000000000e+00  0.0000000000000000e+00  0.0000000000000000e+00  0.0000000000000000e+00  0.0000000000000000e+00  0.0000000000000000e+00  0.0000000000000000e+00  0.0000000000000000e+00  0.0000000000000000e+00  0.0000000000000000e+00  0.0000000000000000e+00  0.0000000000000000e+00  0.0000000000000000e+00  0.0000000000000000e+00  0.0000000000000000e+00  0.0000000000000000e+00  0.0000000000000000e+00  0.0000000000000000e+00  0.0000000000000000e+00  0.0000000000000000e+00  0.0000000000000000e+00  0.0000000000000000e+00  0.0000000000000000e+00  0.0000000000000000e+00  0.0000000000000000e+00  0.0000000000000000e+00  0.0000000000000000e+00  0.0000000000000000e+00  0.0000000000000000e+00  0.0000000000000000e+00  0.0000000000000000e+00  0.0000000000000000e+00  0.0000000000000000e+00  0.0000000000000000e+00  0.0000000000000000e+00  0.0000000000000000e+00  0.0000000000000000e+00  0.0000000000000000e+00  0.0000000000000000e+00  0.0000000000000000e+00  0.0000000000000000e+00  0.0000000000000000e+00  0.0000000000000000e+00  0.0000000000000000e+00  0.0000000000000000e+00  0.0000000000000000e+00  0.0000000000000000e+00  0.0000000000000000e+00  0.0000000000000000e+00  0.0000000000000000e+00  0.0000000000000000e+00  0.0000000000000000e+00  0.0000000000000000e+00  0.0000000000000000e+00  0.0000000000000000e+00  0.0000000000000000e+00  0.0000000000000000e+00  0.0000000000000000e+00  0.0000000000000000e+00  0.0000000000000000e+00  0.0000000000000000e+00  0.0000000000000000e+00  0.0000000000000000e+00  0.0000000000000000e+00  0.0000000000000000e+00  0.0000000000000000e+00  0.0000000000000000e+00  0.0000000000000000e+00  0.0000000000000000e+00  0.0000000000000000e+00  0.0000000000000000e+00  0.0000000000000000e+00  0.0000000000000000e+00  0.0000000000000000e+00  0.0000000000000000e+00  0.0000000000000000e+00  0.0000000000000000e+00  0.0000000000000000e+00  0.0000000000000000e+00  0.0000000000000000e+00  0.0000000000000000e+00  0.0000000000000000e+00  0.0000000000000000e+00  0.0000000000000000e+00  0.0000000000000000e+00  0.0000000000000000e+00  0.0000000000000000e+00  0.0000000000000000e+00  0.0000000000000000e+00  5.9337727288431985e-01  6.0677392284978915e-01  6.8337998433009528e-01  6.7861252919429726e-01  6.3054261593579530e-01  5.5560984012724035e-01  5.6833896518805049e-01  6.4986020598671157e-01  6.1779887210836060e-01  5.4719550560413843e-01  5.7425542494662885e-01  5.9406349692477745e-01  5.2719418935684204e-01  6.1784502742306013e-01  6.1004305839414774e-01  6.1878431471908135e-01  6.6238580223320254e-01  5.9976775451759834e-01  5.8301315824712729e-01  6.2330879329664601e-01  6.0233851798022464e-01  6.1423793238981916e-01  6.0226120456835142e-01  5.6985698832349341e-01  6.0422644666468894e-01  6.4391494082037082e-01  5.9483256698188303e-01  6.1930884819285703e-01  6.6317590850144703e-01  6.4046357530462106e-01  6.1595996903782713e-01  6.1107119586756076e-01  6.3139515160809234e-01  5.2398259288185822e-01  6.2260621415038375e-01  5.9023147249430641e-01  6.1818345090337967e-01  5.7166713097450350e-01  5.7268355475985810e-01  6.2072948392129590e-01  6.9109926349663897e-01  5.5219205215737477e-01  6.2757562577072346e-01  5.7402297467398511e-01  5.8732936665373647e-01  6.1325970915265671e-01  4.9153197322104591e-01  5.4462829795489520e-01  6.0082973410339335e-01  5.8088610914605909e-01  6.1476626130888878e-01  6.4349147542541396e-01  6.1380692745071963e-01  5.6340800529926072e-01  5.9487909193025335e-01  6.0878218601727774e-01  6.4427512700935385e-01  6.0636396079121524e-01  5.2586723232769228e-01  5.8869239394175366e-01  5.9908811910682980e-01  5.7895588487913885e-01  -2.2081474983502782e-31  1.5324193337010595e-31  3.1355058142474592e-34  5.2043805566410069e-34  2.7337834585577590e-31  3.4542834839278742e-31  -3.3835289739449142e-36  -6.2314043603617433e-35  -3.4514215574829660e-31  -1.1951305401913952e-31  7.3529512506111059e-32  9.8456154137000950e-32  5.4424811868245290e-32  6.2431165101944770e-32  3.2558829885332169e-30  1.7283731490952100e-30  -5.5044968267640296e-30  3.0630628039924866e-31  -7.9662155758400704e-30  -1.1017657358753087e-29  -1.8395685702470892e-30  -2.0223847271685891e-30  -5.5395128708838544e-30  -6.2800762363188282e-30  -3.8348255822295308e-30  -3.1248945956721500e-30  -1.1762435219961466e-28  2.3238050253951217e-30  -4.4135785532750772e-29  -2.4962761249948482e-28  8.1762461006177492e-30  -2.1448524666808109e-30  -4.8855729874204745e-36  3.3832085068820792e-36  2.6265847662759083e-36  -4.9768025877054712e-36  4.8383104054006003e-33  3.5231930424801626e-33  2.8352817453524275e-33  3.1368522096054166e-33  -1.1045460881140459e-27  1.1038677919308714e-29  -3.1916550260921815e-31  1.8151007992592956e-27  1.1139841298719974e-35  6.6064767057758851e-36  1.4448323604822991e-35  -4.5473443534334668e-38  4.4382828594272133e-39  -4.8470463521691286e-38  1.9240915087915486e-38  -3.0576737797274592e-36  8.6545946956691537e-40  -1.7724363714457102e-37  -4.4073064710057365e-38  -1.5320051840341971e-39  -1.8737210155715514e-37  1.3282663968352545e-39  -1.0518527817062800e-37  -2.1031949240131547e-39  -4.1283646179207478e-40  -5.4726229381319084e-40  -4.3233466806355973e-40  -1.4821086084977823e-41  -8.3707715443424725e-43  4.8265662322020100e-41  6.3936682525771077e-41  -5.7089286853939782e-40  1.8023073352905447e-27  2.1592011983774909e-30  -1.4440621314657213e-30  1.6233314158644846e-27  3.4962577994350011e-30  1.6271048417786573e-30  8.9802559150540869e-30  9.5736521923513789e-30  1.7629434453604047e-30  1.6798518834396955e-30  -1.2344003348400469e-30  -9.9390811396777018e-30  -1.7204336443222263e-30  -4.8189780536384017e-31  3.3012573550688831e-29  5.8143902283861474e-29  -3.3101370283461342e-31  1.7417507244436941e-30  -1.5549710670654485e-30  7.4048475983721750e-31  -2.2449010089140950e-30  -1.5536477451752522e-30  -1.7143862467730714e-32  -1.6366518116820890e-32  -4.4150919012574937e-31  -4.9937854050454118e-31  9.2018978918812700e-33  8.9366272113288273e-33  4.2096008646920061e-35  -1.6093083286899396e-32  2.7796018370163498e-32  -4.4245374072649804e-35  9.9956971493460932e-33  -4.2414872825668092e-35  4.0022448778152059e-35  4.0637310439862539e-32  2.3867410486739293e-42  8.5088549510954513e-42  -1.7729601867543987e-42  -3.8772455069555708e-42  -8.6015078289557406e-43  -2.6015985758906509e-42  3.9682975806889789e-42  2.8597055301234430e-42  3.7256378501473980e-28  1.6549907292120287e-29  4.0335533681564490e-30  1.7927189372383507e-27  7.2537792020066808e-32  -2.0552313559852075e-33  -2.3521185833485403e-33  -2.1429129797556392e-31  2.2910733127742906e-33  1.9112494367293746e-31  3.2405748139491726e-31  2.2123032672074451e-33  -6.5852116887561217e-37  -1.0580041383895372e-33  -4.7238313980584514e-34  2.7838538658930137e-38  -5.4856159586052018e-37  -1.8750926413101126e-35  -6.7337800966547275e-34  1.8695709547654962e-37  3.7002572066434787e-39  -2.1105893487495927e-40  -1.8444759902688434e-36  -3.5768676974460716e-39  -7.9094272329131086e-37  -3.1788556845283858e-39  1.0595406514411005e-38  -1.0700734678920307e-40  -9.0850836384767355e-37  -4.8770410795778280e-39  1.6091299849935129e-40  -1.8950667177504606e-40  1.0183258296076092e-38  -4.4400772290973936e-41  -4.9140293127891695e-37  -4.6983422901944816e-39  -8.8703842206191012e-43  3.8836541432260474e-43  -6.1151597211614590e-43  -1.3799804486781414e-42  -4.6049981559697887e-28  -1.1425014133031546e-29  -2.3799551245872725e-27  5.8850092811597310e-27  9.3910401658891937e-27  -3.4305374257859383e-26  -2.7728256216169822e-26  1.3281674236366503e-25  5.6729669513267068e-26  -3.8672851920959451e-25  -2.7496543128520417e-26  7.6778730458376005e-25  -4.2640414469114019e-25  -2.7034438872917336e-25  2.6218587974268942e-24  -6.3646283176361781e-24  -1.0021322629991041e-23  3.7539365805419174e-23  2.8642297602789286e-23  -1.4077473398590848e-22  -5.8502913153895001e-23  -9.4645435912517129e-23  3.9636121358113825e-22  4.7164874525986706e-23  -7.8610810717628658e-22  2.5300159689437879e-22  4.8759682479799234e-22  -1.4919235990394405e-21  3.9901986203120231e-21  4.4900882538312725e-21  -2.1473304850879800e-20  -7.3690141093030664e-21  4.4503773412356871e-21  6.1387533669700454e-20  -4.6843660578549451e-21  -8.6173037239988632e-20  7.2618552222556439e-20  -1.2652661650994439e-19  -2.2739681251426811e-19  1.1057904091589905e-18  2.5507170836734656e-19  -2.9273893446781985e-18  7.6630100449605698e-19  -2.6747777409764808e-18  1.7553828639148033e-18  -4.0032420392637457e-18  1.4772450037704584e-17  5.9734754082903055e-18  1.8440835979565403e-19  -4.2188269111412379e-18  1.0299239444876300e-17  8.3363738039446290e-18  -2.3030950033600845e-19  -4.1734607441744645e-18  8.6608757009484365e-19  -2.8276291446428853e-19  8.5083443818037228e-18  -4.1062830401406395e-18  8.1503057526370214e-19  3.1821648800143962e-20  -2.3741386951394902e-19  6.3668505912181750e-19  -3.8202538822790434e-18  5.0157389083077854e-19  -2.5154737224495727e-19  3.5235782315645623e-19  -2.9600112371617182e-18  8.0686226667198046e-19  -2.1759495805225496e-19  6.0983921911735878e-20  -1.6505311262207274e-18  7.8903953282171879e-19  -2.4446696831002479e-18  4.4364729579126467e-20  -4.2704943945098004e-19  7.0160478153460616e-18  -3.2390693473126375e-18  1.0002218336091367e-17  1.6141097448308786e-18  -3.5165673600916440e-17  2.0850905613551637e-17  -1.1276227807917479e-16  -2.7750073081252997e-18  3.2233282009036672e-17  -7.6221510897218169e-17  -1.2020316388175039e-17  2.2238959115584681e-16  -1.1799665919012200e-16  6.2765479344937307e-16  -1.9167359528544467e-16  6.7186997234951582e-16  -1.2343147755564994e-16  1.6195097516734878e-16  3.9924918679093890e-17  -3.7482625870032888e-16  4.6856569191182097e-17  1.3562880193182281e-17  -1.6364757767754867e-01  1.1091170104299014e-16  -2.9373327720208278e-16  8.9754864215027896e-18  2.5859953298772345e-16  -1.8250514834885689e-01  -1.2717612562187733e-16  5.8072446808240189e-16  -1.6404425058829089e-01  -1.4379508114905710e-16  4.0015888202319031e-16  -2.0266264560090933e-15  -8.1209035641443183e-16  6.2727541465100931e-17  1.8060839692511913e-16  -2.7235218636478153e-15  4.0575815172213143e-17  -9.5358062936371045e-17  3.6678486155453589e-16  -1.3452082317771750e-15  -1.0290917619442061e-15  1.6607422075161211e-16  -2.4192838318639400e-16  2.2105387767066474e-15  7.5485751577221299e-18  9.1978321451707776e-17  -3.3934729511015592e-16  1.3678414587529193e-15  4.8125831952427956e-16  4.3238824518733720e-17  -5.1758861820210952e-16  1.1709014211894319e-15  1.3826287527982294e-15  -8.0373645887317202e-17  -6.3799028719462690e-16  6.3358908011351750e-17  2.5722559835991712e-15  -2.8995344036106911e-16  -5.9697483045014221e-16  -1.9552273781372601e-15  3.4848831232213366e-15  -1.4246161651147465e-14  -3.0196563814086576e-15  -6.1900045332997280e-16  3.9452987990391263e-15  -1.6857825186065009e-14  -1.7853296380903616e-15  -8.7521362060955244e-16  3.6454372487210798e-15  -1.9254978492700020e-14  1.6401566965968795e-15  2.1347121707777174e-14  -1.6498007534014759e-14  7.3681740709500284e-14  -4.2835545932293795e-15  4.4138237024500424e-15  -6.7520356824590924e-15  4.7873353276803287e-14  -1.0885236733298556e-14  -1.8741435584243717e-15  2.3762125982372493e-14  -1.6157993921498809e-13  4.4234978278008137e-14  -6.7058152967123223e-14  -4.5528022725208507e-14  -3.5123860318331331e-15  3.4306646228948802e-14  -2.1393412576272521e-13  7.5991064925084622e-14  -3.3349346328499062e-13  9.6350911522559179e-14  -3.7326576695471945e-13  1.0365216640375131e-13  -4.0258102876449591e-13  1.1438307299821241e-13  -4.5168398098330077e-13  1.2732174448519360e-13  -4.8567485173089226e-13  1.2748316552655792e-13  -4.3666336503472601e-13  9.6684490889991381e-14  -2.5843837709616138e-13  3.8210287743665569e-14  -3.4912045121736444e-14  -1.0685862080930714e-14  7.8411705751593140e-14  -2.0156472871478791e-14  4.9430057330788335e-14  -5.2709819145195001e-15  -4.5765030533568591e-15  3.6811460631466512e-15  -1.2841509360687464e-16  -4.3728154642826328e-16  2.1786672636911363e-16  4.5460885865665029e-18  -5.7693319472643416e-17  1.3754732466316183e-17  8.5706563195855256e-18  -4.1375131511578300e-18  -2.9511404885094830e-19  -4.3913991282006577e-18  6.9612126107893119e-19  -2.6930295397531742e-14  1.2823152135950241e-18  -2.6356391803377702e-18  1.0206128364575255e-19  1.2333638980270170e-18  -3.4214770829882339e-19  5.9753416554583602e-19  -3.9792567886546447e-21 