<?xml version="1.0"?>
<VTKFile type="UnstructuredGrid"  version="0.1"  >
<UnstructuredGrid>
<Piece  NumberOfPoints="11902" NumberOfCells="23402">
<Points>
<DataArray  type="Float64"  NumberOfComponents="3"  format="ascii">-5 -5 0  5 -5 0  5 5 0  -5 5 0  1.173324282264175 0.001150423943899453 0  -4.9 -5 0  -4.8 -5 0  -4.7 -5 0  -4.6 -5 0  -4.5 -5 0  -4.4 -5 0  -4.3 -5 0  -4.2 -5 0  -4.1 -5 0  -4 -5 0  -3.9 -5 0  -3.8 -5 0  -3.7 -5 0  -3.6 -5 0  -3.5 -5 0  -3.4 -5 0  -3.3 -5 0  -3.2 -5 0  -3.1 -5 0  -3 -5 0  -2.9 -5 0  -2.8 -5 0  -2.7 -5 0  -2.6 -5 0  -2.5 -5 0  -2.4 -5 0  -2.3 -5 0  -2.2 -5 0  -2.1 -5 0  -2 -5 0  -1.9 -5 0  -1.8 -5 0  -1.7 -5 0  -1.6 -5 0  -1.5 -5 0  -1.4 -5 0  -1.3 -5 0  -1.2 -5 0  -1.1 -5 0  -1 -5 0  -0.9000000000000004 -5 0  -0.7999999999999998 -5 0  -0.7000000000000002 -5 0  -0.5999999999999996 -5 0  -0.5 -5 0  -0.4000000000000004 -5 0  -0.2999999999999998 -5 0  -0.2000000000000002 -5 0  -0.09999999999999964 -5 0  0 -5 0  0.09999999999999964 -5 0  0.2000000000000002 -5 0  0.2999999999999998 -5 0  0.4000000000000004 -5 0  0.5 -5 0  0.5999999999999996 -5 0  0.7000000000000002 -5 0  0.7999999999999998 -5 0  0.9000000000000004 -5 0  1 -5 0  1.1 -5 0  1.2 -5 0  1.3 -5 0  1.4 -5 0  1.5 -5 0  1.6 -5 0  1.7 -5 0  1.8 -5 0  1.9 -5 0  2 -5 0  2.1 -5 0  2.2 -5 0  2.3 -5 0  2.4 -5 0  2.5 -5 0  2.6 -5 0  2.7 -5 0  2.8 -5 0  2.9 -5 0  3 -5 0  3.1 -5 0  3.199999999999999 -5 0  3.300000000000001 -5 0  3.4 -5 0  3.5 -5 0  3.6 -5 0  3.699999999999999 -5 0  3.800000000000001 -5 0  3.9 -5 0  4 -5 0  4.1 -5 0  4.199999999999999 -5 0  4.300000000000001 -5 0  4.4 -5 0  4.5 -5 0  4.6 -5 0  4.699999999999999 -5 0  4.800000000000001 -5 0  4.9 -5 0  5 -4.9 0  5 -4.8 0  5 -4.7 0  5 -4.6 0  5 -4.5 0  5 -4.4 0  5 -4.3 0  5 -4.2 0  5 -4.1 0  5 -4 0  5 -3.9 0  5 -3.8 0  5 -3.7 0  5 -3.6 0  5 -3.5 0  5 -3.4 0  5 -3.3 0  5 -3.2 0  5 -3.1 0  5 -3 0  5 -2.9 0  5 -2.8 0  5 -2.7 0  5 -2.6 0  5 -2.5 0  5 -2.4 0  5 -2.3 0  5 -2.2 0  5 -2.1 0  5 -2 0  5 -1.9 0  5 -1.8 0  5 -1.7 0  5 -1.6 0  5 -1.5 0  5 -1.4 0  5 -1.3 0  5 -1.2 0  5 -1.1 0  5 -1 0  5 -0.9000000000000004 0  5 -0.7999999999999998 0  5 -0.7000000000000002 0  5 -0.5999999999999996 0  5 -0.5 0  5 -0.4000000000000004 0  5 -0.2999999999999998 0  5 -0.2000000000000002 0  5 -0.09999999999999964 0  5 0 0  5 0.09999999999999964 0  5 0.2000000000000002 0  5 0.2999999999999998 0  5 0.4000000000000004 0  5 0.5 0  5 0.5999999999999996 0  5 0.7000000000000002 0  5 0.7999999999999998 0  5 0.9000000000000004 0  5 1 0  5 1.1 0  5 1.2 0  5 1.3 0  5 1.4 0  5 1.5 0  5 1.6 0  5 1.7 0  5 1.8 0  5 1.9 0  5 2 0  5 2.1 0  5 2.2 0  5 2.3 0  5 2.4 0  5 2.5 0  5 2.6 0  5 2.7 0  5 2.8 0  5 2.9 0  5 3 0  5 3.1 0  5 3.199999999999999 0  5 3.300000000000001 0  5 3.4 0  5 3.5 0  5 3.6 0  5 3.699999999999999 0  5 3.800000000000001 0  5 3.9 0  5 4 0  5 4.1 0  5 4.199999999999999 0  5 4.300000000000001 0  5 4.4 0  5 4.5 0  5 4.6 0  5 4.699999999999999 0  5 4.800000000000001 0  5 4.9 0  4.9 5 0  4.8 5 0  4.7 5 0  4.6 5 0  4.5 5 0  4.4 5 0  4.3 5 0  4.2 5 0  4.1 5 0  4 5 0  3.9 5 0  3.8 5 0  3.7 5 0  3.6 5 0  3.5 5 0  3.4 5 0  3.3 5 0  3.2 5 0  3.1 5 0  3 5 0  2.9 5 0  2.8 5 0  2.7 5 0  2.6 5 0  2.5 5 0  2.4 5 0  2.3 5 0  2.2 5 0  2.1 5 0  2 5 0  1.9 5 0  1.8 5 0  1.7 5 0  1.6 5 0  1.5 5 0  1.4 5 0  1.3 5 0  1.2 5 0  1.1 5 0  1 5 0  0.9000000000000004 5 0  0.7999999999999998 5 0  0.7000000000000002 5 0  0.5999999999999996 5 0  0.5 5 0  0.4000000000000004 5 0  0.2999999999999998 5 0  0.2000000000000002 5 0  0.09999999999999964 5 0  0 5 0  -0.09999999999999964 5 0  -0.2000000000000002 5 0  -0.2999999999999998 5 0  -0.4000000000000004 5 0  -0.5 5 0  -0.5999999999999996 5 0  -0.7000000000000002 5 0  -0.7999999999999998 5 0  -0.9000000000000004 5 0  -1 5 0  -1.1 5 0  -1.2 5 0  -1.3 5 0  -1.4 5 0  -1.5 5 0  -1.6 5 0  -1.7 5 0  -1.8 5 0  -1.9 5 0  -2 5 0  -2.1 5 0  -2.2 5 0  -2.3 5 0  -2.4 5 0  -2.5 5 0  -2.6 5 0  -2.7 5 0  -2.8 5 0  -2.9 5 0  -3 5 0  -3.1 5 0  -3.199999999999999 5 0  -3.300000000000001 5 0  -3.4 5 0  -3.5 5 0  -3.6 5 0  -3.699999999999999 5 0  -3.800000000000001 5 0  -3.9 5 0  -4 5 0  -4.1 5 0  -4.199999999999999 5 0  -4.300000000000001 5 0  -4.4 5 0  -4.5 5 0  -4.6 5 0  -4.699999999999999 5 0  -4.800000000000001 5 0  -4.9 5 0  -5 4.9 0  -5 4.8 0  -5 4.7 0  -5 4.6 0  -5 4.5 0  -5 4.4 0  -5 4.3 0  -5 4.2 0  -5 4.1 0  -5 4 0  -5 3.9 0  -5 3.8 0  -5 3.7 0  -5 3.6 0  -5 3.5 0  -5 3.4 0  -5 3.3 0  -5 3.2 0  -5 3.1 0  -5 3 0  -5 2.9 0  -5 2.8 0  -5 2.7 0  -5 2.6 0  -5 2.5 0  -5 2.4 0  -5 2.3 0  -5 2.2 0  -5 2.1 0  -5 2 0  -5 1.9 0  -5 1.8 0  -5 1.7 0  -5 1.6 0  -5 1.5 0  -5 1.4 0  -5 1.3 0  -5 1.2 0  -5 1.1 0  -5 1 0  -5 0.9000000000000004 0  -5 0.7999999999999998 0  -5 0.7000000000000002 0  -5 0.5999999999999996 0  -5 0.5 0  -5 0.4000000000000004 0  -5 0.2999999999999998 0  -5 0.2000000000000002 0  -5 0.09999999999999964 0  -5 0 0  -5 -0.09999999999999964 0  -5 -0.2000000000000002 0  -5 -0.2999999999999998 0  -5 -0.4000000000000004 0  -5 -0.5 0  -5 -0.5999999999999996 0  -5 -0.7000000000000002 0  -5 -0.7999999999999998 0  -5 -0.9000000000000004 0  -5 -1 0  -5 -1.1 0  -5 -1.2 0  -5 -1.3 0  -5 -1.4 0  -5 -1.5 0  -5 -1.6 0  -5 -1.7 0  -5 -1.8 0  -5 -1.9 0  -5 -2 0  -5 -2.1 0  -5 -2.2 0  -5 -2.3 0  -5 -2.4 0  -5 -2.5 0  -5 -2.6 0  -5 -2.7 0  -5 -2.8 0  -5 -2.9 0  -5 -3 0  -5 -3.1 0  -5 -3.199999999999999 0  -5 -3.300000000000001 0  -5 -3.4 0  -5 -3.5 0  -5 -3.6 0  -5 -3.699999999999999 0  -5 -3.800000000000001 0  -5 -3.9 0  -5 -4 0  -5 -4.1 0  -5 -4.199999999999999 0  -5 -4.300000000000001 0  -5 -4.4 0  -5 -4.5 0  -5 -4.6 0  -5 -4.699999999999999 0  -5 -4.800000000000001 0  -5 -4.9 0  1.167596678895097 0.09975118127611494 0  1.149530454911199 0.1984286557556574 0  1.119133961121278 0.2959572522601429 0  1.079574846156799 0.3881947854587429 0  1.028369152465654 0.4790301915895721 0  0.9677907254737214 0.5643698827607408 0  0.8966289855764197 0.6441400280074957 0  0.8161285180896738 0.7169610571300327 0  0.7285868287618572 0.7828900852202177 0  0.6334253778263212 0.8415920856242881 0  0.5312905005854572 0.8920083163176177 0  0.4245190355610498 0.9336319731887209 0  0.3152110769223874 0.9663466569438807 0  0.2011522998419779 0.988713405794452 0  0.08733887401642945 1.002454130299157 0  -0.02756148240576325 1.005141828453421 0  -0.1424372010063063 0.9962232627029479 0  -0.2573820000764826 0.9788275025001637 0  -0.369585248727252 0.9523029457767593 0  -0.4772643010895753 0.9156823414194585 0  -0.5800028145157092 0.8702761382279395 0  -0.6776622971009562 0.8155704316329501 0  -0.7684669261725126 0.7529465566189897 0  -0.8523464521662739 0.6828382087368323 0  -0.9286114482437569 0.6049568220142819 0  -0.9949025836159305 0.5221943708456217 0  -1.05201506071397 0.4348917129834447 0  -1.09798497952835 0.3424450703631811 0  -1.132525251817539 0.2476764980527482 0  -1.155884506291871 0.1504378699075384 0  -1.167762762551852 0.05085613482994584 0  -1.167776815248065 -0.04934293383126432 0  -1.155881746150768 -0.148659317892141 0  -1.133633363148665 -0.245908712826772 0  -1.097695470483419 -0.3419809198681513 0  -1.052387082361095 -0.4336153812188495 0  -0.995749391925473 -0.5212007716777999 0  -0.9298327379702015 -0.6035699764017812 0  -0.8537258934402437 -0.6804242862110602 0  -0.7693422283314145 -0.7498189832108209 0  -0.6775180287884154 -0.8112828349735902 0  -0.5803319984932673 -0.8658302509000045 0  -0.4750570041607982 -0.9120307866161576 0  -0.3670784912245434 -0.9497813175304926 0  -0.254952529757264 -0.977331946880978 0  -0.1410684121546822 -0.995203196259174 0  -0.02692298433463876 -1.00439194711973 0  0.08792780322372228 -1.000592714712601 0  0.2034099852941914 -0.986763021832831 0  0.3164621357072754 -0.9647407328348179 0  0.4274433601960227 -0.9322472323282944 0  0.5326514170842077 -0.8910188686507219 0  0.6340619408839108 -0.8410103192868241 0  0.7288014795142121 -0.783690315932562 0  0.8162413965625621 -0.7175478962040998 0  0.896184870526791 -0.6435625177423866 0  0.96662332310351 -0.5636640322129673 0  1.02833611227361 -0.4785258604737755 0  1.080653753365738 -0.3882938235955487 0  1.120415026002253 -0.2948019336647668 0  1.149708272813528 -0.1976846255548605 0  1.167607723415475 -0.09932824837813801 0  -2.448896002805875 4.918730247273444 0  -2.448800234465546 -4.911164435588044 0  4.911104207296885 2.44837418192716 0  4.919167625254352 -2.44979226197631 0  2.446589407052667 -4.896512821934619 0  2.441009182389963 4.900250070688712 0  -4.911125758075406 -2.448395402413253 0  -4.911124625611552 2.448399242343871 0  -1.748862385466512 4.911891352271587 0  -1.744634161875883 -4.915297597350862 0  4.921461815719899 1.744503845759207 0  4.910112647389456 -1.74832844590041 0  -4.910396170831718 -1.7480553851267 0  -4.911211658874491 1.747795115688209 0  1.746156812769345 4.905813624395287 0  1.747614069763588 -4.894073074534795 0  -1.149102982415154 4.909861557572667 0  -1.129932635531097 -4.917687883161964 0  -4.910352945467221 -1.148297475169311 0  -4.910175057622853 1.148097405190847 0  1.144080540189029 -4.913916185019641 0  1.149109573016793 4.909851224474257 0  4.910502640139507 1.14657580407157 0  4.921192106928783 -1.152314766755014 0  -0.5468055103747489 -4.91114304122165 0  -0.5465740457357814 4.919722843820458 0  -4.90927805293027 -0.5489141162241676 0  -4.909302748971374 0.5474695400918589 0  4.908620002204976 -0.5492363423927182 0  4.920106318489002 0.5459656847329074 0  0.5426005977469661 -4.898186481176023 0  0.5513052137065804 4.916585676384403 0  -4.912333809051373 -3.048671126151994 0  4.918875548455696 3.046662899611678 0  4.91184655193315 -3.048652898852364 0  -4.913179497024681 3.04575961630988 0  3.055586236918479 -4.917819825581828 0  -3.048938169312641 -4.911785672533347 0  3.05249899518174 4.913855342125641 0  -3.048382181216205 4.91267160354809 0  -4.908458225327437 -0.04992822153449571 0  0.04512845453033215 -4.913102310320501 0  0.04957679597843449 4.920042686014097 0  4.915418618187212 -0.05130902862052188 0  3.545844626389794 -4.919332337834128 0  -3.549145175273676 4.91225
[...]
<PointData  Scalars="f_27"> 
<DataArray  type="Float64"  Name="f_27"  format="ascii">0.0000000000000000e+00  0.0000000000000000e+00  0.0000000000000000e+00  0.0000000000000000e+00  8.0897012894194897e-01  0.0000000000000000e+00  0.0000000000000000e+00  0.0000000000000000e+00  0.0000000000000000e+00  0.0000000000000000e+00  0.0000000000000000e+00  0.0000000000000000e+00  0.0000000000000000e+00  0.0000000000000000e+00  0.0000000000000000e+00  0.0000000000000000e+00  0.0000000000000000e+00  0.0000000000000000e+00  0.0000000000000000e+00  0.0000000000000000e+00  0.0000000000000000e+00  0.0000000000000000e+00  0.0000000000000000e+00  0.0000000000000000e+00  0.0000000000000000e+00  0.0000000000000000e+00  0.0000000000000000e+00  0.0000000000000000e+00  0.0000000000000000e+00  0.0000000000000000e+00  0.0000000000000000e+00  0.0000000000000000e+00  0.0000000000000000e+00  0.0000000000000000e+00  0.0000000000000000e+00  0.0000000000000000e+00  0.0000000000000000e+00  0.0000000000000000e+00  0.0000000000000000e+00  0.0000000000000000e+00  0.0000000000000000e+00  0.0000000000000000e+00  0.0000000000000000e+00  0.0000000000000000e+00  0.0000000000000000e+00  0.0000000000000000e+00  0.0000000000000000e+00  0.0000000000000000e+00  0.0000000000000000e+00  0.0000000000000000e+00  0.0000000000000000e+00  0.0000000000000000e+00  0.0000000000000000e+00  0.0000000000000000e+00  0.0000000000000000e+00  0.0000000000000000e+00  0.0000000000000000e+00  0.0000000000000000e+00  0.0000000000000000e+00  0.0000000000000000e+00  0.0000000000000000e+00  0.0000000000000000e+00  0.0000000000000000e+00  0.0000000000000000e+00  0.0000000000000000e+00  0.0000000000000000e+00  0.0000000000000000e+00  0.0000000000000000e+00  0.0000000000000000e+00  0.0000000000000000e+00  0.0000000000000000e+00  0.0000000000000000e+00  0.0000000000000000e+00  0.0000000000000000e+00  0.0000000000000000e+00  0.0000000000000000e+00  0.0000000000000000e+00  0.0000000000000000e+00  0.0000000000000000e+00  0.0000000000000000e+00  0.0000000000000000e+00  0.0000000000000000e+00  0.0000000000000000e+00  0.0000000000000000e+00  0.0000000000000000e+00  0.0000000000000000e+00  0.0000000000000000e+00  0.0000000000000000e+00  0.0000000000000000e+00  0.0000000000000000e+00  0.0000000000000000e+00  0.0000000000000000e+00  0.0000000000000000e+00  0.0000000000000000e+00  0.0000000000000000e+00  0.0000000000000000e+00  0.0000000000000000e+00  0.0000000000000000e+00  0.0000000000000000e+00  0.0000000000000000e+00  0.0000000000000000e+00  0.0000000000000000e+00  0.0000000000000000e+00  0.0000000000000000e+00  0.0000000000000000e+00  0.0000000000000000e+00  0.0000000000000000e+00  0.0000000000000000e+00  0.0000000000000000e+00  0.0000000000000000e+00  0.0000000000000000e+00  0.0000000000000000e+00  0.0000000000000000e+00  0.0000000000000000e+00  0.0000000000000000e+00  0.0000000000000000e+00  0.0000000000000000e+00  0.0000000000000000e+00  0.0000000000000000e+00  0.0000000000000000e+00  0.0000000000000000e+00  0.0000000000000000e+00  0.0000000000000000e+00  0.0000000000000000e+00  0.0000000000000000e+00  0.0000000000000000e+00  0.0000000000000000e+00  0.0000000000000000e+00  0.0000000000000000e+00  0.0000000000000000e+00  0.0000000000000000e+00  0.0000000000000000e+00  0.0000000000000000e+00  0.0000000000000000e+00  0.0000000000000000e+00  0.0000000000000000e+00  0.0000000000000000e+00  0.0000000000000000e+00  0.0000000000000000e+00  0.0000000000000000e+00  0.0000000000000000e+00  0.0000000000000000e+00  0.0000000000000000e+00  0.0000000000000000e+00  0.0000000000000000e+00  0.0000000000000000e+00  0.0000000000000000e+00  0.0000000000000000e+00  0.0000000000000000e+00  0.0000000000000000e+00  0.0000000000000000e+00  0.0000000000000000e+00  0.0000000000000000e+00  0.0000000000000000e+00  0.0000000000000000e+00  0.0000000000000000e+00  0.0000000000000000e+00  0.0000000000000000e+00  0.0000000000000000e+00  0.0000000000000000e+00  0.0000000000000000e+00  0.0000000000000000e+00  0.0000000000000000e+00  0.0000000000000000e+00  0.0000000000000000e+00  0.0000000000000000e+00  0.0000000000000000e+00  0.0000000000000000e+00  0.0000000000000000e+00  0.0000000000000000e+00  0.0000000000000000e+00  0.0000000000000000e+00  0.0000000000000000e+00  0.0000000000000000e+00  0.0000000000000000e+00  0.0000000000000000e+00  0.0000000000000000e+00  0.0000000000000000e+00  0.0000000000000000e+00  0.0000000000000000e+00  0.0000000000000000e+00  0.0000000000000000e+00  0.0000000000000000e+00  0.0000000000000000e+00  0.0000000000000000e+00  0.0000000000000000e+00  0.0000000000000000e+00  0.0000000000000000e+00  0.0000000000000000e+00  0.0000000000000000e+00  0.0000000000000000e+00  0.0000000000000000e+00  0.0000000000000000e+00  0.0000000000000000e+00  0.0000000000000000e+00  0.0000000000000000e+00  0.0000000000000000e+00  0.0000000000000000e+00  0.0000000000000000e+00  0.0000000000000000e+00  0.0000000000000000e+00  0.0000000000000000e+00  0.0000000000000000e+00  0.0000000000000000e+00  0.0000000000000000e+00  0.0000000000000000e+00  0.0000000000000000e+00  0.0000000000000000e+00  0.0000000000000000e+00  0.0000000000000000e+00  0.0000000000000000e+00  0.0000000000000000e+00  0.0000000000000000e+00  0.0000000000000000e+00  0.0000000000000000e+00  0.0000000000000000e+00  0.0000000000000000e+00  0.0000000000000000e+00  0.0000000000000000e+00  0.0000000000000000e+00  0.0000000000000000e+00  0.0000000000000000e+00  0.0000000000000000e+00  0.0000000000000000e+00  0.0000000000000000e+00  0.0000000000000000e+00  0.0000000000000000e+00  0.0000000000000000e+00  0.0000000000000000e+00  0.0000000000000000e+00  0.0000000000000000e+00  0.0000000000000000e+00  0.0000000000000000e+00  0.0000000000000000e+00  0.0000000000000000e+00  0.0000000000000000e+00  0.0000000000000000e+00  0.0000000000000000e+00  0.0000000000000000e+00  0.0000000000000000e+00  0.0000000000000000e+00  0.0000000000000000e+00  0.0000000000000000e+00  0.0000000000000000e+00  0.0000000000000000e+00  0.0000000000000000e+00  0.0000000000000000e+00  0.0000000000000000e+00  0.0000000000000000e+00  0.0000000000000000e+00  0.0000000000000000e+00  0.0000000000000000e+00  0.0000000000000000e+00  0.0000000000000000e+00  0.0000000000000000e+00  0.0000000000000000e+00  0.0000000000000000e+00  0.0000000000000000e+00  0.0000000000000000e+00  0.0000000000000000e+00  0.0000000000000000e+00  0.0000000000000000e+00  0.0000000000000000e+00  0.0000000000000000e+00  0.0000000000000000e+00  0.0000000000000000e+00  0.0000000000000000e+00  0.0000000000000000e+00  0.0000000000000000e+00  0.0000000000000000e+00  0.0000000000000000e+00  0.0000000000000000e+00  0.0000000000000000e+00  0.0000000000000000e+00  0.0000000000000000e+00  0.0000000000000000e+00  0.0000000000000000e+00  0.0000000000000000e+00  0.0000000000000000e+00  0.0000000000000000e+00  0.0000000000000000e+00  0.0000000000000000e+00  0.0000000000000000e+00  0.0000000000000000e+00  0.0000000000000000e+00  0.0000000000000000e+00  0.0000000000000000e+00  0.0000000000000000e+00  0.0000000000000000e+00  0.0000000000000000e+00  0.0000000000000000e+00  0.0000000000000000e+00  0.0000000000000000e+00  0.0000000000000000e+00  0.0000000000000000e+00  0.0000000000000000e+00  0.0000000000000000e+00  0.0000000000000000e+00  0.0000000000000000e+00  0.0000000000000000e+00  0.0000000000000000e+00  0.0000000000000000e+00  0.0000000000000000e+00  0.0000000000000000e+00  0.0000000000000000e+00  0.0000000000000000e+00  0.0000000000000000e+00  0.0000000000000000e+00  0.0000000000000000e+00  0.0000000000000000e+00  0.0000000000000000e+00  0.0000000000000000e+00  0.0000000000000000e+00  0.0000000000000000e+00  0.0000000000000000e+00  0.0000000000000000e+00  0.0000000000000000e+00  0.0000000000000000e+00  0.0000000000000000e+00  0.0000000000000000e+00  0.0000000000000000e+00  0.0000000000000000e+00  0.0000000000000000e+00  0.0000000000000000e+00  0.0000000000000000e+00  0.0000000000000000e+00  0.0000000000000000e+00  0.0000000000000000e+00  0.0000000000000000e+00  0.0000000000000000e+00  0.0000000000000000e+00  0.0000000000000000e+00  0.0000000000000000e+00  0.0000000000000000e+00  0.0000000000000000e+00  0.0000000000000000e+00  0.0000000000000000e+00  0.0000000000000000e+00  0.0000000000000000e+00  0.0000000000000000e+00  0.0000000000000000e+00  0.0000000000000000e+00  0.0000000000000000e+00  0.0000000000000000e+00  0.0000000000000000e+00  0.0000000000000000e+00  0.0000000000000000e+00  0.0000000000000000e+00  0.0000000000000000e+00  0.0000000000000000e+00  0.0000000000000000e+00  0.0000000000000000e+00  0.0000000000000000e+00  0.0000000000000000e+00  0.0000000000000000e+00  0.0000000000000000e+00  0.0000000000000000e+00  0.0000000000000000e+00  0.0000000000000000e+00  0.0000000000000000e+00  0.0000000000000000e+00  0.0000000000000000e+00  0.0000000000000000e+00  0.0000000000000000e+00  0.0000000000000000e+00  0.0000000000000000e+00  0.0000000000000000e+00  0.0000000000000000e+00  0.0000000000000000e+00  0.0000000000000000e+00  0.0000000000000000e+00  0.0000000000000000e+00  0.0000000000000000e+00  0.0000000000000000e+00  0.0000000000000000e+00  0.0000000000000000e+00  0.0000000000000000e+00  0.0000000000000000e+00  0.0000000000000000e+00  0.0000000000000000e+00  0.0000000000000000e+00  0.0000000000000000e+00  0.0000000000000000e+00  0.0000000000000000e+00  0.0000000000000000e+00  0.0000000000000000e+00  0.0000000000000000e+00  0.0000000000000000e+00  0.0000000000000000e+00  0.0000000000000000e+00  0.0000000000000000e+00  0.0000000000000000e+00  0.0000000000000000e+00  0.0000000000000000e+00  0.0000000000000000e+00  0.0000000000000000e+00  0.0000000000000000e+00  0.0000000000000000e+00  0.0000000000000000e+00  0.0000000000000000e+00  0.0000000000000000e+00  8.0252172377997411e-01  8.1200995810300802e-01  8.5276581549036545e-01  8.5131526349864173e-01  8.2672959472077401e-01  7.8064984282217542e-01  7.8951443225894180e-01  8.3686321854032863e-01  8.1882022317375280e-01  7.7698454760635072e-01  7.9497187841470718e-01  8.0568579614173264e-01  7.6600128526808142e-01  8.2139069793291497e-01  8.1507910380910198e-01  8.1961857912543190e-01  8.4508165519800382e-01  8.1035330949961260e-01  7.9937197120040548e-01  8.2257364839652203e-01  8.1080345954696242e-01  8.1792937580699232e-01  8.1012342418275474e-01  7.9125246701412799e-01  8.1089174336451497e-01  8.3247655903298556e-01  8.0479335751162528e-01  8.1769155782146496e-01  8.4315000405644203e-01  8.3037050391571232e-01  8.1677561310260149e-01  8.1308725804540494e-01  8.2443312506339594e-01  7.5944696271361567e-01  8.2147600052530878e-01  8.0056849342362990e-01  8.1813657203477541e-01  7.9109779051649920e-01  7.9285739899425312e-01  8.2052541882977093e-01  8.5950055144986526e-01  7.7950046504904569e-01  8.2570569029009200e-01  7.9403322313880897e-01  8.0263164319845903e-01  8.1779499458289573e-01  7.4024502398026992e-01  7.7576700874148141e-01  8.1104664497969914e-01  7.9892084103553884e-01  8.1827599100755399e-01  8.3444675236939159e-01  8.1753751357017113e-01  7.8634947999671767e-01  8.0608331058356619e-01  8.1327775667855029e-01  8.3315170802358163e-01  8.1271529849124491e-01  7.6172424372292280e-01  8.0020016271350780e-01  8.0609963417475206e-01  7.9458098115107767e-01  -1.5302086740799142e-31  1.1111842081857852e-31  2.1725572504755956e-34  3.6842678043038227e-34  1.8903750717635570e-31  2.5544069506120674e-31  1.9821441640739810e-36  -3.3695472208041569e-35  -2.8559109763704396e-31  -1.0335798887809283e-31  5.1052889917188143e-32  7.1481748653300220e-32  3.9367480148842027e-32  4.6648493626702370e-32  2.4379188132440305e-30  1.3108810558759096e-30  -3.9073572302061530e-30  1.6974551189986686e-31  -5.6604657079314095e-30  -7.9005032959954533e-30  -1.3163510883847621e-30  -1.4246298098176240e-30  -3.8220130229575688e-30  -4.7072525958456015e-30  -2.8004107761322881e-30  -2.0833476377638148e-30  -6.8961198753090490e-29  1.1749369942469158e-29  -3.1916685808466375e-29  -1.6731271258437541e-28  5.9284890489276935e-30  -1.3779936379289284e-30  -3.5108036220030832e-36  2.3845246209407220e-36  1.8965813236230234e-36  -3.4852479422808083e-36  3.4150684422191563e-33  2.2658732615795575e-33  1.8899994515669131e-33  2.2190432515402168e-33  -7.5854933808537075e-28  8.0421577495558404e-30  -3.2699488286950689e-31  1.2883727783598507e-27  7.7557890189400778e-36  4.5966421089791912e-36  1.0145447024157026e-35  -3.1913622681505575e-38  1.5182158614649177e-39  -3.4788918999261870e-38  1.2218870949090102e-38  -1.9696798787854783e-36  6.4351839670963331e-40  -1.2332605573495689e-37  -2.8542722848960361e-38  -1.0822966253514912e-39  -1.3086400736098270e-37  9.3413238820684377e-40  -7.3270723931169638e-38  -1.4591068937242970e-39  -2.9974410561246330e-40  -3.8283636880979202e-40  -3.1027422760825649e-40  -1.0478995739498118e-41  -1.4956079404069355e-42  3.4685763366499646e-41  4.4856436247295854e-41  -4.0015085892150970e-40  1.2408720428355035e-27  1.6550586550727293e-30  -1.0059385323432054e-30  1.1530962647782316e-27  2.2299030225552986e-30  1.1912431605921417e-30  5.6929425870880196e-30  5.3856449575378096e-30  1.2679698610087233e-30  1.2496785814424311e-30  -9.6994013587816450e-31  -7.2094013007715201e-30  -1.2537972739507849e-30  -3.5478026917625709e-31  2.4686773169562193e-29  4.0995228463469584e-29  -2.4565829748611754e-31  1.2930131899592803e-30  -9.7617203247096525e-31  5.5300560272509078e-31  -1.5832760218813366e-30  -1.2015978441036942e-30  -1.2583687852998241e-32  -1.1575896291772782e-32  -3.1385901338213541e-31  -3.5338296719455935e-31  6.5720704298381492e-33  6.4768450960856988e-33  3.0049057672488846e-35  -1.2506470720096826e-32  2.0404297479563150e-32  -3.0625465815532398e-35  7.0355947254143426e-33  -3.0286949363307887e-35  2.8116187921126034e-35  2.8202071698115056e-32  1.6836890278837524e-42  6.0984162062759194e-42  -1.2420084410600100e-42  -2.5741343877527787e-42  -6.5214359101054646e-43  -1.8610328102285120e-42  2.7280026518382758e-42  2.0014547459065641e-42  2.4479009339087058e-28  1.2019490159081017e-29  2.2343786188131442e-30  1.3021915489621975e-27  4.8119660662798822e-32  -1.4472905572892342e-33  -1.6830879570928334e-33  -1.3463993403748399e-31  1.6703288201210922e-33  1.3284372755432386e-31  2.2681047014477557e-31  1.5331021057644442e-33  -4.7032371087873357e-37  -7.3710465502615901e-34  -3.3362085188160425e-34  -1.8381694531775576e-40  -3.8444078129366980e-37  -1.1023771337099266e-35  -4.5816197457052061e-34  1.1643793979784482e-37  2.5292749199019503e-39  -1.4926732930672462e-40  -1.3280566787211651e-36  -2.5064567431538587e-39  -5.2469730577757551e-37  -2.3597031281783840e-39  7.8706334636521984e-39  -8.4610572782321772e-41  -6.4278102943615517e-37  -3.4607160211771641e-39  9.2349258154452072e-41  -1.3235786195720294e-40  7.3720176273836882e-39  -3.9786312846025435e-41  -3.3331952177725590e-37  -3.2968081094888789e-39  -6.3137115010719496e-43  2.7205873772029909e-43  -4.0809451602016280e-43  -9.5063097477938539e-43  -3.2816453761067780e-28  4.7662366486707420e-29  -1.6148039620547684e-27  3.8716699846791343e-27  6.4962253188340025e-27  -2.3287617616333401e-26  -1.9628390471281345e-26  9.1941322842973771e-26  4.2059307822001868e-26  -2.7416820843085480e-25  -3.0715357777713157e-26  5.7202163487164949e-25  -2.5819388177140569e-25  -3.5433421104218378e-25  1.7281157090233454e-24  -3.8868711950322767e-24  -6.8193366584119601e-24  2.4808937283537145e-23  1.9941990868144547e-23  -9.6000817732932639e-23  -4.1754466268936257e-23  -5.8255228741147836e-23  2.7666264835802099e-22  3.6370134466216461e-23  -5.6262386632688612e-22  1.7168264746933612e-22  3.8693429300248206e-22  -1.0526577728051381e-21  2.7381505028142047e-21  3.2145732906540224e-21  -1.5217850715249544e-20  -5.3202971756243573e-21  3.7141169451726862e-21  4.4046021734713809e-20  -3.4055541780255534e-21  -6.2186133387239312e-20  5.2922371878622089e-20  -9.2534857831688820e-20  -1.6590711409610626e-19  8.0705348272341943e-19  1.8531869278954595e-19  -2.1353696477027237e-18  5.6501060510618752e-19  -1.9599705850730824e-18  1.2624572331765275e-18  -2.9379379102070688e-18  1.0866327349769218e-17  4.3727601472793771e-18  1.3572949757025359e-19  -3.0852080313722150e-18  7.5613789452665207e-18  6.0446709454980132e-18  -1.5884403003077175e-19  -3.0520942576858963e-18  6.2743863834321036e-19  -1.7663443002549413e-19  6.0573725839737721e-18  -2.9999779484189201e-18  5.8359192409146118e-19  6.9493781622481434e-20  -1.7681848977264001e-19  4.4367531013902801e-19  -2.7370952456929803e-18  3.9436563209931917e-19  -1.8239063562142819e-19  2.3654811074416352e-19  -2.0606774290990646e-18  5.7578101744905422e-19  -1.5298805761052788e-19  4.2055863346324629e-20  -1.1865021646615502e-18  5.7965532070605194e-19  -1.8711416109102847e-18  3.1886958988242347e-20  -2.5550217735190891e-19  4.7822052872713697e-18  -2.2498592131632145e-18  6.8972487577812087e-18  1.2260662410057901e-18  -2.5295337395629518e-17  1.4858153797017983e-17  -7.9816362701699664e-17  -1.9963558410286024e-18  2.2622579540668582e-17  -5.2628089054101469e-17  -8.8028697269127716e-18  1.5677820325791252e-16  -8.2342130939458701e-17  4.3439057246265906e-16  -1.3149105820586712e-16  4.5450372262112704e-16  -8.0977850831513262e-17  8.9972364117614437e-17  3.4419953356071684e-17  -2.8492626143676697e-16  3.1705015180029330e-17  1.0538543224234046e-17  -2.3005271340296451e-01  8.2734108674246121e-17  -2.1908560828361996e-16  8.1359106029514359e-18  1.8073238042611231e-16  -2.4332765056837771e-01  -9.0459698107973460e-17  4.1505511306922371e-16  -2.2779585625354082e-01  -1.0304747984349205e-16  2.8648109628287491e-16  -1.4515186145464304e-15  -5.7556902897057397e-16  4.1109391854153681e-17  1.5148292628569242e-16  -1.8671798281461565e-15  2.9025819906205623e-17  -7.5241848245319620e-17  2.8775590504296675e-16  -1.0619882143897378e-15  -8.0971533182316723e-16  1.3089744240653885e-16  -1.8995776979146789e-16  1.7425298259498569e-15  -3.6828702825896252e-18  7.5790565618987146e-17  -2.7994273138324489e-16  1.1221568714378827e-15  4.2290267838447513e-16  2.3478333248845076e-17  -3.7702716327792360e-16  7.6307265257827542e-16  1.0360997630678750e-15  -6.5318167512917885e-17  -4.5706632948771552e-16  -2.5331805327472280e-17  1.8796376781869471e-15  -2.1510777695119710e-16  -4.2654584169525790e-16  -1.4683877181555911e-15  2.5329455620666664e-15  -1.0275564488491242e-14  -2.2317860600371378e-15  -4.4108925355619356e-16  2.8562175511713422e-15  -1.2132091057231357e-14  -1.3207458426969568e-15  -6.2704730851043516e-16  2.6309507658521679e-15  -1.3841500747671857e-14  1.1640610664172762e-15  1.5435234402992233e-14  -1.1877860786684966e-14  5.2808034142866110e-14  -2.9445861090710334e-15  3.1805998370558828e-15  -5.0163992443534095e-15  3.6046318699120791e-14  -8.7870205522415211e-15  4.1788233437107273e-15  1.5288033489404337e-14  -1.1045228802317155e-13  3.1590969358993688e-14  -5.4733315124667564e-14  -2.8626720768186897e-14  -3.0149717176616114e-15  2.3060822146608280e-14  -1.4622114403422180e-13  5.2351733778721710e-14  -2.2998900515640679e-13  6.6221779691120164e-14  -2.5494089147329344e-13  7.0572191095638706e-14  -2.7413062404311679e-13  7.8577604109434111e-14  -3.1319719913205683e-13  8.9084029440044231e-14  -3.4108083322538407e-13  8.9439553409911381e-14  -3.0454890764811222e-13  6.6979210426749313e-14  -1.7716855470403512e-13  2.5924145809037629e-14  -2.2768063570836679e-14  -7.4859118282652529e-15  5.3537529739883234e-14  -1.3635742218711018e-14  3.2961777855912304e-14  -3.3985206918717079e-15  -3.6598001556940264e-15  2.4619672324481412e-15  -1.2648277929014411e-16  -2.8472105552833947e-16  1.5391026314744023e-16  2.9532617424643812e-19  -3.9528579900644221e-17  9.7934924493079963e-18  5.6805895930891099e-18  -2.8451408566043429e-18  -1.3810054238119774e-19  -3.1882062664344684e-18  4.6513659391503701e-19  -1.8418067313348006e-14  8.9935626158657846e-19  -1.7835366985657274e-18  5.3863282857756951e-20  9.0240903337841238e-19  -2.4277835693651035e-19  4.0990336172510292e-19  2.1895320292636270e-22  