<?xml version="1.0"?>
<VTKFile type="UnstructuredGrid"  version="0.1"  >
<UnstructuredGrid>
<Piece  NumberOfPoints="11902" NumberOfCells="23402">
<Points>
<DataArray  type="Float64"  NumberOfComponents="3"  format="ascii">-5 -5 0  5 -5 0  5 5 0  -5 5 0  1.166341066014254 0.001108648441163128 0  -4.9 -5 0  -4.8 -5 0  -4.7 -5 0  -4.6 -5 0  -4.5 -5 0  -4.4 -5 0  -4.3 -5 0  -4.2 -5 0  -4.1 -5 0  -4 -5 0  -3.9 -5 0  -3.8 -5 0  -3.7 -5 0  -3.6 -5 0  -3.5 -5 0  -3.4 -5 0  -3.3 -5 0  -3.2 -5 0  -3.1 -5 0  -3 -5 0  -2.9 -5 0  -2.8 -5 0  -2.7 -5 0  -2.6 -5 0  -2.5 -5 0  -2.4 -5 0  -2.3 -5 0  -2.2 -5 0  -2.1 -5 0  -2 -5 0  -1.9 -5 0  -1.8 -5 0  -1.7 -5 0  -1.6 -5 0  -1.5 -5 0  -1.4 -5 0  -1.3 -5 0  -1.2 -5 0  -1.1 -5 0  -1 -5 0  -0.9000000000000004 -5 0  -0.7999999999999998 -5 0  -0.7000000000000002 -5 0  -0.5999999999999996 -5 0  -0.5 -5 0  -0.4000000000000004 -5 0  -0.2999999999999998 -5 0  -0.2000000000000002 -5 0  -0.09999999999999964 -5 0  0 -5 0  0.09999999999999964 -5 0  0.2000000000000002 -5 0  0.2999999999999998 -5 0  0.4000000000000004 -5 0  0.5 -5 0  0.5999999999999996 -5 0  0.7000000000000002 -5 0  0.7999999999999998 -5 0  0.9000000000000004 -5 0  1 -5 0  1.1 -5 0  1.2 -5 0  1.3 -5 0  1.4 -5 0  1.5 -5 0  1.6 -5 0  1.7 -5 0  1.8 -5 0  1.9 -5 0  2 -5 0  2.1 -5 0  2.2 -5 0  2.3 -5 0  2.4 -5 0  2.5 -5 0  2.6 -5 0  2.7 -5 0  2.8 -5 0  2.9 -5 0  3 -5 0  3.1 -5 0  3.199999999999999 -5 0  3.300000000000001 -5 0  3.4 -5 0  3.5 -5 0  3.6 -5 0  3.699999999999999 -5 0  3.800000000000001 -5 0  3.9 -5 0  4 -5 0  4.1 -5 0  4.199999999999999 -5 0  4.300000000000001 -5 0  4.4 -5 0  4.5 -5 0  4.6 -5 0  4.699999999999999 -5 0  4.800000000000001 -5 0  4.9 -5 0  5 -4.9 0  5 -4.8 0  5 -4.7 0  5 -4.6 0  5 -4.5 0  5 -4.4 0  5 -4.3 0  5 -4.2 0  5 -4.1 0  5 -4 0  5 -3.9 0  5 -3.8 0  5 -3.7 0  5 -3.6 0  5 -3.5 0  5 -3.4 0  5 -3.3 0  5 -3.2 0  5 -3.1 0  5 -3 0  5 -2.9 0  5 -2.8 0  5 -2.7 0  5 -2.6 0  5 -2.5 0  5 -2.4 0  5 -2.3 0  5 -2.2 0  5 -2.1 0  5 -2 0  5 -1.9 0  5 -1.8 0  5 -1.7 0  5 -1.6 0  5 -1.5 0  5 -1.4 0  5 -1.3 0  5 -1.2 0  5 -1.1 0  5 -1 0  5 -0.9000000000000004 0  5 -0.7999999999999998 0  5 -0.7000000000000002 0  5 -0.5999999999999996 0  5 -0.5 0  5 -0.4000000000000004 0  5 -0.2999999999999998 0  5 -0.2000000000000002 0  5 -0.09999999999999964 0  5 0 0  5 0.09999999999999964 0  5 0.2000000000000002 0  5 0.2999999999999998 0  5 0.4000000000000004 0  5 0.5 0  5 0.5999999999999996 0  5 0.7000000000000002 0  5 0.7999999999999998 0  5 0.9000000000000004 0  5 1 0  5 1.1 0  5 1.2 0  5 1.3 0  5 1.4 0  5 1.5 0  5 1.6 0  5 1.7 0  5 1.8 0  5 1.9 0  5 2 0  5 2.1 0  5 2.2 0  5 2.3 0  5 2.4 0  5 2.5 0  5 2.6 0  5 2.7 0  5 2.8 0  5 2.9 0  5 3 0  5 3.1 0  5 3.199999999999999 0  5 3.300000000000001 0  5 3.4 0  5 3.5 0  5 3.6 0  5 3.699999999999999 0  5 3.800000000000001 0  5 3.9 0  5 4 0  5 4.1 0  5 4.199999999999999 0  5 4.300000000000001 0  5 4.4 0  5 4.5 0  5 4.6 0  5 4.699999999999999 0  5 4.800000000000001 0  5 4.9 0  4.9 5 0  4.8 5 0  4.7 5 0  4.6 5 0  4.5 5 0  4.4 5 0  4.3 5 0  4.2 5 0  4.1 5 0  4 5 0  3.9 5 0  3.8 5 0  3.7 5 0  3.6 5 0  3.5 5 0  3.4 5 0  3.3 5 0  3.2 5 0  3.1 5 0  3 5 0  2.9 5 0  2.8 5 0  2.7 5 0  2.6 5 0  2.5 5 0  2.4 5 0  2.3 5 0  2.2 5 0  2.1 5 0  2 5 0  1.9 5 0  1.8 5 0  1.7 5 0  1.6 5 0  1.5 5 0  1.4 5 0  1.3 5 0  1.2 5 0  1.1 5 0  1 5 0  0.9000000000000004 5 0  0.7999999999999998 5 0  0.7000000000000002 5 0  0.5999999999999996 5 0  0.5 5 0  0.4000000000000004 5 0  0.2999999999999998 5 0  0.2000000000000002 5 0  0.09999999999999964 5 0  0 5 0  -0.09999999999999964 5 0  -0.2000000000000002 5 0  -0.2999999999999998 5 0  -0.4000000000000004 5 0  -0.5 5 0  -0.5999999999999996 5 0  -0.7000000000000002 5 0  -0.7999999999999998 5 0  -0.9000000000000004 5 0  -1 5 0  -1.1 5 0  -1.2 5 0  -1.3 5 0  -1.4 5 0  -1.5 5 0  -1.6 5 0  -1.7 5 0  -1.8 5 0  -1.9 5 0  -2 5 0  -2.1 5 0  -2.2 5 0  -2.3 5 0  -2.4 5 0  -2.5 5 0  -2.6 5 0  -2.7 5 0  -2.8 5 0  -2.9 5 0  -3 5 0  -3.1 5 0  -3.199999999999999 5 0  -3.300000000000001 5 0  -3.4 5 0  -3.5 5 0  -3.6 5 0  -3.699999999999999 5 0  -3.800000000000001 5 0  -3.9 5 0  -4 5 0  -4.1 5 0  -4.199999999999999 5 0  -4.300000000000001 5 0  -4.4 5 0  -4.5 5 0  -4.6 5 0  -4.699999999999999 5 0  -4.800000000000001 5 0  -4.9 5 0  -5 4.9 0  -5 4.8 0  -5 4.7 0  -5 4.6 0  -5 4.5 0  -5 4.4 0  -5 4.3 0  -5 4.2 0  -5 4.1 0  -5 4 0  -5 3.9 0  -5 3.8 0  -5 3.7 0  -5 3.6 0  -5 3.5 0  -5 3.4 0  -5 3.3 0  -5 3.2 0  -5 3.1 0  -5 3 0  -5 2.9 0  -5 2.8 0  -5 2.7 0  -5 2.6 0  -5 2.5 0  -5 2.4 0  -5 2.3 0  -5 2.2 0  -5 2.1 0  -5 2 0  -5 1.9 0  -5 1.8 0  -5 1.7 0  -5 1.6 0  -5 1.5 0  -5 1.4 0  -5 1.3 0  -5 1.2 0  -5 1.1 0  -5 1 0  -5 0.9000000000000004 0  -5 0.7999999999999998 0  -5 0.7000000000000002 0  -5 0.5999999999999996 0  -5 0.5 0  -5 0.4000000000000004 0  -5 0.2999999999999998 0  -5 0.2000000000000002 0  -5 0.09999999999999964 0  -5 0 0  -5 -0.09999999999999964 0  -5 -0.2000000000000002 0  -5 -0.2999999999999998 0  -5 -0.4000000000000004 0  -5 -0.5 0  -5 -0.5999999999999996 0  -5 -0.7000000000000002 0  -5 -0.7999999999999998 0  -5 -0.9000000000000004 0  -5 -1 0  -5 -1.1 0  -5 -1.2 0  -5 -1.3 0  -5 -1.4 0  -5 -1.5 0  -5 -1.6 0  -5 -1.7 0  -5 -1.8 0  -5 -1.9 0  -5 -2 0  -5 -2.1 0  -5 -2.2 0  -5 -2.3 0  -5 -2.4 0  -5 -2.5 0  -5 -2.6 0  -5 -2.7 0  -5 -2.8 0  -5 -2.9 0  -5 -3 0  -5 -3.1 0  -5 -3.199999999999999 0  -5 -3.300000000000001 0  -5 -3.4 0  -5 -3.5 0  -5 -3.6 0  -5 -3.699999999999999 0  -5 -3.800000000000001 0  -5 -3.9 0  -5 -4 0  -5 -4.1 0  -5 -4.199999999999999 0  -5 -4.300000000000001 0  -5 -4.4 0  -5 -4.5 0  -5 -4.6 0  -5 -4.699999999999999 0  -5 -4.800000000000001 0  -5 -4.9 0  1.16066462335908 0.09988329669926971 0  1.142762903291645 0.198673763477674 0  1.112616478342501 0.2962589277911508 0  1.073311648313811 0.3886740087976089 0  1.022496262090808 0.4795455558351002 0  0.9623196243016086 0.5649460341740216 0  0.8916480546534603 0.6447206799590146 0  0.8116412414083619 0.7175663132625566 0  0.7246096307177315 0.7835582079086778 0  0.6300706280934352 0.842294636603287 0  0.5286020266188265 0.8926293462859316 0  0.4224094297560556 0.9341933366794466 0  0.3136408870097082 0.9668783615133661 0  0.2002752290707512 0.9892139488887661 0  0.08696551121703591 1.002782799690828 0  -0.027500268069222 1.005451561509211 0  -0.1418945295878984 0.9967021380687108 0  -0.2561169138509367 0.9793715031681304 0  -0.3676845926448922 0.9527761208243265 0  -0.4748567400812946 0.9161309242530784 0  -0.5770794547783071 0.8707483951600635 0  -0.6742088031305284 0.8160582893182079 0  -0.7645452777459838 0.753483433062281 0  -0.8478896936323984 0.6834487606925379 0  -0.9235688219691227 0.6056135366808869 0  -0.9893705200634744 0.5227766122736951 0  -1.046062454126133 0.4353820272057274 0  -1.091672763850142 0.3428618170761598 0  -1.125958548103699 0.2479363310570289 0  -1.149171849392775 0.1505468306662279 0  -1.160980680163268 0.0508673611251154 0  -1.16099855142006 -0.04942162052816183 0  -1.149181906451864 -0.1488505871306923 0  -1.127114679592501 -0.2462488522965291 0  -1.091427009591005 -0.3423788014610696 0  -1.046428064520263 -0.434108834076949 0  -0.9901771069790839 -0.5217772137370535 0  -0.9247124906391289 -0.6042339340907368 0  -0.8491559251840112 -0.6810857139809799 0  -0.7652986349617179 -0.7504772113570944 0  -0.6740123386535573 -0.8119879621871637 0  -0.5774263256336292 -0.8665838860314564 0  -0.4727890332214426 -0.9126582490274628 0  -0.3653613271967573 -0.9503399300995665 0  -0.2538072671519297 -0.9778613153498418 0  -0.1405449055766912 -0.9956686477816112 0  -0.02682109684042311 -1.00474099565381 0  0.08753559547477878 -1.001069657724383 0  0.2023785476471595 -0.9873574231051006 0  0.3147960272753624 -0.9653020197158196 0  0.4252002934849941 -0.9328286931892208 0  0.5298781815629915 -0.8916357785334238 0  0.6306820849820722 -0.8416716750265857 0  0.7248336037670698 -0.7843073680744819 0  0.8117679082954325 -0.7181197467971905 0  0.891218801317349 -0.6441491952104332 0  0.9612158511796973 -0.5642306135651385 0  1.022495127628182 -0.4790509944966575 0  1.074397465636459 -0.3887777471686596 0  1.113858364749938 -0.2951826264720157 0  1.142923625969524 -0.1979577153247256 0  1.160676392618487 -0.09947719472395619 0  -2.448928855044696 4.918790966951066 0  -2.448835981043329 -4.911230638617045 0  4.911171983205276 2.448421885012837 0  4.919229115714332 -2.449835638635442 0  2.446631013427824 -4.896590629229504 0  2.441049429496908 4.900325323808912 0  -4.911192960242334 -2.448442572974221 0  -4.911192004864053 2.448446403261938 0  -1.74889628985761 4.911978755279465 0  -1.74466657911949 -4.915381468369187 0  4.921547450228885 1.74454702603169 0  4.910210441716789 -1.748377946686251 0  -4.910492860525178 -1.748104139817007 0  -4.911307667433317 1.747843352022853 0  1.746192805430166 4.905907528919813 0  1.747654397508422 -4.894178520268538 0  -1.14912994890346 4.909967359489674 0  -1.129956893544712 -4.917784573214226 0  -4.91047402080731 -1.148337599071851 0  -4.910296542931899 1.148137465670055 0  1.144105744311424 -4.914017434976916 0  1.149136225791592 4.909957355175792 0  4.910624744153989 1.146616244044506 0  4.921299356673365 -1.152350541849702 0  -0.546819530236513 -4.911257891539715 0  -0.5465867614194047 4.919826933400147 0  -4.909418745470473 -0.548936426243973 0  -4.909443523508535 0.5474915990383459 0  4.908763072107219 -0.549259086945301 0  4.9202314617974 0.5459853740866667 0  0.5426159657005123 -4.898318429983844 0  0.5513181413220452 4.916693948288973 0  -4.912379128296306 -3.048710100381625 0  4.91891784776697 3.046699386052896 0  4.911892395485198 -3.048692519076817 0  -4.913224606080777 3.045798283950089 0  3.055615518890637 -4.917864346222722 0  -3.048969658883986 -4.911833242430663 0  3.05252982079193 4.913902143605892 0  -3.048413470925205 4.912718833651661 0  -4.908606264020845 -0.04993045285595107 0  0.0451293028492402 -4.913218019290712 0  0.04957777310182062 4.920149464878674 0  4.915556693035598 -0.05131111672229517 0  3.5458678774206 -4.919363514280745 0  -3.549170436889193 4.91
[...]
<PointData  Scalars="f_27"> 
<DataArray  type="Float64"  Name="f_27"  format="ascii">0.0000000000000000e+00  0.0000000000000000e+00  0.0000000000000000e+00  0.0000000000000000e+00  7.9470122412912669e-01  0.0000000000000000e+00  0.0000000000000000e+00  0.0000000000000000e+00  0.0000000000000000e+00  0.0000000000000000e+00  0.0000000000000000e+00  0.0000000000000000e+00  0.0000000000000000e+00  0.0000000000000000e+00  0.0000000000000000e+00  0.0000000000000000e+00  0.0000000000000000e+00  0.0000000000000000e+00  0.0000000000000000e+00  0.0000000000000000e+00  0.0000000000000000e+00  0.0000000000000000e+00  0.0000000000000000e+00  0.0000000000000000e+00  0.0000000000000000e+00  0.0000000000000000e+00  0.0000000000000000e+00  0.0000000000000000e+00  0.0000000000000000e+00  0.0000000000000000e+00  0.0000000000000000e+00  0.0000000000000000e+00  0.0000000000000000e+00  0.0000000000000000e+00  0.0000000000000000e+00  0.0000000000000000e+00  0.0000000000000000e+00  0.0000000000000000e+00  0.0000000000000000e+00  0.0000000000000000e+00  0.0000000000000000e+00  0.0000000000000000e+00  0.0000000000000000e+00  0.0000000000000000e+00  0.0000000000000000e+00  0.0000000000000000e+00  0.0000000000000000e+00  0.0000000000000000e+00  0.0000000000000000e+00  0.0000000000000000e+00  0.0000000000000000e+00  0.0000000000000000e+00  0.0000000000000000e+00  0.0000000000000000e+00  0.0000000000000000e+00  0.0000000000000000e+00  0.0000000000000000e+00  0.0000000000000000e+00  0.0000000000000000e+00  0.0000000000000000e+00  0.0000000000000000e+00  0.0000000000000000e+00  0.0000000000000000e+00  0.0000000000000000e+00  0.0000000000000000e+00  0.0000000000000000e+00  0.0000000000000000e+00  0.0000000000000000e+00  0.0000000000000000e+00  0.0000000000000000e+00  0.0000000000000000e+00  0.0000000000000000e+00  0.0000000000000000e+00  0.0000000000000000e+00  0.0000000000000000e+00  0.0000000000000000e+00  0.0000000000000000e+00  0.0000000000000000e+00  0.0000000000000000e+00  0.0000000000000000e+00  0.0000000000000000e+00  0.0000000000000000e+00  0.0000000000000000e+00  0.0000000000000000e+00  0.0000000000000000e+00  0.0000000000000000e+00  0.0000000000000000e+00  0.0000000000000000e+00  0.0000000000000000e+00  0.0000000000000000e+00  0.0000000000000000e+00  0.0000000000000000e+00  0.0000000000000000e+00  0.0000000000000000e+00  0.0000000000000000e+00  0.0000000000000000e+00  0.0000000000000000e+00  0.0000000000000000e+00  0.0000000000000000e+00  0.0000000000000000e+00  0.0000000000000000e+00  0.0000000000000000e+00  0.0000000000000000e+00  0.0000000000000000e+00  0.0000000000000000e+00  0.0000000000000000e+00  0.0000000000000000e+00  0.0000000000000000e+00  0.0000000000000000e+00  0.0000000000000000e+00  0.0000000000000000e+00  0.0000000000000000e+00  0.0000000000000000e+00  0.0000000000000000e+00  0.0000000000000000e+00  0.0000000000000000e+00  0.0000000000000000e+00  0.0000000000000000e+00  0.0000000000000000e+00  0.0000000000000000e+00  0.0000000000000000e+00  0.0000000000000000e+00  0.0000000000000000e+00  0.0000000000000000e+00  0.0000000000000000e+00  0.0000000000000000e+00  0.0000000000000000e+00  0.0000000000000000e+00  0.0000000000000000e+00  0.0000000000000000e+00  0.0000000000000000e+00  0.0000000000000000e+00  0.0000000000000000e+00  0.0000000000000000e+00  0.0000000000000000e+00  0.0000000000000000e+00  0.0000000000000000e+00  0.0000000000000000e+00  0.0000000000000000e+00  0.0000000000000000e+00  0.0000000000000000e+00  0.0000000000000000e+00  0.0000000000000000e+00  0.0000000000000000e+00  0.0000000000000000e+00  0.0000000000000000e+00  0.0000000000000000e+00  0.0000000000000000e+00  0.0000000000000000e+00  0.0000000000000000e+00  0.0000000000000000e+00  0.0000000000000000e+00  0.0000000000000000e+00  0.0000000000000000e+00  0.0000000000000000e+00  0.0000000000000000e+00  0.0000000000000000e+00  0.0000000000000000e+00  0.0000000000000000e+00  0.0000000000000000e+00  0.0000000000000000e+00  0.0000000000000000e+00  0.0000000000000000e+00  0.0000000000000000e+00  0.0000000000000000e+00  0.0000000000000000e+00  0.0000000000000000e+00  0.0000000000000000e+00  0.0000000000000000e+00  0.0000000000000000e+00  0.0000000000000000e+00  0.0000000000000000e+00  0.0000000000000000e+00  0.0000000000000000e+00  0.0000000000000000e+00  0.0000000000000000e+00  0.0000000000000000e+00  0.0000000000000000e+00  0.0000000000000000e+00  0.0000000000000000e+00  0.0000000000000000e+00  0.0000000000000000e+00  0.0000000000000000e+00  0.0000000000000000e+00  0.0000000000000000e+00  0.0000000000000000e+00  0.0000000000000000e+00  0.0000000000000000e+00  0.0000000000000000e+00  0.0000000000000000e+00  0.0000000000000000e+00  0.0000000000000000e+00  0.0000000000000000e+00  0.0000000000000000e+00  0.0000000000000000e+00  0.0000000000000000e+00  0.0000000000000000e+00  0.0000000000000000e+00  0.0000000000000000e+00  0.0000000000000000e+00  0.0000000000000000e+00  0.0000000000000000e+00  0.0000000000000000e+00  0.0000000000000000e+00  0.0000000000000000e+00  0.0000000000000000e+00  0.0000000000000000e+00  0.0000000000000000e+00  0.0000000000000000e+00  0.0000000000000000e+00  0.0000000000000000e+00  0.0000000000000000e+00  0.0000000000000000e+00  0.0000000000000000e+00  0.0000000000000000e+00  0.0000000000000000e+00  0.0000000000000000e+00  0.0000000000000000e+00  0.0000000000000000e+00  0.0000000000000000e+00  0.0000000000000000e+00  0.0000000000000000e+00  0.0000000000000000e+00  0.0000000000000000e+00  0.0000000000000000e+00  0.0000000000000000e+00  0.0000000000000000e+00  0.0000000000000000e+00  0.0000000000000000e+00  0.0000000000000000e+00  0.0000000000000000e+00  0.0000000000000000e+00  0.0000000000000000e+00  0.0000000000000000e+00  0.0000000000000000e+00  0.0000000000000000e+00  0.0000000000000000e+00  0.0000000000000000e+00  0.0000000000000000e+00  0.0000000000000000e+00  0.0000000000000000e+00  0.0000000000000000e+00  0.0000000000000000e+00  0.0000000000000000e+00  0.0000000000000000e+00  0.0000000000000000e+00  0.0000000000000000e+00  0.0000000000000000e+00  0.0000000000000000e+00  0.0000000000000000e+00  0.0000000000000000e+00  0.0000000000000000e+00  0.0000000000000000e+00  0.0000000000000000e+00  0.0000000000000000e+00  0.0000000000000000e+00  0.0000000000000000e+00  0.0000000000000000e+00  0.0000000000000000e+00  0.0000000000000000e+00  0.0000000000000000e+00  0.0000000000000000e+00  0.0000000000000000e+00  0.0000000000000000e+00  0.0000000000000000e+00  0.0000000000000000e+00  0.0000000000000000e+00  0.0000000000000000e+00  0.0000000000000000e+00  0.0000000000000000e+00  0.0000000000000000e+00  0.0000000000000000e+00  0.0000000000000000e+00  0.0000000000000000e+00  0.0000000000000000e+00  0.0000000000000000e+00  0.0000000000000000e+00  0.0000000000000000e+00  0.0000000000000000e+00  0.0000000000000000e+00  0.0000000000000000e+00  0.0000000000000000e+00  0.0000000000000000e+00  0.0000000000000000e+00  0.0000000000000000e+00  0.0000000000000000e+00  0.0000000000000000e+00  0.0000000000000000e+00  0.0000000000000000e+00  0.0000000000000000e+00  0.0000000000000000e+00  0.0000000000000000e+00  0.0000000000000000e+00  0.0000000000000000e+00  0.0000000000000000e+00  0.0000000000000000e+00  0.0000000000000000e+00  0.0000000000000000e+00  0.0000000000000000e+00  0.0000000000000000e+00  0.0000000000000000e+00  0.0000000000000000e+00  0.0000000000000000e+00  0.0000000000000000e+00  0.0000000000000000e+00  0.0000000000000000e+00  0.0000000000000000e+00  0.0000000000000000e+00  0.0000000000000000e+00  0.0000000000000000e+00  0.0000000000000000e+00  0.0000000000000000e+00  0.0000000000000000e+00  0.0000000000000000e+00  0.0000000000000000e+00  0.0000000000000000e+00  0.0000000000000000e+00  0.0000000000000000e+00  0.0000000000000000e+00  0.0000000000000000e+00  0.0000000000000000e+00  0.0000000000000000e+00  0.0000000000000000e+00  0.0000000000000000e+00  0.0000000000000000e+00  0.0000000000000000e+00  0.0000000000000000e+00  0.0000000000000000e+00  0.0000000000000000e+00  0.0000000000000000e+00  0.0000000000000000e+00  0.0000000000000000e+00  0.0000000000000000e+00  0.0000000000000000e+00  0.0000000000000000e+00  0.0000000000000000e+00  0.0000000000000000e+00  0.0000000000000000e+00  0.0000000000000000e+00  0.0000000000000000e+00  0.0000000000000000e+00  0.0000000000000000e+00  0.0000000000000000e+00  0.0000000000000000e+00  0.0000000000000000e+00  0.0000000000000000e+00  0.0000000000000000e+00  0.0000000000000000e+00  0.0000000000000000e+00  0.0000000000000000e+00  0.0000000000000000e+00  0.0000000000000000e+00  0.0000000000000000e+00  0.0000000000000000e+00  0.0000000000000000e+00  0.0000000000000000e+00  0.0000000000000000e+00  0.0000000000000000e+00  0.0000000000000000e+00  0.0000000000000000e+00  0.0000000000000000e+00  0.0000000000000000e+00  0.0000000000000000e+00  0.0000000000000000e+00  0.0000000000000000e+00  0.0000000000000000e+00  0.0000000000000000e+00  0.0000000000000000e+00  0.0000000000000000e+00  0.0000000000000000e+00  0.0000000000000000e+00  0.0000000000000000e+00  0.0000000000000000e+00  0.0000000000000000e+00  0.0000000000000000e+00  0.0000000000000000e+00  0.0000000000000000e+00  0.0000000000000000e+00  0.0000000000000000e+00  0.0000000000000000e+00  0.0000000000000000e+00  0.0000000000000000e+00  0.0000000000000000e+00  0.0000000000000000e+00  0.0000000000000000e+00  0.0000000000000000e+00  0.0000000000000000e+00  0.0000000000000000e+00  0.0000000000000000e+00  0.0000000000000000e+00  0.0000000000000000e+00  0.0000000000000000e+00  0.0000000000000000e+00  0.0000000000000000e+00  0.0000000000000000e+00  0.0000000000000000e+00  0.0000000000000000e+00  0.0000000000000000e+00  0.0000000000000000e+00  0.0000000000000000e+00  0.0000000000000000e+00  7.8784992329457093e-01  7.9773310943363829e-01  8.4144056851034954e-01  8.3971399569304217e-01  8.1330114866480319e-01  7.6448100465493996e-01  7.7374031796550868e-01  8.2426661426149006e-01  8.0499915775060582e-01  7.6040603125487782e-01  7.7934822052700581e-01  7.9104127473522168e-01  7.4849094155860685e-01  8.0746627737678900e-01  8.0085294130949247e-01  8.0582682644929449e-01  8.3285383596903018e-01  7.9558068364430679e-01  7.8421710675729039e-01  8.0896687813451584e-01  7.9628422073985361e-01  8.0387840047839088e-01  7.9568587504039556e-01  7.7550624904069831e-01  7.9651224710289215e-01  8.1968893932132503e-01  7.9005929031746769e-01  8.0396433886371299e-01  8.3101551123619222e-01  8.1739335288178805e-01  8.0284400700825320e-01  7.9903376927934799e-01  8.1128469647339752e-01  7.4219072460765523e-01  8.0788292263845640e-01  7.8577247830702923e-01  8.0439206757706749e-01  7.7550901015203044e-01  7.7722563596327654e-01  8.0682124317527182e-01  8.4850711357442876e-01  7.6321259081970871e-01  8.1223465070279688e-01  7.7853809535855478e-01  7.8745533832901038e-01  8.0377311712726662e-01  7.2168689284582710e-01  7.5912386178857949e-01  7.9646795334536635e-01  7.8350854326963948e-01  8.0431964155849456e-01  8.2148253216176925e-01  8.0347719154113983e-01  7.7050181853142874e-01  7.9134914128055456e-01  7.9905885093321938e-01  8.2030385441620191e-01  7.9837436157010910e-01  7.4444149658073766e-01  7.8536360211992795e-01  7.9165719037921034e-01  7.7931810899502896e-01  -1.6087312252536585e-31  1.1628363596014864e-31  2.2803562281068298e-34  3.8612179582042784e-34  1.9882997932098947e-31  2.6710245593431196e-31  1.5473889136328782e-36  -3.6489719787339097e-35  -2.9413054396723186e-31  -1.0666426320221008e-31  5.3572020912822172e-32  7.4730197124651497e-32  4.1142759542097474e-32  4.8595985011251913e-32  2.5411526804612399e-30  1.3682500522495475e-30  -4.0864214937838199e-30  1.8484551217988812e-31  -5.9203921102152511e-30  -8.2585194522495375e-30  -1.3810128851246745e-30  -1.4905572345679387e-30  -4.0117368717183182e-30  -4.9094405808545696e-30  -2.9336412848308259e-30  -2.1884600013515920e-30  -7.3358293136890050e-29  1.1781135556818322e-29  -3.3506510512464324e-29  -1.7604246698684732e-28  6.2085660292025313e-30  -1.4496778173277523e-30  -3.6787480395938685e-36  2.4993839150692799e-36  1.9844700581180523e-36  -3.6585675315927482e-36  3.5846804314352812e-33  2.3957048287976884e-33  1.9906866383010360e-33  2.3291192254911878e-33  -7.9815023723367197e-28  8.4207405199519951e-30  -3.3157495621224252e-31  1.3504623005159861e-27  8.1365019616119089e-36  4.8155890073229056e-36  1.0648249129791131e-35  -3.3497702184316345e-38  1.7740564848788165e-39  -3.6436412359229253e-38  1.2979604510831945e-38  -2.0928627928161861e-36  6.7178814080033906e-40  -1.2962085857650264e-37  -3.0264277662250138e-38  -1.1365049945745550e-39  -1.3748147463213311e-37  9.7975973686159110e-40  -7.7124025158413873e-38  -1.5339484181784357e-39  -3.1345831387500955e-40  -4.0209441263423762e-40  -3.2506425524374996e-40  -1.0959410661088200e-41  -1.4740626607013914e-42  3.6356256201669685e-41  4.7102024032998220e-41  -4.2033345665106769e-40  1.3024021514965842e-27  1.7228400440956839e-30  -1.0504190782313020e-30  1.2077073886563085e-27  2.3610800025733135e-30  1.2447605103102335e-30  5.9646454088375780e-30  5.7083589853844203e-30  1.3261362509649937e-30  1.3061372545739237e-30  -1.0001185677201037e-30  -7.5496304738748541e-30  -1.3088667775372124e-30  -3.7008876035298775e-31  2.5737360069702004e-29  4.2927159912911724e-29  -2.5577554169953059e-31  1.3461532243691825e-30  -1.0435245011820081e-30  5.7829668493934845e-31  -1.6598563996576079e-30  -1.2501348129612922e-30  -1.3153539019521612e-32  -1.2131183149281373e-32  -3.2924858471052739e-31  -3.7176657385678826e-31  6.8754044794363748e-33  6.7698114630586744e-33  3.1471123655928077e-35  -1.3058877198382526e-32  2.1286300066376009e-32  -3.2183744059872117e-35  7.3866867868172082e-33  -3.1754358387036082e-35  2.9475656319013659e-35  2.9638043442379348e-32  1.7689442354130574e-42  6.3885761131002712e-42  -1.3028825320286650e-42  -2.7235213864372187e-42  -6.7965748132855306e-43  -1.9584647996397387e-42  2.8711387440330154e-42  2.1016977895874584e-42  2.5743226192597846e-28  1.2585780361268885e-29  2.3854984264191102e-30  1.3615600138117505e-27  5.0904832462964820e-32  -1.5163492993004691e-33  -1.7617758260163004e-33  -1.4285741705133597e-31  1.7474773638741242e-33  1.3966158930167878e-31  2.3777399504418929e-31  1.6102887350037383e-33  -4.9274351739431926e-37  -7.7502386916050412e-34  -3.5058628861822058e-34  1.9910792044091735e-39  -4.0345241395742991e-37  -1.2138379434350177e-35  -4.8280340966919650e-34  1.2399150404518907e-37  2.6626161554663466e-39  -1.5660648537647447e-40  -1.3929745818610754e-36  -2.6217072459640733e-39  -5.5535358878830096e-37  -2.4611282248366615e-39  8.2205971251583209e-39  -8.7787816163200277e-41  -6.7513746922927514e-37  -3.6251272853163368e-39  1.0470775352319735e-40  -1.3914858758070493e-40  7.7133825476132700e-39  -4.0784810722696130e-41  -3.5153474282833460e-37  -3.4629711230841878e-39  -6.6275342541682901e-43  2.8490391713808915e-43  -4.3072755113097142e-43  -1.0004050117270772e-42  -3.4464778176705115e-28  4.8466965361052749e-29  -1.6958513140861533e-27  4.0717625912281723e-27  6.8141270273411402e-27  -2.4456258071059770e-26  -2.0555213436744505e-26  9.6435522064044195e-26  4.3898087875775194e-26  -2.8707989336438597e-25  -3.1283093669508364e-26  5.9681448964236188e-25  -2.7386450618675981e-25  -3.5828041260613093e-25  1.8202239806224916e-24  -4.1196061224981771e-24  -7.1657620578668543e-24  2.6125240003174994e-23  2.0923450222961753e-23  -1.0086106601596880e-22  -4.3750857121687977e-23  -6.1699338557670831e-23  2.9023073011608905e-22  3.8002827419848904e-23  -5.8945318495537495e-22  1.8008533375628900e-22  4.0402938034169769e-22  -1.1025598641521293e-21  2.8704582991740527e-21  3.3655140487145154e-21  -1.5935288389836381e-20  -5.5722990608910739e-21  3.8746680492399790e-21  4.6110505232146866e-20  -3.5382973990560620e-21  -6.5153598965212623e-20  5.5282680153774272e-20  -9.6413416966556196e-20  -1.7340422026275573e-19  8.4310973350003799e-19  1.9390937194713866e-19  -2.2320860142508822e-18  5.8975492140587819e-19  -2.0442935720326473e-18  1.3228581698488108e-18  -3.0693926510925801e-18  1.1347792221271455e-17  4.5703583240054689e-18  1.4168520414911494e-19  -3.2249607233070401e-18  7.9001410981055495e-18  6.3242894893147620e-18  -1.6707905621360358e-19  -3.1907309361171007e-18  6.5657485854188475e-19  -1.8777603537312777e-19  6.3496306580529387e-18  -3.1367806417800615e-18  6.1144221391927902e-19  6.7899087688962808e-20  -1.8454461814228589e-19  4.6615482745354542e-19  -2.8674958851392491e-18  4.0938934497286418e-19  -1.9085847753737328e-19  2.4957575473088807e-19  -2.1653724023440289e-18  6.0331497198332270e-19  -1.6060267540718538e-19  4.4405596647354348e-20  -1.2435210462156429e-18  6.0589550243513067e-19  -1.9464772255029973e-18  3.3378727099002247e-20  -2.7425754173968860e-19  5.0427492694014072e-18  -2.3659607324666942e-18  7.2508902448542382e-18  1.2830192168454059e-18  -2.6528570500939055e-17  1.5586530725296232e-17  -8.3740317386536236e-17  -2.0936042868938270e-18  2.3736315426888852e-17  -5.5190704716691957e-17  -9.2736758260564365e-18  1.6485358246462610e-16  -8.6582569514208928e-17  4.5688130668879461e-16  -1.3835636682514671e-16  4.7862215780531114e-16  -8.5448720786188660e-17  9.6137760996084735e-17  3.5700926503391810e-17  -2.9768351767490264e-16  3.3387558645378864e-17  1.1023358270118247e-17  -2.2502364106612277e-01  8.6540669060468806e-17  -2.2920958758772173e-16  8.4588492466880286e-18  1.8953444155489519e-16  -2.3878520098086073e-01  -9.4788783699517468e-17  4.3480025370816265e-16  -2.2323342611600283e-01  -1.0792911576949415e-16  3.0006637742756322e-16  -1.5202994582641898e-15  -6.0335133913034858e-16  4.3402172917052509e-17  1.5660289659938368e-16  -1.9647366052647972e-15  3.0405018859607429e-17  -7.8148119177087375e-17  2.9896358619775934e-16  -1.1029218383559254e-15  -8.4088325869238956e-16  1.3588187295696618e-16  -1.9711062495235120e-16  1.8087477079241631e-15  -3.5948128044656377e-18  7.8485890979689089e-17  -2.8951078709089156e-16  1.1623413233488412e-15  4.3408880700416689e-16  2.5658662954003929e-17  -3.9510614980829445e-16  8.1145840747062151e-16  1.0814336834327853e-15  -6.7481456262422832e-17  -4.7986619712608993e-16  -1.6175090334042569e-17  1.9675250944401458e-15  -2.2471163820006703e-16  -4.4779656736983788e-16  -1.5310598654277197e-15  2.6524503746987777e-15  -1.0770568613769838e-14  -2.3322089814383027e-15  -4.6291388874500045e-16  2.9915463638312676e-15  -1.2714445570753441e-14  -1.3804050957801294e-15  -6.5738446070799116e-16  2.7560974426163854e-15  -1.4504088198771829e-14  1.2204530823538104e-15  1.6169528481166191e-14  -1.2444765080498635e-14  5.5340775097365769e-14  -3.0919200996884519e-15  3.3312111741170991e-15  -5.2425821878607485e-15  3.7608862412705539e-14  -9.1054338415221831e-15  3.7614759150177711e-15  1.6234387433085085e-14  -1.1651433077480216e-13  3.3200444535987360e-14  -5.7039565601275675e-14  -3.0313450827037970e-14  -3.1343864304583064e-15  2.4302588477132515e-14  -1.5390202941965051e-13  5.5067139445172311e-14  -2.4188409220619726e-13  6.9662266821141534e-14  -2.6828983231287742e-13  7.4276251911214481e-14  -2.8845974434282084e-13  8.2611939963923578e-14  -3.2898852685284454e-13  9.3510083096369824e-14  -3.5795670336998126e-13  9.3896683618905588e-14  -3.1997629595101795e-13  7.0440189911837301e-14  -1.8658525766244392e-13  2.7352441226426790e-14  -2.4227237543643496e-14  -7.8309606252557215e-15  5.6291114790104024e-14  -1.4359727455340514e-14  3.4777555934541934e-14  -3.6012642902018053e-15  -3.7834465733790386e-15  2.5968866707257237e-15  -1.2811171925655126e-16  -3.0137846536297631e-16  1.6126416994208508e-16  6.7692114889527448e-19  -4.1561833109377479e-17  1.0251617251185593e-17  5.9939402142871830e-18  -2.9903804953019845e-18  -1.5192082284442469e-19  -3.3350684862223159e-18  4.9042434667143881e-19  -1.9380904855116275e-14  9.4389450521549805e-19  -1.8784031446833358e-18  5.8326402431342864e-20  9.4328235818304604e-19  -2.5450187910894662e-19  4.3103762299522112e-19  -6.1379129866133676e-23  