<?xml version="1.0"?>
<VTKFile type="UnstructuredGrid"  version="0.1"  >
<UnstructuredGrid>
<Piece  NumberOfPoints="11902" NumberOfCells="23402">
<Points>
<DataArray  type="Float64"  NumberOfComponents="3"  format="ascii">-5 -5 0  5 -5 0  5 5 0  -5 5 0  1.262611465895939 0.00129484877744381 0  -4.9 -5 0  -4.8 -5 0  -4.7 -5 0  -4.6 -5 0  -4.5 -5 0  -4.4 -5 0  -4.3 -5 0  -4.2 -5 0  -4.1 -5 0  -4 -5 0  -3.9 -5 0  -3.8 -5 0  -3.7 -5 0  -3.6 -5 0  -3.5 -5 0  -3.4 -5 0  -3.3 -5 0  -3.2 -5 0  -3.1 -5 0  -3 -5 0  -2.9 -5 0  -2.8 -5 0  -2.7 -5 0  -2.6 -5 0  -2.5 -5 0  -2.4 -5 0  -2.3 -5 0  -2.2 -5 0  -2.1 -5 0  -2 -5 0  -1.9 -5 0  -1.8 -5 0  -1.7 -5 0  -1.6 -5 0  -1.5 -5 0  -1.4 -5 0  -1.3 -5 0  -1.2 -5 0  -1.1 -5 0  -1 -5 0  -0.9000000000000004 -5 0  -0.7999999999999998 -5 0  -0.7000000000000002 -5 0  -0.5999999999999996 -5 0  -0.5 -5 0  -0.4000000000000004 -5 0  -0.2999999999999998 -5 0  -0.2000000000000002 -5 0  -0.09999999999999964 -5 0  0 -5 0  0.09999999999999964 -5 0  0.2000000000000002 -5 0  0.2999999999999998 -5 0  0.4000000000000004 -5 0  0.5 -5 0  0.5999999999999996 -5 0  0.7000000000000002 -5 0  0.7999999999999998 -5 0  0.9000000000000004 -5 0  1 -5 0  1.1 -5 0  1.2 -5 0  1.3 -5 0  1.4 -5 0  1.5 -5 0  1.6 -5 0  1.7 -5 0  1.8 -5 0  1.9 -5 0  2 -5 0  2.1 -5 0  2.2 -5 0  2.3 -5 0  2.4 -5 0  2.5 -5 0  2.6 -5 0  2.7 -5 0  2.8 -5 0  2.9 -5 0  3 -5 0  3.1 -5 0  3.199999999999999 -5 0  3.300000000000001 -5 0  3.4 -5 0  3.5 -5 0  3.6 -5 0  3.699999999999999 -5 0  3.800000000000001 -5 0  3.9 -5 0  4 -5 0  4.1 -5 0  4.199999999999999 -5 0  4.300000000000001 -5 0  4.4 -5 0  4.5 -5 0  4.6 -5 0  4.699999999999999 -5 0  4.800000000000001 -5 0  4.9 -5 0  5 -4.9 0  5 -4.8 0  5 -4.7 0  5 -4.6 0  5 -4.5 0  5 -4.4 0  5 -4.3 0  5 -4.2 0  5 -4.1 0  5 -4 0  5 -3.9 0  5 -3.8 0  5 -3.7 0  5 -3.6 0  5 -3.5 0  5 -3.4 0  5 -3.3 0  5 -3.2 0  5 -3.1 0  5 -3 0  5 -2.9 0  5 -2.8 0  5 -2.7 0  5 -2.6 0  5 -2.5 0  5 -2.4 0  5 -2.3 0  5 -2.2 0  5 -2.1 0  5 -2 0  5 -1.9 0  5 -1.8 0  5 -1.7 0  5 -1.6 0  5 -1.5 0  5 -1.4 0  5 -1.3 0  5 -1.2 0  5 -1.1 0  5 -1 0  5 -0.9000000000000004 0  5 -0.7999999999999998 0  5 -0.7000000000000002 0  5 -0.5999999999999996 0  5 -0.5 0  5 -0.4000000000000004 0  5 -0.2999999999999998 0  5 -0.2000000000000002 0  5 -0.09999999999999964 0  5 0 0  5 0.09999999999999964 0  5 0.2000000000000002 0  5 0.2999999999999998 0  5 0.4000000000000004 0  5 0.5 0  5 0.5999999999999996 0  5 0.7000000000000002 0  5 0.7999999999999998 0  5 0.9000000000000004 0  5 1 0  5 1.1 0  5 1.2 0  5 1.3 0  5 1.4 0  5 1.5 0  5 1.6 0  5 1.7 0  5 1.8 0  5 1.9 0  5 2 0  5 2.1 0  5 2.2 0  5 2.3 0  5 2.4 0  5 2.5 0  5 2.6 0  5 2.7 0  5 2.8 0  5 2.9 0  5 3 0  5 3.1 0  5 3.199999999999999 0  5 3.300000000000001 0  5 3.4 0  5 3.5 0  5 3.6 0  5 3.699999999999999 0  5 3.800000000000001 0  5 3.9 0  5 4 0  5 4.1 0  5 4.199999999999999 0  5 4.300000000000001 0  5 4.4 0  5 4.5 0  5 4.6 0  5 4.699999999999999 0  5 4.800000000000001 0  5 4.9 0  4.9 5 0  4.8 5 0  4.7 5 0  4.6 5 0  4.5 5 0  4.4 5 0  4.3 5 0  4.2 5 0  4.1 5 0  4 5 0  3.9 5 0  3.8 5 0  3.7 5 0  3.6 5 0  3.5 5 0  3.4 5 0  3.3 5 0  3.2 5 0  3.1 5 0  3 5 0  2.9 5 0  2.8 5 0  2.7 5 0  2.6 5 0  2.5 5 0  2.4 5 0  2.3 5 0  2.2 5 0  2.1 5 0  2 5 0  1.9 5 0  1.8 5 0  1.7 5 0  1.6 5 0  1.5 5 0  1.4 5 0  1.3 5 0  1.2 5 0  1.1 5 0  1 5 0  0.9000000000000004 5 0  0.7999999999999998 5 0  0.7000000000000002 5 0  0.5999999999999996 5 0  0.5 5 0  0.4000000000000004 5 0  0.2999999999999998 5 0  0.2000000000000002 5 0  0.09999999999999964 5 0  0 5 0  -0.09999999999999964 5 0  -0.2000000000000002 5 0  -0.2999999999999998 5 0  -0.4000000000000004 5 0  -0.5 5 0  -0.5999999999999996 5 0  -0.7000000000000002 5 0  -0.7999999999999998 5 0  -0.9000000000000004 5 0  -1 5 0  -1.1 5 0  -1.2 5 0  -1.3 5 0  -1.4 5 0  -1.5 5 0  -1.6 5 0  -1.7 5 0  -1.8 5 0  -1.9 5 0  -2 5 0  -2.1 5 0  -2.2 5 0  -2.3 5 0  -2.4 5 0  -2.5 5 0  -2.6 5 0  -2.7 5 0  -2.8 5 0  -2.9 5 0  -3 5 0  -3.1 5 0  -3.199999999999999 5 0  -3.300000000000001 5 0  -3.4 5 0  -3.5 5 0  -3.6 5 0  -3.699999999999999 5 0  -3.800000000000001 5 0  -3.9 5 0  -4 5 0  -4.1 5 0  -4.199999999999999 5 0  -4.300000000000001 5 0  -4.4 5 0  -4.5 5 0  -4.6 5 0  -4.699999999999999 5 0  -4.800000000000001 5 0  -4.9 5 0  -5 4.9 0  -5 4.8 0  -5 4.7 0  -5 4.6 0  -5 4.5 0  -5 4.4 0  -5 4.3 0  -5 4.2 0  -5 4.1 0  -5 4 0  -5 3.9 0  -5 3.8 0  -5 3.7 0  -5 3.6 0  -5 3.5 0  -5 3.4 0  -5 3.3 0  -5 3.2 0  -5 3.1 0  -5 3 0  -5 2.9 0  -5 2.8 0  -5 2.7 0  -5 2.6 0  -5 2.5 0  -5 2.4 0  -5 2.3 0  -5 2.2 0  -5 2.1 0  -5 2 0  -5 1.9 0  -5 1.8 0  -5 1.7 0  -5 1.6 0  -5 1.5 0  -5 1.4 0  -5 1.3 0  -5 1.2 0  -5 1.1 0  -5 1 0  -5 0.9000000000000004 0  -5 0.7999999999999998 0  -5 0.7000000000000002 0  -5 0.5999999999999996 0  -5 0.5 0  -5 0.4000000000000004 0  -5 0.2999999999999998 0  -5 0.2000000000000002 0  -5 0.09999999999999964 0  -5 0 0  -5 -0.09999999999999964 0  -5 -0.2000000000000002 0  -5 -0.2999999999999998 0  -5 -0.4000000000000004 0  -5 -0.5 0  -5 -0.5999999999999996 0  -5 -0.7000000000000002 0  -5 -0.7999999999999998 0  -5 -0.9000000000000004 0  -5 -1 0  -5 -1.1 0  -5 -1.2 0  -5 -1.3 0  -5 -1.4 0  -5 -1.5 0  -5 -1.6 0  -5 -1.7 0  -5 -1.8 0  -5 -1.9 0  -5 -2 0  -5 -2.1 0  -5 -2.2 0  -5 -2.3 0  -5 -2.4 0  -5 -2.5 0  -5 -2.6 0  -5 -2.7 0  -5 -2.8 0  -5 -2.9 0  -5 -3 0  -5 -3.1 0  -5 -3.199999999999999 0  -5 -3.300000000000001 0  -5 -3.4 0  -5 -3.5 0  -5 -3.6 0  -5 -3.699999999999999 0  -5 -3.800000000000001 0  -5 -3.9 0  -5 -4 0  -5 -4.1 0  -5 -4.199999999999999 0  -5 -4.300000000000001 0  -5 -4.4 0  -5 -4.5 0  -5 -4.6 0  -5 -4.699999999999999 0  -5 -4.800000000000001 0  -5 -4.9 0  1.254406537466559 0.0939911662308946 0  1.232395662044018 0.1917565791690787 0  1.198834895065781 0.2883344251040998 0  1.156033509478575 0.3767421103888071 0  1.097689123054039 0.4677200667981348 0  1.031506393725511 0.5516077622486629 0  0.9529033399590168 0.6318599689098825 0  0.8657423770586077 0.7067390228267025 0  0.7739029760058651 0.7721212880182409 0  0.6716490270023013 0.8295287444280627 0  0.5589480877816868 0.881770665382076 0  0.4459253634148863 0.9265494694621558 0  0.3342396408442824 0.9584433419350601 0  0.2087647958345652 0.9803535219458543 0  0.0883278321404778 0.9992161721403792 0  -0.02670506150235424 1.002625331598344 0  -0.1443684753535248 0.9888251746567446 0  -0.2729691836706982 0.9694271778157391 0  -0.3926596221584164 0.9453059375165357 0  -0.5028144909400502 0.909695201185988 0  -0.6124666708684472 0.8632240076896804 0  -0.7145552156281264 0.8083421755833052 0  -0.8091987123582562 0.7435746706352635 0  -0.9006198902076472 0.6698253082263474 0  -0.9868099829662216 0.5897564685240727 0  -1.061555434035889 0.5084212016643631 0  -1.123519126355432 0.4235544246710282 0  -1.177751274888563 0.3306007489505327 0  -1.215477643163943 0.2426231310433917 0  -1.239917892903956 0.1486332731740442 0  -1.250538288925433 0.05211432863264442 0  -1.250498113970971 -0.04986015936784615 0  -1.239883699744726 -0.145652260827962 0  -1.215088173759938 -0.2372941241993864 0  -1.173215186163748 -0.3322384876919829 0  -1.123845174734418 -0.4243399364636172 0  -1.063439480781241 -0.5083141086064208 0  -0.9893156187201805 -0.5887649056341056 0  -0.9037543622446832 -0.6677700545631958 0  -0.8130216670775682 -0.7393961778214601 0  -0.7173304827355401 -0.8002947718032885 0  -0.6125733549700035 -0.8534911468328744 0  -0.497699982373133 -0.9031327065625001 0  -0.3849932356712186 -0.9430526285981211 0  -0.2696333840802858 -0.9692267163460561 0  -0.1427517994504341 -0.9887843019595335 0  -0.02770992228021729 -1.001858145159756 0  0.08723694794011518 -0.9944761612217589 0  0.2148086958311907 -0.9766170135909591 0  0.3370104860457407 -0.956756373787652 0  0.4501030935592904 -0.9252279857574016 0  0.5615062082258906 -0.8810111371085426 0  0.6727783540508531 -0.829480440344644 0  0.7738054075528689 -0.7732558667432904 0  0.8655037181089258 -0.7080118143868183 0  0.9514391696004381 -0.6322258111592652 0  1.028964024870703 -0.5504246767230855 0  1.098862594444981 -0.4664221394714372 0  1.156832395018887 -0.3771641033318431 0  1.200593842554684 -0.286400247201484 0  1.233109775839657 -0.190981923981374 0  1.25480818678489 -0.09388825354115038 0  -2.448536332292976 4.918069169258754 0  -2.448408118768372 -4.910443297178679 0  4.910366097149415 2.447857593531351 0  4.918497561342885 -2.449322632307985 0  2.446133451296156 -4.895666074652663 0  2.440567919860814 4.899430658764958 0  -4.910393385562628 -2.447884359251206 0  -4.910390657898186 2.447888417006781 0  -1.748489405499322 4.910936929535072 0  -1.744276985556092 -4.914380961028811 0  4.920528309179613 1.744035928555358 0  4.909047152317121 -1.7477922565888 0  -4.909341995761211 -1.747526888646757 0  -4.910165270839654 1.747272324553093 0  1.74576033120013 4.904787460312054 0  1.747170103877719 -4.892921640779567 0  -1.148805636881244 4.90870357456647 0  -1.129665451361249 -4.916628789789498 0  -4.909032353684407 -1.147862279278367 0  -4.908850347267186 1.147662902642412 0  1.143802440995426 -4.912808090138467 0  1.148815458642581 4.908689892203483 0  4.909171536737428 1.146137226060375 0  4.920022490288597 -1.151927049868157 0  -0.5466500095525461 -4.909883404086379 0  -0.5464347501275291 4.918581648785068 0  -4.907742977699659 -0.5486720298339158 0  -4.907766940921984 0.5472301760931747 0  4.907059719411032 -0.5489900488182798 0  4.918741105725291 0.5457519549102395 0  0.5424306487067517 -4.896739518277243 0  0.5511626151378793 4.915399063127011 0  -4.911840005342498 -3.04824901829264 0  4.918414670958567 3.046268078678599 0  4.911347353458746 -3.048224160415238 0  -4.912688182979413 3.045341063351443 0  3.055265350779406 -4.917336509301611 0  -3.048593447485407 -4.911268739092297 0  3.052161560429474 4.913347547792057 0  -3.048039434584227 4.912159085412328 0  -4.906842880118755 -0.04990404989579519 0  0.0451186797460565 -4.91183235453749 0  0.04956589634423903 4.91887137021225 0  4.913912338654328 -0.05128660620228021 0  3.545591352386029 -4.918994571398534 0  -3.54886940934398 4
[...]
<PointData  Scalars="f_30"> 
<DataArray  type="Float64"  Name="f_30"  format="ascii">0.0000000000000000e+00  0.0000000000000000e+00  0.0000000000000000e+00  0.0000000000000000e+00  4.1254514729225596e-02  0.0000000000000000e+00  0.0000000000000000e+00  0.0000000000000000e+00  0.0000000000000000e+00  0.0000000000000000e+00  0.0000000000000000e+00  0.0000000000000000e+00  0.0000000000000000e+00  0.0000000000000000e+00  0.0000000000000000e+00  0.0000000000000000e+00  0.0000000000000000e+00  0.0000000000000000e+00  0.0000000000000000e+00  0.0000000000000000e+00  0.0000000000000000e+00  0.0000000000000000e+00  0.0000000000000000e+00  0.0000000000000000e+00  0.0000000000000000e+00  0.0000000000000000e+00  0.0000000000000000e+00  0.0000000000000000e+00  0.0000000000000000e+00  0.0000000000000000e+00  0.0000000000000000e+00  0.0000000000000000e+00  0.0000000000000000e+00  0.0000000000000000e+00  0.0000000000000000e+00  0.0000000000000000e+00  0.0000000000000000e+00  0.0000000000000000e+00  0.0000000000000000e+00  0.0000000000000000e+00  0.0000000000000000e+00  0.0000000000000000e+00  0.0000000000000000e+00  0.0000000000000000e+00  0.0000000000000000e+00  0.0000000000000000e+00  0.0000000000000000e+00  0.0000000000000000e+00  0.0000000000000000e+00  0.0000000000000000e+00  0.0000000000000000e+00  0.0000000000000000e+00  0.0000000000000000e+00  0.0000000000000000e+00  0.0000000000000000e+00  0.0000000000000000e+00  0.0000000000000000e+00  0.0000000000000000e+00  0.0000000000000000e+00  0.0000000000000000e+00  0.0000000000000000e+00  0.0000000000000000e+00  0.0000000000000000e+00  0.0000000000000000e+00  0.0000000000000000e+00  0.0000000000000000e+00  0.0000000000000000e+00  0.0000000000000000e+00  0.0000000000000000e+00  0.0000000000000000e+00  0.0000000000000000e+00  0.0000000000000000e+00  0.0000000000000000e+00  0.0000000000000000e+00  0.0000000000000000e+00  0.0000000000000000e+00  0.0000000000000000e+00  0.0000000000000000e+00  0.0000000000000000e+00  0.0000000000000000e+00  0.0000000000000000e+00  0.0000000000000000e+00  0.0000000000000000e+00  0.0000000000000000e+00  0.0000000000000000e+00  0.0000000000000000e+00  0.0000000000000000e+00  0.0000000000000000e+00  0.0000000000000000e+00  0.0000000000000000e+00  0.0000000000000000e+00  0.0000000000000000e+00  0.0000000000000000e+00  0.0000000000000000e+00  0.0000000000000000e+00  0.0000000000000000e+00  0.0000000000000000e+00  0.0000000000000000e+00  0.0000000000000000e+00  0.0000000000000000e+00  0.0000000000000000e+00  0.0000000000000000e+00  0.0000000000000000e+00  0.0000000000000000e+00  0.0000000000000000e+00  0.0000000000000000e+00  0.0000000000000000e+00  0.0000000000000000e+00  0.0000000000000000e+00  0.0000000000000000e+00  0.0000000000000000e+00  0.0000000000000000e+00  0.0000000000000000e+00  0.0000000000000000e+00  0.0000000000000000e+00  0.0000000000000000e+00  0.0000000000000000e+00  0.0000000000000000e+00  0.0000000000000000e+00  0.0000000000000000e+00  0.0000000000000000e+00  0.0000000000000000e+00  0.0000000000000000e+00  0.0000000000000000e+00  0.0000000000000000e+00  0.0000000000000000e+00  0.0000000000000000e+00  0.0000000000000000e+00  0.0000000000000000e+00  0.0000000000000000e+00  0.0000000000000000e+00  0.0000000000000000e+00  0.0000000000000000e+00  0.0000000000000000e+00  0.0000000000000000e+00  0.0000000000000000e+00  0.0000000000000000e+00  0.0000000000000000e+00  0.0000000000000000e+00  0.0000000000000000e+00  0.0000000000000000e+00  0.0000000000000000e+00  0.0000000000000000e+00  0.0000000000000000e+00  0.0000000000000000e+00  0.0000000000000000e+00  0.0000000000000000e+00  0.0000000000000000e+00  0.0000000000000000e+00  0.0000000000000000e+00  0.0000000000000000e+00  0.0000000000000000e+00  0.0000000000000000e+00  0.0000000000000000e+00  0.0000000000000000e+00  0.0000000000000000e+00  0.0000000000000000e+00  0.0000000000000000e+00  0.0000000000000000e+00  0.0000000000000000e+00  0.0000000000000000e+00  0.0000000000000000e+00  0.0000000000000000e+00  0.0000000000000000e+00  0.0000000000000000e+00  0.0000000000000000e+00  0.0000000000000000e+00  0.0000000000000000e+00  0.0000000000000000e+00  0.0000000000000000e+00  0.0000000000000000e+00  0.0000000000000000e+00  0.0000000000000000e+00  0.0000000000000000e+00  0.0000000000000000e+00  0.0000000000000000e+00  0.0000000000000000e+00  0.0000000000000000e+00  0.0000000000000000e+00  0.0000000000000000e+00  0.0000000000000000e+00  0.0000000000000000e+00  0.0000000000000000e+00  0.0000000000000000e+00  0.0000000000000000e+00  0.0000000000000000e+00  0.0000000000000000e+00  0.0000000000000000e+00  0.0000000000000000e+00  0.0000000000000000e+00  0.0000000000000000e+00  0.0000000000000000e+00  0.0000000000000000e+00  0.0000000000000000e+00  0.0000000000000000e+00  0.0000000000000000e+00  0.0000000000000000e+00  0.0000000000000000e+00  0.0000000000000000e+00  0.0000000000000000e+00  0.0000000000000000e+00  0.0000000000000000e+00  0.0000000000000000e+00  0.0000000000000000e+00  0.0000000000000000e+00  0.0000000000000000e+00  0.0000000000000000e+00  0.0000000000000000e+00  0.0000000000000000e+00  0.0000000000000000e+00  0.0000000000000000e+00  0.0000000000000000e+00  0.0000000000000000e+00  0.0000000000000000e+00  0.0000000000000000e+00  0.0000000000000000e+00  0.0000000000000000e+00  0.0000000000000000e+00  0.0000000000000000e+00  0.0000000000000000e+00  0.0000000000000000e+00  0.0000000000000000e+00  0.0000000000000000e+00  0.0000000000000000e+00  0.0000000000000000e+00  0.0000000000000000e+00  0.0000000000000000e+00  0.0000000000000000e+00  0.0000000000000000e+00  0.0000000000000000e+00  0.0000000000000000e+00  0.0000000000000000e+00  0.0000000000000000e+00  0.0000000000000000e+00  0.0000000000000000e+00  0.0000000000000000e+00  0.0000000000000000e+00  0.0000000000000000e+00  0.0000000000000000e+00  0.0000000000000000e+00  0.0000000000000000e+00  0.0000000000000000e+00  0.0000000000000000e+00  0.0000000000000000e+00  0.0000000000000000e+00  0.0000000000000000e+00  0.0000000000000000e+00  0.0000000000000000e+00  0.0000000000000000e+00  0.0000000000000000e+00  0.0000000000000000e+00  0.0000000000000000e+00  0.0000000000000000e+00  0.0000000000000000e+00  0.0000000000000000e+00  0.0000000000000000e+00  0.0000000000000000e+00  0.0000000000000000e+00  0.0000000000000000e+00  0.0000000000000000e+00  0.0000000000000000e+00  0.0000000000000000e+00  0.0000000000000000e+00  0.0000000000000000e+00  0.0000000000000000e+00  0.0000000000000000e+00  0.0000000000000000e+00  0.0000000000000000e+00  0.0000000000000000e+00  0.0000000000000000e+00  0.0000000000000000e+00  0.0000000000000000e+00  0.0000000000000000e+00  0.0000000000000000e+00  0.0000000000000000e+00  0.0000000000000000e+00  0.0000000000000000e+00  0.0000000000000000e+00  0.0000000000000000e+00  0.0000000000000000e+00  0.0000000000000000e+00  0.0000000000000000e+00  0.0000000000000000e+00  0.0000000000000000e+00  0.0000000000000000e+00  0.0000000000000000e+00  0.0000000000000000e+00  0.0000000000000000e+00  0.0000000000000000e+00  0.0000000000000000e+00  0.0000000000000000e+00  0.0000000000000000e+00  0.0000000000000000e+00  0.0000000000000000e+00  0.0000000000000000e+00  0.0000000000000000e+00  0.0000000000000000e+00  0.0000000000000000e+00  0.0000000000000000e+00  0.0000000000000000e+00  0.0000000000000000e+00  0.0000000000000000e+00  0.0000000000000000e+00  0.0000000000000000e+00  0.0000000000000000e+00  0.0000000000000000e+00  0.0000000000000000e+00  0.0000000000000000e+00  0.0000000000000000e+00  0.0000000000000000e+00  0.0000000000000000e+00  0.0000000000000000e+00  0.0000000000000000e+00  0.0000000000000000e+00  0.0000000000000000e+00  0.0000000000000000e+00  0.0000000000000000e+00  0.0000000000000000e+00  0.0000000000000000e+00  0.0000000000000000e+00  0.0000000000000000e+00  0.0000000000000000e+00  0.0000000000000000e+00  0.0000000000000000e+00  0.0000000000000000e+00  0.0000000000000000e+00  0.0000000000000000e+00  0.0000000000000000e+00  0.0000000000000000e+00  0.0000000000000000e+00  0.0000000000000000e+00  0.0000000000000000e+00  0.0000000000000000e+00  0.0000000000000000e+00  0.0000000000000000e+00  0.0000000000000000e+00  0.0000000000000000e+00  0.0000000000000000e+00  0.0000000000000000e+00  0.0000000000000000e+00  0.0000000000000000e+00  0.0000000000000000e+00  0.0000000000000000e+00  0.0000000000000000e+00  0.0000000000000000e+00  0.0000000000000000e+00  0.0000000000000000e+00  0.0000000000000000e+00  0.0000000000000000e+00  0.0000000000000000e+00  0.0000000000000000e+00  0.0000000000000000e+00  0.0000000000000000e+00  0.0000000000000000e+00  0.0000000000000000e+00  0.0000000000000000e+00  0.0000000000000000e+00  0.0000000000000000e+00  0.0000000000000000e+00  0.0000000000000000e+00  0.0000000000000000e+00  0.0000000000000000e+00  0.0000000000000000e+00  0.0000000000000000e+00  0.0000000000000000e+00  0.0000000000000000e+00  0.0000000000000000e+00  0.0000000000000000e+00  0.0000000000000000e+00  0.0000000000000000e+00  0.0000000000000000e+00  0.0000000000000000e+00  0.0000000000000000e+00  0.0000000000000000e+00  0.0000000000000000e+00  0.0000000000000000e+00  0.0000000000000000e+00  0.0000000000000000e+00  0.0000000000000000e+00  0.0000000000000000e+00  0.0000000000000000e+00  0.0000000000000000e+00  0.0000000000000000e+00  0.0000000000000000e+00  0.0000000000000000e+00  0.0000000000000000e+00  0.0000000000000000e+00  0.0000000000000000e+00  0.0000000000000000e+00  0.0000000000000000e+00  0.0000000000000000e+00  0.0000000000000000e+00  0.0000000000000000e+00  0.0000000000000000e+00  0.0000000000000000e+00  0.0000000000000000e+00  0.0000000000000000e+00  0.0000000000000000e+00  0.0000000000000000e+00  0.0000000000000000e+00  0.0000000000000000e+00  3.9589673725102172e-02  3.1111634435235541e-02  2.5066239556498449e-02  2.3903483079481449e-02  2.7518289565514543e-02  4.0054096084104207e-02  3.4073329572377659e-02  2.7357538521960330e-02  3.5626377154897526e-02  3.4419524665775920e-02  2.5189036452989894e-02  4.1417207238254740e-02  4.8894518010351481e-02  1.5599609483833168e-02  3.9233850396832554e-02  4.4185822335259563e-02  1.6657421808511784e-02  2.1134767407390544e-02  4.3316551560968648e-02  3.4022091774349845e-02  3.6091457641546386e-02  3.6508749606142421e-02  3.2314703658317089e-02  3.0789372880644639e-02  2.5761782033107000e-02  3.0563917555816084e-02  2.9711935021798606e-02  2.8709757404484507e-02  3.2552562784973663e-02  3.1055012223639249e-02  2.7048670898958856e-02  2.8437736680225260e-02  3.0485495488264836e-02  3.5691073197015782e-02  2.4278936076150955e-02  3.7917157342333974e-02  3.4182031763069096e-02  2.9241809284819224e-02  3.2958802163022001e-02  3.7146140730369939e-02  2.6075252388956929e-02  2.8903601721306897e-02  2.5478159587057948e-02  5.0638248320233489e-02  2.9353560992730638e-02  1.9685067238718018e-02  7.6566546044171832e-02  3.6109149431229982e-02  1.7313711173459582e-02  4.3093167694238162e-02  3.9350536735096794e-02  2.2927900281392501e-02  3.3483873984612569e-02  4.9279073406917347e-02  3.6699807984322153e-02  2.8017764022063286e-02  2.3015409781644555e-02  3.2387544751284955e-02  4.4276352074723711e-02  3.8458608686553639e-02  3.1636760009339689e-02  3.7052775335863382e-02  3.6120605408559225e-27  -1.3176485951782274e-27  -2.6372986376195286e-27  -2.9362107728685268e-27  -1.2753484434015398e-27  -5.3168627536514966e-28  -2.0321715412448256e-28  1.8085996318609853e-27  7.1905689782138512e-27  4.1260859497670695e-27  -7.0167484510773783e-25  -6.6245814373504417e-25  5.4015522170226656e-25  1.1894523915913018e-24  3.7093166167671814e-26  3.0578212871469470e-26  -4.7816969459483272e-26  -3.0032492206710485e-26  -1.1242594483936691e-22  -1.6505401216964778e-22  -4.3275896695897712e-26  -4.9235266925243248e-26  4.7612434640584666e-23  4.7758637341063098e-23  -4.7392349673426681e-27  -3.9752019937582106e-26  -7.5369922927744455e-21  -7.1236226959002270e-21  -4.5758828071230940e-21  -4.8274275264422478e-21  8.3205974981696362e-26  -2.6525482352646771e-26  7.1703365721618740e-30  -8.8439258558384519e-30  -9.0742302145151127e-30  1.6282533194945992e-29  1.9760114853931834e-28  3.9844696188500368e-28  2.8927869143708962e-28  3.1818406054564931e-28  3.5536295075032853e-20  6.3555306901183691e-26  1.2228951893716963e-26  3.8447621688930489e-20  -9.0965125469882610e-30  -9.9263714360291290e-30  -6.2620369788712029e-30  2.3186069257785947e-31  2.4329242659689776e-31  2.3940962212637417e-31  1.4562223116250819e-31  -9.9633771493854491e-30  -6.1356138253795685e-33  -2.3069038543005565e-32  1.1371218624297987e-31  -4.0599791891822069e-33  2.5154663465086848e-32  -6.0625810413340736e-33  1.3756193450847262e-31  -9.9017524951562173e-34  -1.2942976924071715e-33  -4.6819488165039176e-34  -1.9574414200648284e-34  1.4856513411727446e-34  1.3409178620070606e-34  7.7341139774024814e-35  7.3736428925427536e-36  -1.6096916257325556e-33  2.7758151009520213e-20  4.6291293084421306e-26  -1.3627764100239110e-26  1.3821898514104260e-20  1.1675497547294749e-25  -3.4725222416082412e-24  1.3394908235261631e-21  8.8430431674132661e-22  -3.2579680117109920e-24  2.7353463019225750e-26  7.8782432897872888e-26  -5.2877088480631360e-26  -3.8571410851309620e-26  -1.1547888990128151e-23  3.9597123120401592e-22  4.1482014120371297e-22  -1.1338401967045186e-23  -2.5505396487525990e-27  8.8214099338246047e-26  -4.0401128847067055e-27  5.5569400366976389e-27  -6.5559796488591309e-27  8.9114995243689763e-26  1.1270768668193479e-25  -4.0131493777904690e-27  -2.4128343853542643e-27  3.0464791724303302e-26  2.8830736678637734e-26  -1.5704723747241160e-28  -7.7610748506631825e-28  -1.2224646696487296e-27  2.0590619551477656e-28  6.3879526511759773e-28  6.7275882934331814e-29  -1.5133884900226755e-28  -9.2252302884699539e-28  1.2567466452958423e-35  1.8952179472759286e-35  7.5316857137618025e-36  -1.6946042259181010e-36  6.4699459860755222e-36  1.5368863212552314e-36  1.0557458774927066e-35  5.2340229215736117e-37  2.7877468716825842e-20  1.2036630780249641e-25  1.1446681623673994e-25  1.3760368615635015e-20  -1.7862981870788265e-27  4.4955674805597855e-27  4.7956972007450470e-27  -7.1561450767332458e-27  -1.1865849387424757e-26  -6.9826081025456364e-29  -8.1942419913380479e-27  -2.0294422654287383e-26  3.5252782929449704e-30  -1.1192108900121973e-28  -7.3961204944403781e-29  2.8341013258141098e-30  3.4754375214842846e-30  -9.6395372896370931e-29  -1.2779720772438431e-28  1.1569377316363974e-30  -3.7499931945632486e-33  3.6441397990919444e-34  1.2052975467348889e-30  -1.2997731301964516e-32  2.7360644713013399e-31  -1.5412842207784528e-32  -3.6562397115169028e-32  1.2126587416894506e-33  8.1374392712557768e-31  -1.3325625590467626e-32  -1.3655501342826943e-33  2.9198297456935237e-34  -4.4317815839659188e-32  1.2637524441490163e-33  5.2319049425056024e-31  -1.7094969361650548e-32  -3.7014104279937782e-36  -1.7453799280179608e-36  -2.9595981923736689e-36  -3.4662520613900449e-36  3.4840952191485386e-20  -1.2995853830194286e-19  -8.5771485217385100e-20  4.2076950782692110e-19  2.0515162933601487e-19  -1.2097206234556322e-18  -3.1622077401331892e-19  2.8705394439200202e-18  -2.7975271462055117e-19  -4.3099805077255117e-18  4.7474873415390651e-18  -4.6496826112188868e-18  -2.3363936384309654e-17  6.8991206675002639e-17  8.0970997634836450e-17  -3.3342387870418867e-16  -2.1158947294923501e-16  1.1328876365016391e-15  3.8162538625089146e-16  -2.8846908167479799e-15  -2.0353347059054060e-16  -4.7525366368537682e-15  4.9165521137525642e-15  -1.6200971401848102e-15  -1.5863606083763072e-15  7.3808900277083684e-15  -2.5145867090627820e-14  -1.5924053120687305e-14  9.9126088295822284e-14  9.7169962461235468e-15  -1.8521732858484617e-13  5.6053597241367564e-14  -3.7650738719490282e-13  2.9176697059920079e-14  -1.9703582345101072e-13  8.8654755233876603e-13  1.5536385499380183e-13  -2.2293420237293939e-12  7.7802386595652652e-13  -1.2244163993300674e-13  -2.4767512584730742e-12  1.3240151247904197e-11  -1.0637079902141138e-13  -2.1326473266967346e-11  -2.3720649768744473e-11  1.5576240690809759e-11  -4.0435929155841681e-11  -2.6197003219024872e-11  -3.0475888537771306e-13  1.7310816487400135e-11  -4.9867775773569130e-11  -2.3475122456537189e-11  -1.2717079815986713e-12  1.8382142313358073e-11  -2.7278773082588535e-12  -3.2804599610616221e-12  -1.3737042276330974e-11  1.8262690926240504e-11  -1.8308161425462980e-12  -6.7099889567346513e-12  1.4874960613601001e-12  3.6898659082511665e-13  1.1085111147504607e-11  -8.5790469594285570e-12  9.5890384657059610e-13  3.5615962067821604e-12  -1.4405375600035909e-11  2.2790838755379859e-12  -9.7888640492830273e-13  2.8368205384183448e-13  -4.9727543434945301e-12  2.1933223641809481e-12  -8.9154006798468601e-12  1.4121263499569236e-13  1.4211340071349432e-12  2.1923271343725216e-12  -3.5655714735868166e-12  2.5691767245183177e-11  -9.9231807063048487e-12  4.6010827776436446e-11  -1.3699262550226645e-11  5.3262923122076852e-11  3.2758500750778431e-12  -1.4243327203910855e-11  5.2221820270945180e-11  -1.3903440940043766e-11  5.2099285574618545e-11  -1.4170568070467031e-11  5.2926258130195976e-11  -1.3636905353526859e-11  4.6054097270212297e-11  -1.0050900020281720e-11  2.6443245956886966e-11  -3.7217155141075664e-12  1.9323299008704214e-12  3.2816595425815625e-12  -1.3958258930475132e-10  2.5387906063458661e+00  1.9659017980277649e-12  -1.3155960390540795e-11  3.9195844795994484e-12  -1.2890363741444237e-11  2.6233505481094985e+00  2.4091963528110721e-12  -4.4099446312520172e-12  2.4997860747013254e+00  1.7710532475511394e-13  1.8657487495790821e-12  1.7127055718845072e-12  -1.0303896826837889e-11  2.3502627710746456e-12  -4.7667406730680396e-12  -1.9087985490792024e-10  -3.2978891776083853e-13  1.8417802219459706e-13  2.4651733303758500e-12  1.3467432441852004e-12  -1.3792022946819280e-11  3.1901510253822619e-12  -6.8567667976925076e-12  4.4375514058220456e-11  5.1244772515884602e-12  1.7259955359017804e-12  -1.0570481836704413e-11  2.9626024629593166e-11  2.7854052466188087e-11  -3.0701406392067863e-12  -2.6889052049587444e-12  -2.9985281805032620e-11  2.4132918276812944e-11  -4.4953857371941603e-12  2.5560470824190872e-12  -4.7095780123024599e-11  1.4858806098729554e-11  -3.5626999174420577e-12  2.0490728309343855e-12  -3.4327313152450252e-11  1.3014799206352258e-11  -1.6575706389428201e-11  -2.7055669649395581e-11  7.5548815031134211e-13  1.4723723410902682e-11  -2.5696091611726069e-11  -3.4307712535190916e-11  1.0559237653179339e-12  1.9259110294214408e-11  -3.8109369717764608e-11  -4.0370645471558700e-11  3.3822717731685107e-10  -1.0485728155795982e-10  3.4690870134501264e-11  2.7917376710048620e-10  -1.0158460716631331e-11  -1.5824979124670751e-10  7.0790672534949619e-10  -9.7377842116073614e-11  -3.1623433667423980e-10  3.3497125626686246e-10  -1.7630524759130591e-09  3.1759811906522859e-10  5.2653652084201902e-10  -9.3929051499216359e-10  5.5420540722169649e-11  4.6164321420090059e-10  -2.0805991858184899e-09  4.1348124164516654e-10  4.8303673269201211e-11  -7.7766949529679229e-10  6.2573254916821461e-09  -2.5229873390668157e-09  1.1102171256277912e-08  -2.6965621864909758e-09  6.0759787220178902e-09  3.0404225128586613e-10  -1.0068923349959609e-08  5.1679291651818365e-09  -2.7534862470578981e-08  8.9690906953482687e-09  -3.7318253357017374e-08  1.0594689930312724e-08  -4.0077992249895625e-08  1.0586070152729656e-08  -3.7174715070192362e-08  8.7248268766969571e-09  -2.6310872852411920e-08  5.0685655862244445e-09  -1.1416174375583323e-08  -1.8825310945928838e-09  -8.3021173675686384e-10  3.6490831343694693e-10  9.5299185518774138e-11  -6.0274816306618344e-11  2.9172237418282501e-12  6.9893076621147056e-12  -6.6547243964985350e-12  1.9364297999118494e-13  2.8335947163764928e-12  -1.2437678412241052e-11  -4.7751673995412028e-13  4.5643908202541657e-10  3.2651065571790234e-12  -1.0225753887477262e-11  1.8589517083951134e-12  -3.3190772019922641e-12  1.0211852672754388e-13  1.5019760954471369e-12  -5.0334254020136428e-13  1.3507406