<?xml version="1.0"?>
<VTKFile type="UnstructuredGrid"  version="0.1"  >
<UnstructuredGrid>
<Piece  NumberOfPoints="11902" NumberOfCells="23402">
<Points>
<DataArray  type="Float64"  NumberOfComponents="3"  format="ascii">-5 -5 0  5 -5 0  5 5 0  -5 5 0  1.222952155949677 0.001367851683446856 0  -4.9 -5 0  -4.8 -5 0  -4.7 -5 0  -4.6 -5 0  -4.5 -5 0  -4.4 -5 0  -4.3 -5 0  -4.2 -5 0  -4.1 -5 0  -4 -5 0  -3.9 -5 0  -3.8 -5 0  -3.7 -5 0  -3.6 -5 0  -3.5 -5 0  -3.4 -5 0  -3.3 -5 0  -3.2 -5 0  -3.1 -5 0  -3 -5 0  -2.9 -5 0  -2.8 -5 0  -2.7 -5 0  -2.6 -5 0  -2.5 -5 0  -2.4 -5 0  -2.3 -5 0  -2.2 -5 0  -2.1 -5 0  -2 -5 0  -1.9 -5 0  -1.8 -5 0  -1.7 -5 0  -1.6 -5 0  -1.5 -5 0  -1.4 -5 0  -1.3 -5 0  -1.2 -5 0  -1.1 -5 0  -1 -5 0  -0.9000000000000004 -5 0  -0.7999999999999998 -5 0  -0.7000000000000002 -5 0  -0.5999999999999996 -5 0  -0.5 -5 0  -0.4000000000000004 -5 0  -0.2999999999999998 -5 0  -0.2000000000000002 -5 0  -0.09999999999999964 -5 0  0 -5 0  0.09999999999999964 -5 0  0.2000000000000002 -5 0  0.2999999999999998 -5 0  0.4000000000000004 -5 0  0.5 -5 0  0.5999999999999996 -5 0  0.7000000000000002 -5 0  0.7999999999999998 -5 0  0.9000000000000004 -5 0  1 -5 0  1.1 -5 0  1.2 -5 0  1.3 -5 0  1.4 -5 0  1.5 -5 0  1.6 -5 0  1.7 -5 0  1.8 -5 0  1.9 -5 0  2 -5 0  2.1 -5 0  2.2 -5 0  2.3 -5 0  2.4 -5 0  2.5 -5 0  2.6 -5 0  2.7 -5 0  2.8 -5 0  2.9 -5 0  3 -5 0  3.1 -5 0  3.199999999999999 -5 0  3.300000000000001 -5 0  3.4 -5 0  3.5 -5 0  3.6 -5 0  3.699999999999999 -5 0  3.800000000000001 -5 0  3.9 -5 0  4 -5 0  4.1 -5 0  4.199999999999999 -5 0  4.300000000000001 -5 0  4.4 -5 0  4.5 -5 0  4.6 -5 0  4.699999999999999 -5 0  4.800000000000001 -5 0  4.9 -5 0  5 -4.9 0  5 -4.8 0  5 -4.7 0  5 -4.6 0  5 -4.5 0  5 -4.4 0  5 -4.3 0  5 -4.2 0  5 -4.1 0  5 -4 0  5 -3.9 0  5 -3.8 0  5 -3.7 0  5 -3.6 0  5 -3.5 0  5 -3.4 0  5 -3.3 0  5 -3.2 0  5 -3.1 0  5 -3 0  5 -2.9 0  5 -2.8 0  5 -2.7 0  5 -2.6 0  5 -2.5 0  5 -2.4 0  5 -2.3 0  5 -2.2 0  5 -2.1 0  5 -2 0  5 -1.9 0  5 -1.8 0  5 -1.7 0  5 -1.6 0  5 -1.5 0  5 -1.4 0  5 -1.3 0  5 -1.2 0  5 -1.1 0  5 -1 0  5 -0.9000000000000004 0  5 -0.7999999999999998 0  5 -0.7000000000000002 0  5 -0.5999999999999996 0  5 -0.5 0  5 -0.4000000000000004 0  5 -0.2999999999999998 0  5 -0.2000000000000002 0  5 -0.09999999999999964 0  5 0 0  5 0.09999999999999964 0  5 0.2000000000000002 0  5 0.2999999999999998 0  5 0.4000000000000004 0  5 0.5 0  5 0.5999999999999996 0  5 0.7000000000000002 0  5 0.7999999999999998 0  5 0.9000000000000004 0  5 1 0  5 1.1 0  5 1.2 0  5 1.3 0  5 1.4 0  5 1.5 0  5 1.6 0  5 1.7 0  5 1.8 0  5 1.9 0  5 2 0  5 2.1 0  5 2.2 0  5 2.3 0  5 2.4 0  5 2.5 0  5 2.6 0  5 2.7 0  5 2.8 0  5 2.9 0  5 3 0  5 3.1 0  5 3.199999999999999 0  5 3.300000000000001 0  5 3.4 0  5 3.5 0  5 3.6 0  5 3.699999999999999 0  5 3.800000000000001 0  5 3.9 0  5 4 0  5 4.1 0  5 4.199999999999999 0  5 4.300000000000001 0  5 4.4 0  5 4.5 0  5 4.6 0  5 4.699999999999999 0  5 4.800000000000001 0  5 4.9 0  4.9 5 0  4.8 5 0  4.7 5 0  4.6 5 0  4.5 5 0  4.4 5 0  4.3 5 0  4.2 5 0  4.1 5 0  4 5 0  3.9 5 0  3.8 5 0  3.7 5 0  3.6 5 0  3.5 5 0  3.4 5 0  3.3 5 0  3.2 5 0  3.1 5 0  3 5 0  2.9 5 0  2.8 5 0  2.7 5 0  2.6 5 0  2.5 5 0  2.4 5 0  2.3 5 0  2.2 5 0  2.1 5 0  2 5 0  1.9 5 0  1.8 5 0  1.7 5 0  1.6 5 0  1.5 5 0  1.4 5 0  1.3 5 0  1.2 5 0  1.1 5 0  1 5 0  0.9000000000000004 5 0  0.7999999999999998 5 0  0.7000000000000002 5 0  0.5999999999999996 5 0  0.5 5 0  0.4000000000000004 5 0  0.2999999999999998 5 0  0.2000000000000002 5 0  0.09999999999999964 5 0  0 5 0  -0.09999999999999964 5 0  -0.2000000000000002 5 0  -0.2999999999999998 5 0  -0.4000000000000004 5 0  -0.5 5 0  -0.5999999999999996 5 0  -0.7000000000000002 5 0  -0.7999999999999998 5 0  -0.9000000000000004 5 0  -1 5 0  -1.1 5 0  -1.2 5 0  -1.3 5 0  -1.4 5 0  -1.5 5 0  -1.6 5 0  -1.7 5 0  -1.8 5 0  -1.9 5 0  -2 5 0  -2.1 5 0  -2.2 5 0  -2.3 5 0  -2.4 5 0  -2.5 5 0  -2.6 5 0  -2.7 5 0  -2.8 5 0  -2.9 5 0  -3 5 0  -3.1 5 0  -3.199999999999999 5 0  -3.300000000000001 5 0  -3.4 5 0  -3.5 5 0  -3.6 5 0  -3.699999999999999 5 0  -3.800000000000001 5 0  -3.9 5 0  -4 5 0  -4.1 5 0  -4.199999999999999 5 0  -4.300000000000001 5 0  -4.4 5 0  -4.5 5 0  -4.6 5 0  -4.699999999999999 5 0  -4.800000000000001 5 0  -4.9 5 0  -5 4.9 0  -5 4.8 0  -5 4.7 0  -5 4.6 0  -5 4.5 0  -5 4.4 0  -5 4.3 0  -5 4.2 0  -5 4.1 0  -5 4 0  -5 3.9 0  -5 3.8 0  -5 3.7 0  -5 3.6 0  -5 3.5 0  -5 3.4 0  -5 3.3 0  -5 3.2 0  -5 3.1 0  -5 3 0  -5 2.9 0  -5 2.8 0  -5 2.7 0  -5 2.6 0  -5 2.5 0  -5 2.4 0  -5 2.3 0  -5 2.2 0  -5 2.1 0  -5 2 0  -5 1.9 0  -5 1.8 0  -5 1.7 0  -5 1.6 0  -5 1.5 0  -5 1.4 0  -5 1.3 0  -5 1.2 0  -5 1.1 0  -5 1 0  -5 0.9000000000000004 0  -5 0.7999999999999998 0  -5 0.7000000000000002 0  -5 0.5999999999999996 0  -5 0.5 0  -5 0.4000000000000004 0  -5 0.2999999999999998 0  -5 0.2000000000000002 0  -5 0.09999999999999964 0  -5 0 0  -5 -0.09999999999999964 0  -5 -0.2000000000000002 0  -5 -0.2999999999999998 0  -5 -0.4000000000000004 0  -5 -0.5 0  -5 -0.5999999999999996 0  -5 -0.7000000000000002 0  -5 -0.7999999999999998 0  -5 -0.9000000000000004 0  -5 -1 0  -5 -1.1 0  -5 -1.2 0  -5 -1.3 0  -5 -1.4 0  -5 -1.5 0  -5 -1.6 0  -5 -1.7 0  -5 -1.8 0  -5 -1.9 0  -5 -2 0  -5 -2.1 0  -5 -2.2 0  -5 -2.3 0  -5 -2.4 0  -5 -2.5 0  -5 -2.6 0  -5 -2.7 0  -5 -2.8 0  -5 -2.9 0  -5 -3 0  -5 -3.1 0  -5 -3.199999999999999 0  -5 -3.300000000000001 0  -5 -3.4 0  -5 -3.5 0  -5 -3.6 0  -5 -3.699999999999999 0  -5 -3.800000000000001 0  -5 -3.9 0  -5 -4 0  -5 -4.1 0  -5 -4.199999999999999 0  -5 -4.300000000000001 0  -5 -4.4 0  -5 -4.5 0  -5 -4.6 0  -5 -4.699999999999999 0  -5 -4.800000000000001 0  -5 -4.9 0  1.216537821490589 0.09806343238861964 0  1.19697068008051 0.195649315310842 0  1.164677315510974 0.2925507420747037 0  1.12307824239109 0.3831939280891452 0  1.068619821709445 0.4737156882756589 0  1.005024045174555 0.558629812143752 0  0.9300882187233219 0.6384009068200016 0  0.846100350229493 0.7115150753853637 0  0.755383632650924 0.7769602270917439 0  0.6556157171547642 0.8351292388215037 0  0.5485297239043273 0.8866489252409142 0  0.438130750200047 0.9290473438125417 0  0.325751311820632 0.9619353393960876 0  0.2063203235151892 0.984096788930477 0  0.08922401373077385 1.000165524706554 0  -0.02770754706703851 1.00305629480887 0  -0.1450541852574732 0.991986590662389 0  -0.2659986784724107 0.9739733106236365 0  -0.3824592449988472 0.9483585875027576 0  -0.4928807462268245 0.9119510018638003 0  -0.5992852049872104 0.8660230725665026 0  -0.7003225332663677 0.8114093817639787 0  -0.7938780845025418 0.7478931603415103 0  -0.8817431016641416 0.6765663212726272 0  -0.9628224379489432 0.5981078575226468 0  -1.033093253318399 0.5161946012877038 0  -1.093282896028003 0.4296856023219741 0  -1.14232640872162 0.3379658815813846 0  -1.178926296372419 0.2449316628761953 0  -1.203232296724699 0.1492700357409114 0  -1.215431228590164 0.0507099448947735 0  -1.215403026725352 -0.04872924936098916 0  -1.203106107360128 -0.1468443994593058 0  -1.179278074059223 -0.2423827678692987 0  -1.141314739427872 -0.3377818441024467 0  -1.093564575277954 -0.4287555474830583 0  -1.034249011918985 -0.5155012895206866 0  -0.9646741014230136 -0.5968805044182128 0  -0.8840959551805878 -0.6740718520615827 0  -0.796097274698194 -0.7441105659828554 0  -0.7009771274982955 -0.8051971576017619 0  -0.5992227451682961 -0.859172357686288 0  -0.4895650086165363 -0.9069612043837686 0  -0.378115042942379 -0.9454004932845017 0  -0.262803840447745 -0.9729445424647187 0  -0.143682726679465 -0.9912760503418974 0  -0.02769715918890714 -1.0021289739109 0  0.08972431221792476 -0.9967507490452797 0  0.2099864736216075 -0.981488778820086 0  0.3277491978049826 -0.9602802260866615 0  0.4419207483051756 -0.927644886915258 0  0.5505006222549428 -0.8857234975934738 0  0.6564220362640255 -0.834936505808326 0  0.755494208491108 -0.7780789818695132 0  0.8461454909725845 -0.712361224525715 0  0.929530380475515 -0.637979949818957 0  1.003205826670268 -0.5579952150089688 0  1.068456609789501 -0.4730123784888485 0  1.124056572000064 -0.3832399430418409 0  1.166242346049504 -0.2908104284453951 0  1.197355066629286 -0.1947645367877497 0  1.216612407421991 -0.09760861127884106 0  -2.448687267729739 4.918344590318442 0  -2.448572742090832 -4.910743912631547 0  4.91067383550959 2.448071795283989 0  4.918776860266063 -2.449517248914288 0  2.44632486311431 -4.896018928240909 0  2.440753147467017 4.899772032764459 0  -4.910698965732776 -2.448096335137108 0  -4.910696734275115 2.448100194546412 0  -1.748646119536328 4.911335418517753 0  -1.744427214805558 -4.914763808586561 0  4.920917230399069 1.744229961923672 0  4.90949126926805 -1.74801441376917 0  -4.909781670695104 -1.747746079911927 0  -4.9106015109068 1.74748905940516 0  1.74592712958166 4.905215715417457 0  1.747356865224751 -4.893402436133843 0  -1.148930744059587 4.909187864687036 0  -1.129778236431346 -4.917071896227617 0  -4.909583024553728 -1.148042766225586 0  -4.909402581587759 1.147843037174147 0  1.14391973075217 -4.913271649260625 0  1.148939607663726 4.909175635267292 0  4.909726159274193 1.146319129939352 0  4.920509757892681 -1.152087650066859 0  -0.5467154967012535 -4.910411030919501 0  -0.5464935909553587 4.919059439534481 0  -4.908383004242729 -0.5487724297357282 0  -4.908407174729436 0.5473294276895092 0  4.907709828747332 -0.5490920493316139 0  4.919309795954987 0.5458406747711326 0  0.5425024593443059 -4.897345502025099 0  0.5512231240804403 4.915895967662252 0  -4.912046112675061 -3.048424125878983 0  4.918606814263996 3.046431831585148 0  4.911555574446041 -3.04840188558015 0  -4.912893103409808 3.045514629755966 0  3.055399556271407 -4.917537546914911 0  -3.048737835711167 -4.911483865020981 0  3.052302786594624 4.913558874719061 0  -3.048182741582337 4.912372372015509 0  -4.907516329503295 -0.04991408532069032 0  0.04512277366446829 -4.912364359534465 0  0.049570742305035 4.919361938820756 0  4.914539854826528 -0.05129577240413488 0  3.545697391034598 -4.919134923577039 0  -3.548984671258957 4.912043322365068 0 
[...]
<PointData  Scalars="f_30"> 
<DataArray  type="Float64"  Name="f_30"  format="ascii">0.0000000000000000e+00  0.0000000000000000e+00  0.0000000000000000e+00  0.0000000000000000e+00  1.7878316193187621e-01  0.0000000000000000e+00  0.0000000000000000e+00  0.0000000000000000e+00  0.0000000000000000e+00  0.0000000000000000e+00  0.0000000000000000e+00  0.0000000000000000e+00  0.0000000000000000e+00  0.0000000000000000e+00  0.0000000000000000e+00  0.0000000000000000e+00  0.0000000000000000e+00  0.0000000000000000e+00  0.0000000000000000e+00  0.0000000000000000e+00  0.0000000000000000e+00  0.0000000000000000e+00  0.0000000000000000e+00  0.0000000000000000e+00  0.0000000000000000e+00  0.0000000000000000e+00  0.0000000000000000e+00  0.0000000000000000e+00  0.0000000000000000e+00  0.0000000000000000e+00  0.0000000000000000e+00  0.0000000000000000e+00  0.0000000000000000e+00  0.0000000000000000e+00  0.0000000000000000e+00  0.0000000000000000e+00  0.0000000000000000e+00  0.0000000000000000e+00  0.0000000000000000e+00  0.0000000000000000e+00  0.0000000000000000e+00  0.0000000000000000e+00  0.0000000000000000e+00  0.0000000000000000e+00  0.0000000000000000e+00  0.0000000000000000e+00  0.0000000000000000e+00  0.0000000000000000e+00  0.0000000000000000e+00  0.0000000000000000e+00  0.0000000000000000e+00  0.0000000000000000e+00  0.0000000000000000e+00  0.0000000000000000e+00  0.0000000000000000e+00  0.0000000000000000e+00  0.0000000000000000e+00  0.0000000000000000e+00  0.0000000000000000e+00  0.0000000000000000e+00  0.0000000000000000e+00  0.0000000000000000e+00  0.0000000000000000e+00  0.0000000000000000e+00  0.0000000000000000e+00  0.0000000000000000e+00  0.0000000000000000e+00  0.0000000000000000e+00  0.0000000000000000e+00  0.0000000000000000e+00  0.0000000000000000e+00  0.0000000000000000e+00  0.0000000000000000e+00  0.0000000000000000e+00  0.0000000000000000e+00  0.0000000000000000e+00  0.0000000000000000e+00  0.0000000000000000e+00  0.0000000000000000e+00  0.0000000000000000e+00  0.0000000000000000e+00  0.0000000000000000e+00  0.0000000000000000e+00  0.0000000000000000e+00  0.0000000000000000e+00  0.0000000000000000e+00  0.0000000000000000e+00  0.0000000000000000e+00  0.0000000000000000e+00  0.0000000000000000e+00  0.0000000000000000e+00  0.0000000000000000e+00  0.0000000000000000e+00  0.0000000000000000e+00  0.0000000000000000e+00  0.0000000000000000e+00  0.0000000000000000e+00  0.0000000000000000e+00  0.0000000000000000e+00  0.0000000000000000e+00  0.0000000000000000e+00  0.0000000000000000e+00  0.0000000000000000e+00  0.0000000000000000e+00  0.0000000000000000e+00  0.0000000000000000e+00  0.0000000000000000e+00  0.0000000000000000e+00  0.0000000000000000e+00  0.0000000000000000e+00  0.0000000000000000e+00  0.0000000000000000e+00  0.0000000000000000e+00  0.0000000000000000e+00  0.0000000000000000e+00  0.0000000000000000e+00  0.0000000000000000e+00  0.0000000000000000e+00  0.0000000000000000e+00  0.0000000000000000e+00  0.0000000000000000e+00  0.0000000000000000e+00  0.0000000000000000e+00  0.0000000000000000e+00  0.0000000000000000e+00  0.0000000000000000e+00  0.0000000000000000e+00  0.0000000000000000e+00  0.0000000000000000e+00  0.0000000000000000e+00  0.0000000000000000e+00  0.0000000000000000e+00  0.0000000000000000e+00  0.0000000000000000e+00  0.0000000000000000e+00  0.0000000000000000e+00  0.0000000000000000e+00  0.0000000000000000e+00  0.0000000000000000e+00  0.0000000000000000e+00  0.0000000000000000e+00  0.0000000000000000e+00  0.0000000000000000e+00  0.0000000000000000e+00  0.0000000000000000e+00  0.0000000000000000e+00  0.0000000000000000e+00  0.0000000000000000e+00  0.0000000000000000e+00  0.0000000000000000e+00  0.0000000000000000e+00  0.0000000000000000e+00  0.0000000000000000e+00  0.0000000000000000e+00  0.0000000000000000e+00  0.0000000000000000e+00  0.0000000000000000e+00  0.0000000000000000e+00  0.0000000000000000e+00  0.0000000000000000e+00  0.0000000000000000e+00  0.0000000000000000e+00  0.0000000000000000e+00  0.0000000000000000e+00  0.0000000000000000e+00  0.0000000000000000e+00  0.0000000000000000e+00  0.0000000000000000e+00  0.0000000000000000e+00  0.0000000000000000e+00  0.0000000000000000e+00  0.0000000000000000e+00  0.0000000000000000e+00  0.0000000000000000e+00  0.0000000000000000e+00  0.0000000000000000e+00  0.0000000000000000e+00  0.0000000000000000e+00  0.0000000000000000e+00  0.0000000000000000e+00  0.0000000000000000e+00  0.0000000000000000e+00  0.0000000000000000e+00  0.0000000000000000e+00  0.0000000000000000e+00  0.0000000000000000e+00  0.0000000000000000e+00  0.0000000000000000e+00  0.0000000000000000e+00  0.0000000000000000e+00  0.0000000000000000e+00  0.0000000000000000e+00  0.0000000000000000e+00  0.0000000000000000e+00  0.0000000000000000e+00  0.0000000000000000e+00  0.0000000000000000e+00  0.0000000000000000e+00  0.0000000000000000e+00  0.0000000000000000e+00  0.0000000000000000e+00  0.0000000000000000e+00  0.0000000000000000e+00  0.0000000000000000e+00  0.0000000000000000e+00  0.0000000000000000e+00  0.0000000000000000e+00  0.0000000000000000e+00  0.0000000000000000e+00  0.0000000000000000e+00  0.0000000000000000e+00  0.0000000000000000e+00  0.0000000000000000e+00  0.0000000000000000e+00  0.0000000000000000e+00  0.0000000000000000e+00  0.0000000000000000e+00  0.0000000000000000e+00  0.0000000000000000e+00  0.0000000000000000e+00  0.0000000000000000e+00  0.0000000000000000e+00  0.0000000000000000e+00  0.0000000000000000e+00  0.0000000000000000e+00  0.0000000000000000e+00  0.0000000000000000e+00  0.0000000000000000e+00  0.0000000000000000e+00  0.0000000000000000e+00  0.0000000000000000e+00  0.0000000000000000e+00  0.0000000000000000e+00  0.0000000000000000e+00  0.0000000000000000e+00  0.0000000000000000e+00  0.0000000000000000e+00  0.0000000000000000e+00  0.0000000000000000e+00  0.0000000000000000e+00  0.0000000000000000e+00  0.0000000000000000e+00  0.0000000000000000e+00  0.0000000000000000e+00  0.0000000000000000e+00  0.0000000000000000e+00  0.0000000000000000e+00  0.0000000000000000e+00  0.0000000000000000e+00  0.0000000000000000e+00  0.0000000000000000e+00  0.0000000000000000e+00  0.0000000000000000e+00  0.0000000000000000e+00  0.0000000000000000e+00  0.0000000000000000e+00  0.0000000000000000e+00  0.0000000000000000e+00  0.0000000000000000e+00  0.0000000000000000e+00  0.0000000000000000e+00  0.0000000000000000e+00  0.0000000000000000e+00  0.0000000000000000e+00  0.0000000000000000e+00  0.0000000000000000e+00  0.0000000000000000e+00  0.0000000000000000e+00  0.0000000000000000e+00  0.0000000000000000e+00  0.0000000000000000e+00  0.0000000000000000e+00  0.0000000000000000e+00  0.0000000000000000e+00  0.0000000000000000e+00  0.0000000000000000e+00  0.0000000000000000e+00  0.0000000000000000e+00  0.0000000000000000e+00  0.0000000000000000e+00  0.0000000000000000e+00  0.0000000000000000e+00  0.0000000000000000e+00  0.0000000000000000e+00  0.0000000000000000e+00  0.0000000000000000e+00  0.0000000000000000e+00  0.0000000000000000e+00  0.0000000000000000e+00  0.0000000000000000e+00  0.0000000000000000e+00  0.0000000000000000e+00  0.0000000000000000e+00  0.0000000000000000e+00  0.0000000000000000e+00  0.0000000000000000e+00  0.0000000000000000e+00  0.0000000000000000e+00  0.0000000000000000e+00  0.0000000000000000e+00  0.0000000000000000e+00  0.0000000000000000e+00  0.0000000000000000e+00  0.0000000000000000e+00  0.0000000000000000e+00  0.0000000000000000e+00  0.0000000000000000e+00  0.0000000000000000e+00  0.0000000000000000e+00  0.0000000000000000e+00  0.0000000000000000e+00  0.0000000000000000e+00  0.0000000000000000e+00  0.0000000000000000e+00  0.0000000000000000e+00  0.0000000000000000e+00  0.0000000000000000e+00  0.0000000000000000e+00  0.0000000000000000e+00  0.0000000000000000e+00  0.0000000000000000e+00  0.0000000000000000e+00  0.0000000000000000e+00  0.0000000000000000e+00  0.0000000000000000e+00  0.0000000000000000e+00  0.0000000000000000e+00  0.0000000000000000e+00  0.0000000000000000e+00  0.0000000000000000e+00  0.0000000000000000e+00  0.0000000000000000e+00  0.0000000000000000e+00  0.0000000000000000e+00  0.0000000000000000e+00  0.0000000000000000e+00  0.0000000000000000e+00  0.0000000000000000e+00  0.0000000000000000e+00  0.0000000000000000e+00  0.0000000000000000e+00  0.0000000000000000e+00  0.0000000000000000e+00  0.0000000000000000e+00  0.0000000000000000e+00  0.0000000000000000e+00  0.0000000000000000e+00  0.0000000000000000e+00  0.0000000000000000e+00  0.0000000000000000e+00  0.0000000000000000e+00  0.0000000000000000e+00  0.0000000000000000e+00  0.0000000000000000e+00  0.0000000000000000e+00  0.0000000000000000e+00  0.0000000000000000e+00  0.0000000000000000e+00  0.0000000000000000e+00  0.0000000000000000e+00  0.0000000000000000e+00  0.0000000000000000e+00  0.0000000000000000e+00  0.0000000000000000e+00  0.0000000000000000e+00  0.0000000000000000e+00  0.0000000000000000e+00  0.0000000000000000e+00  0.0000000000000000e+00  0.0000000000000000e+00  0.0000000000000000e+00  0.0000000000000000e+00  0.0000000000000000e+00  0.0000000000000000e+00  0.0000000000000000e+00  0.0000000000000000e+00  0.0000000000000000e+00  0.0000000000000000e+00  0.0000000000000000e+00  0.0000000000000000e+00  0.0000000000000000e+00  0.0000000000000000e+00  0.0000000000000000e+00  0.0000000000000000e+00  0.0000000000000000e+00  0.0000000000000000e+00  0.0000000000000000e+00  0.0000000000000000e+00  0.0000000000000000e+00  0.0000000000000000e+00  0.0000000000000000e+00  0.0000000000000000e+00  0.0000000000000000e+00  0.0000000000000000e+00  0.0000000000000000e+00  0.0000000000000000e+00  0.0000000000000000e+00  0.0000000000000000e+00  0.0000000000000000e+00  0.0000000000000000e+00  0.0000000000000000e+00  1.8504613493363359e-01  1.7236449351855654e-01  1.3577046262753673e-01  1.3407297610480262e-01  1.5725806560626529e-01  2.0506686006775238e-01  1.9388520276154936e-01  1.5053020354606900e-01  1.6768630582547331e-01  2.0589723676869878e-01  1.8654931182856996e-01  1.8327412949042940e-01  2.1079968584839370e-01  1.6307462283874827e-01  1.6574858265548995e-01  1.6541942251255395e-01  1.4094142336016027e-01  1.6714767112038192e-01  1.8639313092709592e-01  1.6461871223314611e-01  1.7235149036354763e-01  1.6607522379973122e-01  1.7594323221980440e-01  1.9146084224708221e-01  1.7387042307476466e-01  1.5565174920509561e-01  1.7960468880268246e-01  1.6868226099055272e-01  1.4328673723512134e-01  1.5601068070831786e-01  1.6746568348799579e-01  1.7305950547719401e-01  1.6591705393526360e-01  2.2863859996480426e-01  1.6513423212730186e-01  1.8711902500939132e-01  1.6999771612542314e-01  1.9378914433642883e-01  1.8991299348019391e-01  1.6682501781620968e-01  1.3089095017802427e-01  2.0652082016971302e-01  1.5995794551708251e-01  1.9232078319043011e-01  1.7720111532786889e-01  1.6779751585784733e-01  2.4486514245625884e-01  2.0778938688941981e-01  1.7196533974453049e-01  1.8024650226000238e-01  1.6818211158232182e-01  1.4996657617208928e-01  1.6701276814274085e-01  2.0100375760080430e-01  1.7860190855076707e-01  1.7104560495809146e-01  1.5345156591641457e-01  1.7048338707776750e-01  2.2352633319885695e-01  1.8766965990950835e-01  1.8160732953526110e-01  1.9121994706034207e-01  3.6121969754134321e-27  -1.3177511029622282e-27  -2.6372988540908666e-27  -2.9362111354899846e-27  -1.2755134557900233e-27  -5.3192474243797243e-28  -2.0321713453867894e-28  1.8085996652663461e-27  7.1908517296885763e-27  4.1261704901713151e-27  -7.0167489837939785e-25  -6.6245821684347736e-25  5.4015518799345499e-25  1.1894523452956401e-24  3.7090907682579962e-26  3.0577003556312771e-26  -4.7813315153846219e-26  -3.0032503820845680e-26  -1.1242593945942991e-22  -1.6505400435877010e-22  -4.3274702859113743e-26  -4.9234123476761980e-26  4.7612438500549470e-23  4.7758642084261885e-23  -4.7365759269899845e-27  -3.9749996174104649e-26  -7.5369922562638557e-21  -7.1236227277288795e-21  -4.5758827761625732e-21  -4.8274273649001070e-21  8.3200343373720108e-26  -2.6524187642956357e-26  7.1703401622737096e-30  -8.8439280904238643e-30  -9.0742319961193283e-30  1.6282536577612376e-29  1.9759812117567383e-28  3.9844531197752581e-28  2.8927717985416520e-28  3.1818224841939904e-28  3.5536295835381611e-20  6.3547523433292915e-26  1.2229669639185491e-26  3.8447620474836036e-20  -9.0965196710510498e-30  -9.9263753417703612e-30  -6.2620462005477306e-30  2.3186072215973792e-31  2.4329242355755448e-31  2.3940965543000236e-31  1.4562221865530508e-31  -9.9633754387709857e-30  -6.1356144188103351e-33  -2.3068927705706410e-32  1.1371221071262384e-31  -4.0599781023608805e-33  2.5154780409141485e-32  -6.0625818908744759e-33  1.3756199897721811e-31  -9.9017383944234103e-34  -1.2942974075734338e-33  -4.6819453260049167e-34  -1.9574385606294080e-34  1.4856514348974515e-34  1.3409178712831217e-34  7.7341106155903051e-35  7.3736001507894807e-36  -1.6096912613672895e-33  2.7758149860409995e-20  4.6289471078726916e-26  -1.3626429824062693e-26  1.3821897428990329e-20  1.1675338777285909e-25  -3.4725234803606083e-24  1.3394908203235685e-21  8.8430431379688216e-22  -3.2579693211053493e-24  2.7352328250761450e-26  7.8783912634497880e-26  -5.2870409388303938e-26  -3.8570323244143918e-26  -1.1547888601069944e-23  3.9597120601550167e-22  4.1482010036470610e-22  -1.1338401669000039e-23  -2.5517695557319711e-27  8.8214598342301928e-26  -4.0405891196781817e-27  5.5584017985643713e-27  -6.5548127269121953e-27  8.9115008471099934e-26  1.1270769843350812e-25  -4.0128566453872768e-27  -2.4124966478013505e-27  3.0464784818756420e-26  2.8830729816274250e-26  -1.5704726654636770e-28  -7.7609340215335413e-28  -1.2224841797489554e-27  2.0590622549638892e-28  6.3878952215697539e-28  6.7275914820390247e-29  -1.5133887614238334e-28  -9.2254860653417625e-28  1.2567464816483953e-35  1.8952173580720677e-35  7.5316868586953377e-36  -1.6946016620567485e-36  6.4699466228334004e-36  1.5368882730957978e-36  1.0557456176097669e-35  5.2340043485260777e-37  2.7877468537567168e-20  1.2035481723756326e-25  1.1446528837959421e-25  1.3760367356465318e-20  -1.7863380215026782e-27  4.4955689631188377e-27  4.7956989116591659e-27  -7.1560266011100517e-27  -1.1865851188647320e-26  -6.9941289190319024e-29  -8.1944724113501183e-27  -2.0294424191846650e-26  3.5252787424899894e-30  -1.1192043741342024e-28  -7.3960905085285309e-29  2.8341013044143996e-30  3.4754378808630130e-30  -9.6395367891922559e-29  -1.2779681478796777e-28  1.1569376119968901e-30  -3.7499958462744277e-33  3.6441412714686446e-34  1.2052987990064271e-30  -1.2997729253411545e-32  2.7360690480795270e-31  -1.5412839954957690e-32  -3.6562404755445808e-32  1.2126588182386394e-33  8.1374453898916114e-31  -1.3325622634176928e-32  -1.3655503277392293e-33  2.9198309810845306e-34  -4.4317822817946525e-32  1.2637524783361703e-33  5.2319079442989014e-31  -1.7094966385943833e-32  -3.7014098268072952e-36  -1.7453801857275612e-36  -2.9595978167052350e-36  -3.4662511643816603e-36  3.4840952557725749e-20  -1.2995853857917718e-19  -8.5771483848214275e-20  4.2076950496264930e-19  2.0515162350381234e-19  -1.2097206036844756e-18  -3.1622075544697577e-19  2.8705393613453867e-18  -2.7975275815053894e-19  -4.3099802479806164e-18  4.7474873929475033e-18  -4.6496832075063234e-18  -2.3363936228559536e-17  6.8991207333074437e-17  8.0970996266899390e-17  -3.3342387628584095e-16  -2.1158946709451664e-16  1.1328876167380154e-15  3.8162536817608165e-16  -2.8846907339014246e-15  -2.0353343061833082e-16  -4.7525365996015775e-15  4.9165518613194514e-15  -1.6200971800452441e-15  -1.5863600654075218e-15  7.3808898759375130e-15  -2.5145867535897287e-14  -1.5924052102904894e-14  9.9126085815376850e-14  9.7169930005719956e-15  -1.8521731369729936e-13  5.6053602893870440e-14  -3.7650739181177399e-13  2.9176652176403553e-14  -1.9703582079430855e-13  8.8654761943520053e-13  1.5536380168408122e-13  -2.2293419392609393e-12  7.7802403934315849e-13  -1.2244246164735742e-13  -2.4767514662345726e-12  1.3240153496422430e-11  -1.0637134116147643e-13  -2.1326471377932457e-11  -2.3720651300800848e-11  1.5576243689920797e-11  -4.0435939874614147e-11  -2.6197007880765461e-11  -3.0475897487199735e-13  1.7310819561866564e-11  -4.9867782857955852e-11  -2.3475128702806092e-11  -1.2717077748290983e-12  1.8382145315012581e-11  -2.7278779410535807e-12  -3.2804597406915934e-12  -1.3737048477842184e-11  1.8262693874704453e-11  -1.8308167292942542e-12  -6.7099889901226634e-12  1.4874962323130801e-12  3.6898614428356024e-13  1.1085113849690290e-11  -8.5790473302359010e-12  9.5890402451984204e-13  3.5615959722976137e-12  -1.4405373615997630e-11  2.2790833503878782e-12  -9.7888625928722883e-13  2.8368199738056467e-13  -4.9727531377846519e-12  2.1933218045856106e-12  -8.9153989396735434e-12  1.4121260692557245e-13  1.4211342777240567e-12  2.1923225475443709e-12  -3.5655694086887405e-12  2.5691761350643767e-11  -9.9231821284873730e-12  4.6010852598393834e-11  -1.3699276600519186e-11  5.3262997321523363e-11  3.2758520185366518e-12  -1.4243347927771458e-11  5.2221867701267975e-11  -1.3903432774391593e-11  5.2099143781072127e-11  -1.4170494366563401e-11  5.2925873368263485e-11  -1.3636790645175669e-11  4.6053711157760334e-11  -1.0050836073630761e-11  2.6443207458006436e-11  -3.7217593767041485e-12  1.9326349678406953e-12  3.2816326681256585e-12  -1.3958260297106505e-10  2.5359211246533064e+00  1.9658158255307981e-12  -1.3155730466254544e-11  3.9195717388378336e-12  -1.2890518359478290e-11  2.5614704577264371e+00  2.4092779765048423e-12  -4.4103241608668257e-12  2.5155381292601136e+00  1.7720004956526448e-13  1.8654847811259960e-12  1.7140389283534298e-12  -1.0303365629131872e-11  2.3502250779427364e-12  -4.7668847236100990e-12  -1.9087822460004705e-10  -3.2981546149697571e-13  1.8425007178501360e-13  2.4648932102623991e-12  1.3477590737907799e-12  -1.3791212680021118e-11  3.1900157377805133e-12  -6.8565567103452940e-12  4.4373697631570666e-11  5.1244408958197923e-12  1.7259204278655170e-12  -1.0570177080038145e-11  2.9624884176135179e-11  2.7853529455787369e-11  -3.0701475821552585e-12  -2.6885403151289540e-12  -2.9985852639412592e-11  2.4131833011475182e-11  -4.4953041442380206e-12  2.5564713407848912e-12  -4.7095556696861316e-11  1.4856949842665131e-11  -3.5624790572958278e-12  2.0494686204061521e-12  -3.4325768804514603e-11  1.3012345655238154e-11  -1.6565881988776246e-11  -2.7053478042009215e-11  7.5590249170647137e-13  1.4721000622023048e-11  -2.5684583832916979e-11  -3.4306451108116250e-11  1.0565132446962328e-12  1.9256648808636161e-11  -3.8096480508880886e-11  -4.0371697027281472e-11  3.3821279389511775e-10  -1.0484639718985837e-10  3.4643045818590002e-11  2.7917609327695041e-10  -1.0161319925239960e-11  -1.5824511558578284e-10  7.0787368245011416e-10  -9.7369908765933673e-11  -3.1623735528770664e-10  3.3495704447192487e-10  -1.7629495940403939e-09  3.1756784172104937e-10  5.2659843072237947e-10  -9.3927061840001419e-10  5.5424217823881486e-11  4.6162473038232116e-10  -2.0804779251570948e-09  4.1343689875611016e-10  4.8502052404232150e-11  -7.7772778262554416e-10  6.2575540489892868e-09  -2.5230514225824678e-09  1.1102421299149039e-08  -2.6966335149877677e-09  6.0762603169526154e-09  3.0396290899690799e-10  -1.0068622049193109e-08  5.1678505102179990e-09  -2.7534595470888106e-08  8.9690320829015095e-09  -3.7318098780815877e-08  1.0594667498267114e-08  -4.0077973744168675e-08  1.0586077161540756e-08  -3.7174763631598588e-08  8.7248391705370595e-09  -2.6310902459993079e-08  5.0685686058201342e-09  -1.1416170893389576e-08  -1.8825333050402033e-09  -8.3021160964305668e-10  3.6490856665861904e-10  9.5299043932831901e-11  -6.0274815625787695e-11  2.9172597173148405e-12  6.9892986391549575e-12  -6.6547294758450231e-12  1.9364556734976397e-13  2.8335948029166984e-12  -1.2437675349505622e-11  -4.7751715643697093e-13  4.5645559050012709e-10  3.2651057061460719e-12  -1.0225752210908498e-11  1.8589516631241607e-12  -3.3190780831373401e-12  1.0211876380805758e-13  1.5019756865539816e-12  -5.0334253839727297e-13  1.3507408