<?xml version="1.0"?>
<VTKFile type="UnstructuredGrid"  version="0.1"  >
<UnstructuredGrid>
<Piece  NumberOfPoints="11902" NumberOfCells="23402">
<Points>
<DataArray  type="Float64"  NumberOfComponents="3"  format="ascii">-5 -5 0  5 -5 0  5 5 0  -5 5 0  1.264833669450763 0.001264107697276983 0  -4.9 -5 0  -4.8 -5 0  -4.7 -5 0  -4.6 -5 0  -4.5 -5 0  -4.4 -5 0  -4.3 -5 0  -4.2 -5 0  -4.1 -5 0  -4 -5 0  -3.9 -5 0  -3.8 -5 0  -3.7 -5 0  -3.6 -5 0  -3.5 -5 0  -3.4 -5 0  -3.3 -5 0  -3.2 -5 0  -3.1 -5 0  -3 -5 0  -2.9 -5 0  -2.8 -5 0  -2.7 -5 0  -2.6 -5 0  -2.5 -5 0  -2.4 -5 0  -2.3 -5 0  -2.2 -5 0  -2.1 -5 0  -2 -5 0  -1.9 -5 0  -1.8 -5 0  -1.7 -5 0  -1.6 -5 0  -1.5 -5 0  -1.4 -5 0  -1.3 -5 0  -1.2 -5 0  -1.1 -5 0  -1 -5 0  -0.9000000000000004 -5 0  -0.7999999999999998 -5 0  -0.7000000000000002 -5 0  -0.5999999999999996 -5 0  -0.5 -5 0  -0.4000000000000004 -5 0  -0.2999999999999998 -5 0  -0.2000000000000002 -5 0  -0.09999999999999964 -5 0  0 -5 0  0.09999999999999964 -5 0  0.2000000000000002 -5 0  0.2999999999999998 -5 0  0.4000000000000004 -5 0  0.5 -5 0  0.5999999999999996 -5 0  0.7000000000000002 -5 0  0.7999999999999998 -5 0  0.9000000000000004 -5 0  1 -5 0  1.1 -5 0  1.2 -5 0  1.3 -5 0  1.4 -5 0  1.5 -5 0  1.6 -5 0  1.7 -5 0  1.8 -5 0  1.9 -5 0  2 -5 0  2.1 -5 0  2.2 -5 0  2.3 -5 0  2.4 -5 0  2.5 -5 0  2.6 -5 0  2.7 -5 0  2.8 -5 0  2.9 -5 0  3 -5 0  3.1 -5 0  3.199999999999999 -5 0  3.300000000000001 -5 0  3.4 -5 0  3.5 -5 0  3.6 -5 0  3.699999999999999 -5 0  3.800000000000001 -5 0  3.9 -5 0  4 -5 0  4.1 -5 0  4.199999999999999 -5 0  4.300000000000001 -5 0  4.4 -5 0  4.5 -5 0  4.6 -5 0  4.699999999999999 -5 0  4.800000000000001 -5 0  4.9 -5 0  5 -4.9 0  5 -4.8 0  5 -4.7 0  5 -4.6 0  5 -4.5 0  5 -4.4 0  5 -4.3 0  5 -4.2 0  5 -4.1 0  5 -4 0  5 -3.9 0  5 -3.8 0  5 -3.7 0  5 -3.6 0  5 -3.5 0  5 -3.4 0  5 -3.3 0  5 -3.2 0  5 -3.1 0  5 -3 0  5 -2.9 0  5 -2.8 0  5 -2.7 0  5 -2.6 0  5 -2.5 0  5 -2.4 0  5 -2.3 0  5 -2.2 0  5 -2.1 0  5 -2 0  5 -1.9 0  5 -1.8 0  5 -1.7 0  5 -1.6 0  5 -1.5 0  5 -1.4 0  5 -1.3 0  5 -1.2 0  5 -1.1 0  5 -1 0  5 -0.9000000000000004 0  5 -0.7999999999999998 0  5 -0.7000000000000002 0  5 -0.5999999999999996 0  5 -0.5 0  5 -0.4000000000000004 0  5 -0.2999999999999998 0  5 -0.2000000000000002 0  5 -0.09999999999999964 0  5 0 0  5 0.09999999999999964 0  5 0.2000000000000002 0  5 0.2999999999999998 0  5 0.4000000000000004 0  5 0.5 0  5 0.5999999999999996 0  5 0.7000000000000002 0  5 0.7999999999999998 0  5 0.9000000000000004 0  5 1 0  5 1.1 0  5 1.2 0  5 1.3 0  5 1.4 0  5 1.5 0  5 1.6 0  5 1.7 0  5 1.8 0  5 1.9 0  5 2 0  5 2.1 0  5 2.2 0  5 2.3 0  5 2.4 0  5 2.5 0  5 2.6 0  5 2.7 0  5 2.8 0  5 2.9 0  5 3 0  5 3.1 0  5 3.199999999999999 0  5 3.300000000000001 0  5 3.4 0  5 3.5 0  5 3.6 0  5 3.699999999999999 0  5 3.800000000000001 0  5 3.9 0  5 4 0  5 4.1 0  5 4.199999999999999 0  5 4.300000000000001 0  5 4.4 0  5 4.5 0  5 4.6 0  5 4.699999999999999 0  5 4.800000000000001 0  5 4.9 0  4.9 5 0  4.8 5 0  4.7 5 0  4.6 5 0  4.5 5 0  4.4 5 0  4.3 5 0  4.2 5 0  4.1 5 0  4 5 0  3.9 5 0  3.8 5 0  3.7 5 0  3.6 5 0  3.5 5 0  3.4 5 0  3.3 5 0  3.2 5 0  3.1 5 0  3 5 0  2.9 5 0  2.8 5 0  2.7 5 0  2.6 5 0  2.5 5 0  2.4 5 0  2.3 5 0  2.2 5 0  2.1 5 0  2 5 0  1.9 5 0  1.8 5 0  1.7 5 0  1.6 5 0  1.5 5 0  1.4 5 0  1.3 5 0  1.2 5 0  1.1 5 0  1 5 0  0.9000000000000004 5 0  0.7999999999999998 5 0  0.7000000000000002 5 0  0.5999999999999996 5 0  0.5 5 0  0.4000000000000004 5 0  0.2999999999999998 5 0  0.2000000000000002 5 0  0.09999999999999964 5 0  0 5 0  -0.09999999999999964 5 0  -0.2000000000000002 5 0  -0.2999999999999998 5 0  -0.4000000000000004 5 0  -0.5 5 0  -0.5999999999999996 5 0  -0.7000000000000002 5 0  -0.7999999999999998 5 0  -0.9000000000000004 5 0  -1 5 0  -1.1 5 0  -1.2 5 0  -1.3 5 0  -1.4 5 0  -1.5 5 0  -1.6 5 0  -1.7 5 0  -1.8 5 0  -1.9 5 0  -2 5 0  -2.1 5 0  -2.2 5 0  -2.3 5 0  -2.4 5 0  -2.5 5 0  -2.6 5 0  -2.7 5 0  -2.8 5 0  -2.9 5 0  -3 5 0  -3.1 5 0  -3.199999999999999 5 0  -3.300000000000001 5 0  -3.4 5 0  -3.5 5 0  -3.6 5 0  -3.699999999999999 5 0  -3.800000000000001 5 0  -3.9 5 0  -4 5 0  -4.1 5 0  -4.199999999999999 5 0  -4.300000000000001 5 0  -4.4 5 0  -4.5 5 0  -4.6 5 0  -4.699999999999999 5 0  -4.800000000000001 5 0  -4.9 5 0  -5 4.9 0  -5 4.8 0  -5 4.7 0  -5 4.6 0  -5 4.5 0  -5 4.4 0  -5 4.3 0  -5 4.2 0  -5 4.1 0  -5 4 0  -5 3.9 0  -5 3.8 0  -5 3.7 0  -5 3.6 0  -5 3.5 0  -5 3.4 0  -5 3.3 0  -5 3.2 0  -5 3.1 0  -5 3 0  -5 2.9 0  -5 2.8 0  -5 2.7 0  -5 2.6 0  -5 2.5 0  -5 2.4 0  -5 2.3 0  -5 2.2 0  -5 2.1 0  -5 2 0  -5 1.9 0  -5 1.8 0  -5 1.7 0  -5 1.6 0  -5 1.5 0  -5 1.4 0  -5 1.3 0  -5 1.2 0  -5 1.1 0  -5 1 0  -5 0.9000000000000004 0  -5 0.7999999999999998 0  -5 0.7000000000000002 0  -5 0.5999999999999996 0  -5 0.5 0  -5 0.4000000000000004 0  -5 0.2999999999999998 0  -5 0.2000000000000002 0  -5 0.09999999999999964 0  -5 0 0  -5 -0.09999999999999964 0  -5 -0.2000000000000002 0  -5 -0.2999999999999998 0  -5 -0.4000000000000004 0  -5 -0.5 0  -5 -0.5999999999999996 0  -5 -0.7000000000000002 0  -5 -0.7999999999999998 0  -5 -0.9000000000000004 0  -5 -1 0  -5 -1.1 0  -5 -1.2 0  -5 -1.3 0  -5 -1.4 0  -5 -1.5 0  -5 -1.6 0  -5 -1.7 0  -5 -1.8 0  -5 -1.9 0  -5 -2 0  -5 -2.1 0  -5 -2.2 0  -5 -2.3 0  -5 -2.4 0  -5 -2.5 0  -5 -2.6 0  -5 -2.7 0  -5 -2.8 0  -5 -2.9 0  -5 -3 0  -5 -3.1 0  -5 -3.199999999999999 0  -5 -3.300000000000001 0  -5 -3.4 0  -5 -3.5 0  -5 -3.6 0  -5 -3.699999999999999 0  -5 -3.800000000000001 0  -5 -3.9 0  -5 -4 0  -5 -4.1 0  -5 -4.199999999999999 0  -5 -4.300000000000001 0  -5 -4.4 0  -5 -4.5 0  -5 -4.6 0  -5 -4.699999999999999 0  -5 -4.800000000000001 0  -5 -4.9 0  1.256782544437134 0.09296781130512248 0  1.234604998772265 0.1907826159530152 0  1.200781354049452 0.2875747523129175 0  1.158085074385599 0.3759830660035525 0  1.099380780898623 0.467143495335592 0  1.03271781008471 0.5505516858360524 0  0.9541199191757482 0.6310736319515929 0  0.8668173135187721 0.7059976441535883 0  0.7749860890410433 0.771194471672909 0  0.673140795665678 0.8286532519311041 0  0.5596540904941548 0.8808882491591994 0  0.4460363623405266 0.9259068595791177 0  0.3354428845624148 0.9574629606191095 0  0.2088087402001766 0.9800101755360161 0  0.0874967635213974 0.9984527067172547 0  -0.02626443847003547 1.002014231245615 0  -0.1439411000728129 0.9883741032824912 0  -0.2740712910664462 0.968440307654578 0  -0.3942886465909016 0.9442450763963819 0  -0.5036952342053383 0.9091638254699028 0  -0.6132371087209521 0.8627554096812534 0  -0.7151752376964625 0.8076061130967774 0  -0.8096024321469674 0.7431914857698053 0  -0.9012720182731805 0.6693908837748804 0  -0.9879588168444104 0.5890101259272773 0  -1.062971741589951 0.5072738241611934 0  -1.125193309095347 0.422985986690058 0  -1.180537097569949 0.3289951724084944 0  -1.217872061728885 0.2422945788020462 0  -1.242194940136044 0.1486289678079078 0  -1.252420724007705 0.05268362990259987 0  -1.252365472502156 -0.05037207605997146 0  -1.242071082510173 -0.1455868511785866 0  -1.217504820231284 -0.2362247066848944 0  -1.175195680140545 -0.3315769397380491 0  -1.125490607632167 -0.4240645296321288 0  -1.065136436601611 -0.5071029064914163 0  -0.9905299220780994 -0.5880312890083763 0  -0.904446713766402 -0.6673694102685088 0  -0.8137082441492695 -0.738679251886881 0  -0.718473512681525 -0.7992683151589334 0  -0.6138714729284688 -0.8526627004014541 0  -0.4978287710738348 -0.9024228523595291 0  -0.3854673495398712 -0.9423334488046269 0  -0.2707449430012773 -0.9683028371416608 0  -0.1421895501859365 -0.9884379286269489 0  -0.02748919153631071 -1.001252226554041 0  0.0858595810006727 -0.9938443968288657 0  0.2154549132204016 -0.9758153030086035 0  0.3384223836970406 -0.9556044147335374 0  0.450265948424337 -0.9245766032541732 0  0.5624358379832912 -0.8801073475864546 0  0.6744466785392252 -0.8284740360502713 0  0.774744196075095 -0.7724148690665367 0  0.8659469712902027 -0.7076921921126142 0  0.9517213765499976 -0.6318648432814239 0  1.030330348718764 -0.5491234735771916 0  1.101119137432828 -0.4653672386839909 0  1.158963006533843 -0.3762668432759694 0  1.202611382042058 -0.2856579588323129 0  1.235341560607059 -0.1901646975347447 0  1.257200013114868 -0.09310215665895633 0  -2.4485190645043 4.918038958372233 0  -2.448389132051687 -4.910410237615583 0  4.910331452870097 2.447834373030297 0  4.918466117422252 -2.44930164937994 0  2.446111470457298 -4.895627320519194 0  2.440546580637382 4.89939305597195 0  -4.910358789354179 -2.4478614690848 0  -4.910356100254242 2.447865643228111 0  -1.748471448282074 4.910892958467096 0  -1.744259569339603 -4.914338628721635 0  4.920484707184168 1.744014948429253 0  4.908997353027762 -1.747768397495453 0  -4.909292415953662 -1.747503299707642 0  -4.910116174751097 1.747249112180966 0  1.745740944062126 4.904740058317709 0  1.747148530279568 -4.892868539164578 0  -1.148791337136774 4.908649879643137 0  -1.129652325326301 -4.91657958455282 0  -4.908970452538238 -1.147842896577589 0  -4.908788350882769 1.147643676497782 0  1.14378882761277 -4.912756661460693 0  1.14880087603205 4.908635925520313 0  4.909109546763079 1.146117578353283 0  4.919968019156472 -1.151909864600332 0  -0.5466423706380629 -4.909824653209792 0  -0.5464281359741346 4.918528487007968 0  -4.907671196121813 -0.548661241137631 0  -4.907695181222012 0.547219629076392 0  4.90698719797633 -0.5489792005105686 0  4.918677672754331 0.5457423439340416 0  0.5424222846579605 -4.896672070560301 0  0.5511553525259862 4.915343720923646 0  -4.911816598834031 -3.048230055322425 0  4.918392967047865 3.04625028603006 0  4.911323836885043 -3.048204942075412 0  -4.912664990408075 3.045322339407157 0  3.055250010304025 -4.917314525246065 0  -3.048576863235038 -4.911245180774483 0  3.052145386678374 4.913324360322881 0  -3.048023079665071 4.912135796551776 0  -4.906767418294632 -0.04990291871174956 0  0.04511820301395122 -4.911773072987448 0  0.04956509428870028 4.918816705585254 0  4.913842385835523 -0.05128571745275044 0  3.545579268169755 -4.9189792670612 0  -3.548856281387153 4.911875
[...]
<PointData  Scalars="f_30"> 
<DataArray  type="Float64"  Name="f_30"  format="ascii">0.0000000000000000e+00  0.0000000000000000e+00  0.0000000000000000e+00  0.0000000000000000e+00  3.4850954230179670e-02  0.0000000000000000e+00  0.0000000000000000e+00  0.0000000000000000e+00  0.0000000000000000e+00  0.0000000000000000e+00  0.0000000000000000e+00  0.0000000000000000e+00  0.0000000000000000e+00  0.0000000000000000e+00  0.0000000000000000e+00  0.0000000000000000e+00  0.0000000000000000e+00  0.0000000000000000e+00  0.0000000000000000e+00  0.0000000000000000e+00  0.0000000000000000e+00  0.0000000000000000e+00  0.0000000000000000e+00  0.0000000000000000e+00  0.0000000000000000e+00  0.0000000000000000e+00  0.0000000000000000e+00  0.0000000000000000e+00  0.0000000000000000e+00  0.0000000000000000e+00  0.0000000000000000e+00  0.0000000000000000e+00  0.0000000000000000e+00  0.0000000000000000e+00  0.0000000000000000e+00  0.0000000000000000e+00  0.0000000000000000e+00  0.0000000000000000e+00  0.0000000000000000e+00  0.0000000000000000e+00  0.0000000000000000e+00  0.0000000000000000e+00  0.0000000000000000e+00  0.0000000000000000e+00  0.0000000000000000e+00  0.0000000000000000e+00  0.0000000000000000e+00  0.0000000000000000e+00  0.0000000000000000e+00  0.0000000000000000e+00  0.0000000000000000e+00  0.0000000000000000e+00  0.0000000000000000e+00  0.0000000000000000e+00  0.0000000000000000e+00  0.0000000000000000e+00  0.0000000000000000e+00  0.0000000000000000e+00  0.0000000000000000e+00  0.0000000000000000e+00  0.0000000000000000e+00  0.0000000000000000e+00  0.0000000000000000e+00  0.0000000000000000e+00  0.0000000000000000e+00  0.0000000000000000e+00  0.0000000000000000e+00  0.0000000000000000e+00  0.0000000000000000e+00  0.0000000000000000e+00  0.0000000000000000e+00  0.0000000000000000e+00  0.0000000000000000e+00  0.0000000000000000e+00  0.0000000000000000e+00  0.0000000000000000e+00  0.0000000000000000e+00  0.0000000000000000e+00  0.0000000000000000e+00  0.0000000000000000e+00  0.0000000000000000e+00  0.0000000000000000e+00  0.0000000000000000e+00  0.0000000000000000e+00  0.0000000000000000e+00  0.0000000000000000e+00  0.0000000000000000e+00  0.0000000000000000e+00  0.0000000000000000e+00  0.0000000000000000e+00  0.0000000000000000e+00  0.0000000000000000e+00  0.0000000000000000e+00  0.0000000000000000e+00  0.0000000000000000e+00  0.0000000000000000e+00  0.0000000000000000e+00  0.0000000000000000e+00  0.0000000000000000e+00  0.0000000000000000e+00  0.0000000000000000e+00  0.0000000000000000e+00  0.0000000000000000e+00  0.0000000000000000e+00  0.0000000000000000e+00  0.0000000000000000e+00  0.0000000000000000e+00  0.0000000000000000e+00  0.0000000000000000e+00  0.0000000000000000e+00  0.0000000000000000e+00  0.0000000000000000e+00  0.0000000000000000e+00  0.0000000000000000e+00  0.0000000000000000e+00  0.0000000000000000e+00  0.0000000000000000e+00  0.0000000000000000e+00  0.0000000000000000e+00  0.0000000000000000e+00  0.0000000000000000e+00  0.0000000000000000e+00  0.0000000000000000e+00  0.0000000000000000e+00  0.0000000000000000e+00  0.0000000000000000e+00  0.0000000000000000e+00  0.0000000000000000e+00  0.0000000000000000e+00  0.0000000000000000e+00  0.0000000000000000e+00  0.0000000000000000e+00  0.0000000000000000e+00  0.0000000000000000e+00  0.0000000000000000e+00  0.0000000000000000e+00  0.0000000000000000e+00  0.0000000000000000e+00  0.0000000000000000e+00  0.0000000000000000e+00  0.0000000000000000e+00  0.0000000000000000e+00  0.0000000000000000e+00  0.0000000000000000e+00  0.0000000000000000e+00  0.0000000000000000e+00  0.0000000000000000e+00  0.0000000000000000e+00  0.0000000000000000e+00  0.0000000000000000e+00  0.0000000000000000e+00  0.0000000000000000e+00  0.0000000000000000e+00  0.0000000000000000e+00  0.0000000000000000e+00  0.0000000000000000e+00  0.0000000000000000e+00  0.0000000000000000e+00  0.0000000000000000e+00  0.0000000000000000e+00  0.0000000000000000e+00  0.0000000000000000e+00  0.0000000000000000e+00  0.0000000000000000e+00  0.0000000000000000e+00  0.0000000000000000e+00  0.0000000000000000e+00  0.0000000000000000e+00  0.0000000000000000e+00  0.0000000000000000e+00  0.0000000000000000e+00  0.0000000000000000e+00  0.0000000000000000e+00  0.0000000000000000e+00  0.0000000000000000e+00  0.0000000000000000e+00  0.0000000000000000e+00  0.0000000000000000e+00  0.0000000000000000e+00  0.0000000000000000e+00  0.0000000000000000e+00  0.0000000000000000e+00  0.0000000000000000e+00  0.0000000000000000e+00  0.0000000000000000e+00  0.0000000000000000e+00  0.0000000000000000e+00  0.0000000000000000e+00  0.0000000000000000e+00  0.0000000000000000e+00  0.0000000000000000e+00  0.0000000000000000e+00  0.0000000000000000e+00  0.0000000000000000e+00  0.0000000000000000e+00  0.0000000000000000e+00  0.0000000000000000e+00  0.0000000000000000e+00  0.0000000000000000e+00  0.0000000000000000e+00  0.0000000000000000e+00  0.0000000000000000e+00  0.0000000000000000e+00  0.0000000000000000e+00  0.0000000000000000e+00  0.0000000000000000e+00  0.0000000000000000e+00  0.0000000000000000e+00  0.0000000000000000e+00  0.0000000000000000e+00  0.0000000000000000e+00  0.0000000000000000e+00  0.0000000000000000e+00  0.0000000000000000e+00  0.0000000000000000e+00  0.0000000000000000e+00  0.0000000000000000e+00  0.0000000000000000e+00  0.0000000000000000e+00  0.0000000000000000e+00  0.0000000000000000e+00  0.0000000000000000e+00  0.0000000000000000e+00  0.0000000000000000e+00  0.0000000000000000e+00  0.0000000000000000e+00  0.0000000000000000e+00  0.0000000000000000e+00  0.0000000000000000e+00  0.0000000000000000e+00  0.0000000000000000e+00  0.0000000000000000e+00  0.0000000000000000e+00  0.0000000000000000e+00  0.0000000000000000e+00  0.0000000000000000e+00  0.0000000000000000e+00  0.0000000000000000e+00  0.0000000000000000e+00  0.0000000000000000e+00  0.0000000000000000e+00  0.0000000000000000e+00  0.0000000000000000e+00  0.0000000000000000e+00  0.0000000000000000e+00  0.0000000000000000e+00  0.0000000000000000e+00  0.0000000000000000e+00  0.0000000000000000e+00  0.0000000000000000e+00  0.0000000000000000e+00  0.0000000000000000e+00  0.0000000000000000e+00  0.0000000000000000e+00  0.0000000000000000e+00  0.0000000000000000e+00  0.0000000000000000e+00  0.0000000000000000e+00  0.0000000000000000e+00  0.0000000000000000e+00  0.0000000000000000e+00  0.0000000000000000e+00  0.0000000000000000e+00  0.0000000000000000e+00  0.0000000000000000e+00  0.0000000000000000e+00  0.0000000000000000e+00  0.0000000000000000e+00  0.0000000000000000e+00  0.0000000000000000e+00  0.0000000000000000e+00  0.0000000000000000e+00  0.0000000000000000e+00  0.0000000000000000e+00  0.0000000000000000e+00  0.0000000000000000e+00  0.0000000000000000e+00  0.0000000000000000e+00  0.0000000000000000e+00  0.0000000000000000e+00  0.0000000000000000e+00  0.0000000000000000e+00  0.0000000000000000e+00  0.0000000000000000e+00  0.0000000000000000e+00  0.0000000000000000e+00  0.0000000000000000e+00  0.0000000000000000e+00  0.0000000000000000e+00  0.0000000000000000e+00  0.0000000000000000e+00  0.0000000000000000e+00  0.0000000000000000e+00  0.0000000000000000e+00  0.0000000000000000e+00  0.0000000000000000e+00  0.0000000000000000e+00  0.0000000000000000e+00  0.0000000000000000e+00  0.0000000000000000e+00  0.0000000000000000e+00  0.0000000000000000e+00  0.0000000000000000e+00  0.0000000000000000e+00  0.0000000000000000e+00  0.0000000000000000e+00  0.0000000000000000e+00  0.0000000000000000e+00  0.0000000000000000e+00  0.0000000000000000e+00  0.0000000000000000e+00  0.0000000000000000e+00  0.0000000000000000e+00  0.0000000000000000e+00  0.0000000000000000e+00  0.0000000000000000e+00  0.0000000000000000e+00  0.0000000000000000e+00  0.0000000000000000e+00  0.0000000000000000e+00  0.0000000000000000e+00  0.0000000000000000e+00  0.0000000000000000e+00  0.0000000000000000e+00  0.0000000000000000e+00  0.0000000000000000e+00  0.0000000000000000e+00  0.0000000000000000e+00  0.0000000000000000e+00  0.0000000000000000e+00  0.0000000000000000e+00  0.0000000000000000e+00  0.0000000000000000e+00  0.0000000000000000e+00  0.0000000000000000e+00  0.0000000000000000e+00  0.0000000000000000e+00  0.0000000000000000e+00  0.0000000000000000e+00  0.0000000000000000e+00  0.0000000000000000e+00  0.0000000000000000e+00  0.0000000000000000e+00  0.0000000000000000e+00  0.0000000000000000e+00  0.0000000000000000e+00  0.0000000000000000e+00  0.0000000000000000e+00  0.0000000000000000e+00  0.0000000000000000e+00  0.0000000000000000e+00  0.0000000000000000e+00  0.0000000000000000e+00  0.0000000000000000e+00  0.0000000000000000e+00  0.0000000000000000e+00  0.0000000000000000e+00  0.0000000000000000e+00  0.0000000000000000e+00  0.0000000000000000e+00  0.0000000000000000e+00  0.0000000000000000e+00  0.0000000000000000e+00  0.0000000000000000e+00  0.0000000000000000e+00  0.0000000000000000e+00  0.0000000000000000e+00  0.0000000000000000e+00  0.0000000000000000e+00  0.0000000000000000e+00  0.0000000000000000e+00  0.0000000000000000e+00  0.0000000000000000e+00  0.0000000000000000e+00  0.0000000000000000e+00  0.0000000000000000e+00  0.0000000000000000e+00  0.0000000000000000e+00  0.0000000000000000e+00  0.0000000000000000e+00  0.0000000000000000e+00  0.0000000000000000e+00  0.0000000000000000e+00  0.0000000000000000e+00  0.0000000000000000e+00  0.0000000000000000e+00  0.0000000000000000e+00  0.0000000000000000e+00  0.0000000000000000e+00  0.0000000000000000e+00  0.0000000000000000e+00  0.0000000000000000e+00  0.0000000000000000e+00  0.0000000000000000e+00  0.0000000000000000e+00  0.0000000000000000e+00  0.0000000000000000e+00  0.0000000000000000e+00  0.0000000000000000e+00  0.0000000000000000e+00  0.0000000000000000e+00  3.4179188018367251e-02  2.6797446909954770e-02  2.1305546599577018e-02  2.1502560919153292e-02  2.4271101549357844e-02  3.1745497937018557e-02  2.9653226270168302e-02  2.2807144068260617e-02  2.9194452077283859e-02  2.9871218336048624e-02  1.9409898186755502e-02  3.5152582293350505e-02  4.3236328824949370e-02  7.1941660837315097e-03  3.3988035535798343e-02  3.8820552828368146e-02  1.0606774275893724e-02  1.7381537830225752e-02  3.5913668942967450e-02  2.9436400123007741e-02  3.2340127733816150e-02  3.0383883412451781e-02  2.6921738238706694e-02  2.5549233444378466e-02  2.1092054506978136e-02  2.4571672143695360e-02  2.4657625814593034e-02  2.4517330295828043e-02  2.8830965823241506e-02  2.6558530274711226e-02  2.2329200341238222e-02  2.3755537930672196e-02  2.3488948732772245e-02  3.0269538224473421e-02  1.8895971045658454e-02  3.2357259056545941e-02  2.7973298809664041e-02  2.3683329580193473e-02  2.8443771978935665e-02  3.0994916786120142e-02  2.0456541931859556e-02  2.4206944947069566e-02  1.9613505921299294e-02  4.4024737351643257e-02  2.4949367678506574e-02  1.3507919758115048e-02  6.6137525663565219e-02  3.0935692165916226e-02  8.2481278934021310e-03  3.7507909528517194e-02  3.4433530695934467e-02  1.8309571009799193e-02  2.9709495527374293e-02  4.0858462290798446e-02  3.2468016053888361e-02  2.2979783640477133e-02  1.6664410690268486e-02  2.9278219126833732e-02  3.8435528849046281e-02  3.1952749445973178e-02  2.6118654741940927e-02  3.1698927164139364e-02  3.6120519325243855e-27  -1.3176455304310650e-27  -2.6372986287319314e-27  -2.9362107450740148e-27  -1.2753407952817319e-27  -5.3166499828205652e-28  -2.0321714511146800e-28  1.8085996366719510e-27  7.1905512535998719e-27  4.1261069197075803e-27  -7.0167484350603622e-25  -6.6245813749353458e-25  5.4015522551675335e-25  1.1894523948805296e-24  3.7093384593195585e-26  3.0578345718946129e-26  -4.7817211308680778e-26  -3.0032583275086015e-26  -1.1242594534370696e-22  -1.6505401273762949e-22  -4.3276079134097594e-26  -4.9235418445361545e-26  4.7612434475728189e-23  4.7758636870689809e-23  -4.7392482545872484e-27  -3.9752096920441484e-26  -7.5369923122737082e-21  -7.1236227069226912e-21  -4.5758828059858617e-21  -4.8274275360882514e-21  8.3206581449953461e-26  -2.6525568080355924e-26  7.1703364821908993e-30  -8.8439256796235010e-30  -9.0742300589248861e-30  1.6282533054928586e-29  1.9760124212819840e-28  3.9844712702554334e-28  2.8927896403441392e-28  3.1818411984247524e-28  3.5536294996037568e-20  6.3555677114576671e-26  1.2229059671110877e-26  3.8447621772119456e-20  -9.0965124897579958e-30  -9.9263713265305025e-30  -6.2620365783610413e-30  2.3186069113247866e-31  2.4329242501503301e-31  2.3940962018961718e-31  1.4562222978838290e-31  -9.9633773666806597e-30  -6.1356137653708153e-33  -2.3069039190819733e-32  1.1371218808821535e-31  -4.0599791857964967e-33  2.5154661015657742e-32  -6.0625809791881549e-33  1.3756193136783965e-31  -9.9017527046340206e-34  -1.2942977097419135e-33  -4.6819489399480635e-34  -1.9574414506025584e-34  1.4856513293237355e-34  1.3409178505954203e-34  7.7341140307134463e-35  7.3736442925557544e-36  -1.6096916303281030e-33  2.7758151075608499e-20  4.6291612523737263e-26  -1.3627665103441422e-26  1.3821898577152691e-20  1.1675526847366853e-25  -3.4725221761658985e-24  1.3394908248929849e-21  8.8430431824412862e-22  -3.2579679261234820e-24  2.7353609109255301e-26  7.8782433781191506e-26  -5.2877594594704391e-26  -3.8571532003537220e-26  -1.1547889016997297e-23  3.9597123367412184e-22  4.1482014404352338e-22  -1.1338401981026657e-23  -2.5504571358632112e-27  8.8214359659519475e-26  -4.0401548503039354e-27  5.5568734073238344e-27  -6.5560143264562653e-27  8.9114994683363002e-26  1.1270768589999618e-25  -4.0131677951465331e-27  -2.4128365034962677e-27  3.0464792202544557e-26  2.8830737180626661e-26  -1.5704723521740514e-28  -7.7610667866790600e-28  -1.2224619269282667e-27  2.0590619438858778e-28  6.3879522106081150e-28  6.7275882355415476e-29  -1.5133884719522861e-28  -9.2252233324987476e-28  1.2567466430611106e-35  1.8952179758982210e-35  7.5316856313544354e-36  -1.6946038576419372e-36  6.4699459143334806e-36  1.5368865289799138e-36  1.0557458789790374e-35  5.2340238468239038e-37  2.7877468740695504e-20  1.2036720133284635e-25  1.1446703560899507e-25  1.3760368716039993e-20  -1.7862927217484718e-27  4.4955673908453155e-27  4.7956970689898509e-27  -7.1561566599527002e-27  -1.1865849335882006e-26  -6.9819975340287613e-29  -8.1942399618463969e-27  -2.0294422567285031e-26  3.5252782647017144e-30  -1.1192110304820073e-28  -7.3961212278283682e-29  2.8341013064281026e-30  3.4754375045288184e-30  -9.6395372085621656e-29  -1.2779724389461034e-28  1.1569377153468088e-30  -3.7499932476443769e-33  3.6441397583872470e-34  1.2052975128156119e-30  -1.2997731478125637e-32  2.7360646708951041e-31  -1.5412842393921628e-32  -3.6562396730034084e-32  1.2126587317137784e-33  8.1374393808762850e-31  -1.3325625950462644e-32  -1.3655502880492504e-33  2.9198297076674959e-34  -4.4317815324427941e-32  1.2637524321829717e-33  5.2319045170707607e-31  -1.7094969355456168e-32  -3.7014104223828432e-36  -1.7453799049583545e-36  -2.9595981747852628e-36  -3.4662520623970931e-36  3.4840952160236902e-20  -1.2995853830316479e-19  -8.5771485362002157e-20  4.2076950820873642e-19  2.0515162985352052e-19  -1.2097206255607524e-18  -3.1622077523803044e-19  2.8705394512789076e-18  -2.7975271373146978e-19  -4.3099805246893122e-18  4.7474873508241991e-18  -4.6496826013318958e-18  -2.3363936447968572e-17  6.8991206815801282e-17  8.0970997897792780e-17  -3.3342387962538494e-16  -2.1158947376760626e-16  1.1328876402130650e-15  3.8162538820946244e-16  -2.8846908280712806e-15  -2.0353347376012268e-16  -4.7525366501406274e-15  4.9165521402110789e-15  -1.6200971396319289e-15  -1.5863606495198518e-15  7.3808900469102558e-15  -2.5145867093095493e-14  -1.5924053202033184e-14  9.9126088575011417e-14  9.7169964427491248e-15  -1.8521732969541011e-13  5.6053597019832810e-14  -3.7650738735090613e-13  2.9176699621586765e-14  -1.9703582398266200e-13  8.8654755009390317e-13  1.5536385855688348e-13  -2.2293420333244260e-12  7.7802385689308401e-13  -1.2244158856432062e-13  -2.4767512524824278e-12  1.3240151136781965e-11  -1.0637075598613938e-13  -2.1326473432250330e-11  -2.3720649762917994e-11  1.5576240523508073e-11  -4.0435928415007447e-11  -2.6197003049127135e-11  -3.0475886145778722e-13  1.7310816304620960e-11  -4.9867775140300818e-11  -2.3475122228912817e-11  -1.2717079663791062e-12  1.8382142133057738e-11  -2.7278772806207358e-12  -3.2804599372032016e-12  -1.3737042119175384e-11  1.8262690771319799e-11  -1.8308161233888552e-12  -6.7099889174113582e-12  1.4874960501134811e-12  3.6898659588792128e-13  1.1085111055557769e-11  -8.5790469203890426e-12  9.5890383911555490e-13  3.5615962020975304e-12  -1.4405375631811820e-11  2.2790839045329755e-12  -9.7888640820668910e-13  2.8368204450458378e-13  -4.9727543317787462e-12  2.1933223801697923e-12  -8.9154008342306137e-12  1.4121263722338967e-13  1.4211340745799667e-12  2.1923268250015740e-12  -3.5655713976956627e-12  2.5691766982641763e-11  -9.9231806184630546e-12  4.6010827132273415e-11  -1.3699262177460647e-11  5.3262920779282310e-11  3.2758500244173502e-12  -1.4243326312322073e-11  5.2221816607515999e-11  -1.3903440216047804e-11  5.2099285272633599e-11  -1.4170569070488322e-11  5.2926266506291670e-11  -1.3636908754789570e-11  4.6054112989728893e-11  -1.0050904448728354e-11  2.6443261501041065e-11  -3.7217190663123021e-12  1.9323405897640359e-12  3.2816606556385457e-12  -1.3958258811450412e-10  2.5201314822754339e+00  1.9658993826649237e-12  -1.3155952078954532e-11  3.9195821080284039e-12  -1.2890353829143283e-11  2.5894495775003543e+00  2.4091934321585358e-12  -4.4099332893951765e-12  2.4796755627281408e+00  1.7710242281285861e-13  1.8657581691374589e-12  1.7126650290598872e-12  -1.0303923815552347e-11  2.3502673567924670e-12  -4.7667477053302274e-12  -1.9087990277045748e-10  -3.2978810784911422e-13  1.8417759645963912e-13  2.4651810370645577e-12  1.3467365611325238e-12  -1.3792061961450218e-11  3.1901607228686438e-12  -6.8567924080040016e-12  4.4375650991406126e-11  5.1245209916717015e-12  1.7259942102368609e-12  -1.0570499579918714e-11  2.9626021866018961e-11  2.7854124855432600e-11  -3.0701515438263172e-12  -2.6889042637120995e-12  -2.9985405112831146e-11  2.4132985310451162e-11  -4.4954003413189049e-12  2.5560576291738324e-12  -4.7095958241393925e-11  1.4858884681479068e-11  -3.5627193870338381e-12  2.0490905423816706e-12  -3.4327560983559417e-11  1.3014903658559406e-11  -1.6575785636123339e-11  -2.7055979542903419e-11  7.5550689018323244e-13  1.4723867581556627e-11  -2.5696342666978163e-11  -3.4308006922333197e-11  1.0559269363636806e-12  1.9259293120496336e-11  -3.8109989515705286e-11  -4.0370767476407599e-11  3.3822914187339185e-10  -1.0485821253301947e-10  3.4693890923816028e-11  2.7917414265885598e-10  -1.0158286644510319e-11  -1.5825042447076186e-10  7.0791093577295491e-10  -9.7379150965868898e-11  -3.1623031859765748e-10  3.3497095154122698e-10  -1.7630539947953089e-09  3.1759860176797318e-10  5.2653808846100596e-10  -9.3929322213755820e-10  5.5420709154878994e-11  4.6164471379058562e-10  -2.0806074858814476e-09  4.1348389667951727e-10  4.8293455007441898e-11  -7.7766706944076587e-10  6.2573182048160059e-09  -2.5229857688324670e-09  1.1102166003399250e-08  -2.6965605468962746e-09  6.0759709843777428e-09  3.0404482254329685e-10  -1.0068934129201877e-08  5.1679319766450271e-09  -2.7534871351629399e-08  8.9690923402454970e-09  -3.7318256462471287e-08  1.0594690127648531e-08  -4.0077991507452638e-08  1.0586069882606993e-08  -3.7174714518249137e-08  8.7248269167024770e-09  -2.6310873606577316e-08  5.0685658250292259e-09  -1.1416175087342877e-08  -1.8825311425001760e-09  -8.3021178795520868e-10  3.6490832963266206e-10  9.5299192896864435e-11  -6.0274819955122136e-11  2.9172233969984276e-12  6.9893082264558302e-12  -6.6547245827751653e-12  1.9364294238780416e-13  2.8335947900045007e-12  -1.2437678627407037e-11  -4.7751675063298705e-13  4.5643855305633572e-10  3.2651065816314497e-12  -1.0225753856497758e-11  1.8589516874068808e-12  -3.3190771269350622e-12  1.0211851548003165e-13  1.5019760990960762e-12  -5.0334253670486981e-13  1.3507405