<?xml version="1.0"?>
<VTKFile type="UnstructuredGrid"  version="0.1"  >
<UnstructuredGrid>
<Piece  NumberOfPoints="11902" NumberOfCells="23402">
<Points>
<DataArray  type="Float64"  NumberOfComponents="3"  format="ascii">-5 -5 0  5 -5 0  5 5 0  -5 5 0  1.265375219643148 0.001271856390478365 0  -4.9 -5 0  -4.8 -5 0  -4.7 -5 0  -4.6 -5 0  -4.5 -5 0  -4.4 -5 0  -4.3 -5 0  -4.2 -5 0  -4.1 -5 0  -4 -5 0  -3.9 -5 0  -3.8 -5 0  -3.7 -5 0  -3.6 -5 0  -3.5 -5 0  -3.4 -5 0  -3.3 -5 0  -3.2 -5 0  -3.1 -5 0  -3 -5 0  -2.9 -5 0  -2.8 -5 0  -2.7 -5 0  -2.6 -5 0  -2.5 -5 0  -2.4 -5 0  -2.3 -5 0  -2.2 -5 0  -2.1 -5 0  -2 -5 0  -1.9 -5 0  -1.8 -5 0  -1.7 -5 0  -1.6 -5 0  -1.5 -5 0  -1.4 -5 0  -1.3 -5 0  -1.2 -5 0  -1.1 -5 0  -1 -5 0  -0.9000000000000004 -5 0  -0.7999999999999998 -5 0  -0.7000000000000002 -5 0  -0.5999999999999996 -5 0  -0.5 -5 0  -0.4000000000000004 -5 0  -0.2999999999999998 -5 0  -0.2000000000000002 -5 0  -0.09999999999999964 -5 0  0 -5 0  0.09999999999999964 -5 0  0.2000000000000002 -5 0  0.2999999999999998 -5 0  0.4000000000000004 -5 0  0.5 -5 0  0.5999999999999996 -5 0  0.7000000000000002 -5 0  0.7999999999999998 -5 0  0.9000000000000004 -5 0  1 -5 0  1.1 -5 0  1.2 -5 0  1.3 -5 0  1.4 -5 0  1.5 -5 0  1.6 -5 0  1.7 -5 0  1.8 -5 0  1.9 -5 0  2 -5 0  2.1 -5 0  2.2 -5 0  2.3 -5 0  2.4 -5 0  2.5 -5 0  2.6 -5 0  2.7 -5 0  2.8 -5 0  2.9 -5 0  3 -5 0  3.1 -5 0  3.199999999999999 -5 0  3.300000000000001 -5 0  3.4 -5 0  3.5 -5 0  3.6 -5 0  3.699999999999999 -5 0  3.800000000000001 -5 0  3.9 -5 0  4 -5 0  4.1 -5 0  4.199999999999999 -5 0  4.300000000000001 -5 0  4.4 -5 0  4.5 -5 0  4.6 -5 0  4.699999999999999 -5 0  4.800000000000001 -5 0  4.9 -5 0  5 -4.9 0  5 -4.8 0  5 -4.7 0  5 -4.6 0  5 -4.5 0  5 -4.4 0  5 -4.3 0  5 -4.2 0  5 -4.1 0  5 -4 0  5 -3.9 0  5 -3.8 0  5 -3.7 0  5 -3.6 0  5 -3.5 0  5 -3.4 0  5 -3.3 0  5 -3.2 0  5 -3.1 0  5 -3 0  5 -2.9 0  5 -2.8 0  5 -2.7 0  5 -2.6 0  5 -2.5 0  5 -2.4 0  5 -2.3 0  5 -2.2 0  5 -2.1 0  5 -2 0  5 -1.9 0  5 -1.8 0  5 -1.7 0  5 -1.6 0  5 -1.5 0  5 -1.4 0  5 -1.3 0  5 -1.2 0  5 -1.1 0  5 -1 0  5 -0.9000000000000004 0  5 -0.7999999999999998 0  5 -0.7000000000000002 0  5 -0.5999999999999996 0  5 -0.5 0  5 -0.4000000000000004 0  5 -0.2999999999999998 0  5 -0.2000000000000002 0  5 -0.09999999999999964 0  5 0 0  5 0.09999999999999964 0  5 0.2000000000000002 0  5 0.2999999999999998 0  5 0.4000000000000004 0  5 0.5 0  5 0.5999999999999996 0  5 0.7000000000000002 0  5 0.7999999999999998 0  5 0.9000000000000004 0  5 1 0  5 1.1 0  5 1.2 0  5 1.3 0  5 1.4 0  5 1.5 0  5 1.6 0  5 1.7 0  5 1.8 0  5 1.9 0  5 2 0  5 2.1 0  5 2.2 0  5 2.3 0  5 2.4 0  5 2.5 0  5 2.6 0  5 2.7 0  5 2.8 0  5 2.9 0  5 3 0  5 3.1 0  5 3.199999999999999 0  5 3.300000000000001 0  5 3.4 0  5 3.5 0  5 3.6 0  5 3.699999999999999 0  5 3.800000000000001 0  5 3.9 0  5 4 0  5 4.1 0  5 4.199999999999999 0  5 4.300000000000001 0  5 4.4 0  5 4.5 0  5 4.6 0  5 4.699999999999999 0  5 4.800000000000001 0  5 4.9 0  4.9 5 0  4.8 5 0  4.7 5 0  4.6 5 0  4.5 5 0  4.4 5 0  4.3 5 0  4.2 5 0  4.1 5 0  4 5 0  3.9 5 0  3.8 5 0  3.7 5 0  3.6 5 0  3.5 5 0  3.4 5 0  3.3 5 0  3.2 5 0  3.1 5 0  3 5 0  2.9 5 0  2.8 5 0  2.7 5 0  2.6 5 0  2.5 5 0  2.4 5 0  2.3 5 0  2.2 5 0  2.1 5 0  2 5 0  1.9 5 0  1.8 5 0  1.7 5 0  1.6 5 0  1.5 5 0  1.4 5 0  1.3 5 0  1.2 5 0  1.1 5 0  1 5 0  0.9000000000000004 5 0  0.7999999999999998 5 0  0.7000000000000002 5 0  0.5999999999999996 5 0  0.5 5 0  0.4000000000000004 5 0  0.2999999999999998 5 0  0.2000000000000002 5 0  0.09999999999999964 5 0  0 5 0  -0.09999999999999964 5 0  -0.2000000000000002 5 0  -0.2999999999999998 5 0  -0.4000000000000004 5 0  -0.5 5 0  -0.5999999999999996 5 0  -0.7000000000000002 5 0  -0.7999999999999998 5 0  -0.9000000000000004 5 0  -1 5 0  -1.1 5 0  -1.2 5 0  -1.3 5 0  -1.4 5 0  -1.5 5 0  -1.6 5 0  -1.7 5 0  -1.8 5 0  -1.9 5 0  -2 5 0  -2.1 5 0  -2.2 5 0  -2.3 5 0  -2.4 5 0  -2.5 5 0  -2.6 5 0  -2.7 5 0  -2.8 5 0  -2.9 5 0  -3 5 0  -3.1 5 0  -3.199999999999999 5 0  -3.300000000000001 5 0  -3.4 5 0  -3.5 5 0  -3.6 5 0  -3.699999999999999 5 0  -3.800000000000001 5 0  -3.9 5 0  -4 5 0  -4.1 5 0  -4.199999999999999 5 0  -4.300000000000001 5 0  -4.4 5 0  -4.5 5 0  -4.6 5 0  -4.699999999999999 5 0  -4.800000000000001 5 0  -4.9 5 0  -5 4.9 0  -5 4.8 0  -5 4.7 0  -5 4.6 0  -5 4.5 0  -5 4.4 0  -5 4.3 0  -5 4.2 0  -5 4.1 0  -5 4 0  -5 3.9 0  -5 3.8 0  -5 3.7 0  -5 3.6 0  -5 3.5 0  -5 3.4 0  -5 3.3 0  -5 3.2 0  -5 3.1 0  -5 3 0  -5 2.9 0  -5 2.8 0  -5 2.7 0  -5 2.6 0  -5 2.5 0  -5 2.4 0  -5 2.3 0  -5 2.2 0  -5 2.1 0  -5 2 0  -5 1.9 0  -5 1.8 0  -5 1.7 0  -5 1.6 0  -5 1.5 0  -5 1.4 0  -5 1.3 0  -5 1.2 0  -5 1.1 0  -5 1 0  -5 0.9000000000000004 0  -5 0.7999999999999998 0  -5 0.7000000000000002 0  -5 0.5999999999999996 0  -5 0.5 0  -5 0.4000000000000004 0  -5 0.2999999999999998 0  -5 0.2000000000000002 0  -5 0.09999999999999964 0  -5 0 0  -5 -0.09999999999999964 0  -5 -0.2000000000000002 0  -5 -0.2999999999999998 0  -5 -0.4000000000000004 0  -5 -0.5 0  -5 -0.5999999999999996 0  -5 -0.7000000000000002 0  -5 -0.7999999999999998 0  -5 -0.9000000000000004 0  -5 -1 0  -5 -1.1 0  -5 -1.2 0  -5 -1.3 0  -5 -1.4 0  -5 -1.5 0  -5 -1.6 0  -5 -1.7 0  -5 -1.8 0  -5 -1.9 0  -5 -2 0  -5 -2.1 0  -5 -2.2 0  -5 -2.3 0  -5 -2.4 0  -5 -2.5 0  -5 -2.6 0  -5 -2.7 0  -5 -2.8 0  -5 -2.9 0  -5 -3 0  -5 -3.1 0  -5 -3.199999999999999 0  -5 -3.300000000000001 0  -5 -3.4 0  -5 -3.5 0  -5 -3.6 0  -5 -3.699999999999999 0  -5 -3.800000000000001 0  -5 -3.9 0  -5 -4 0  -5 -4.1 0  -5 -4.199999999999999 0  -5 -4.300000000000001 0  -5 -4.4 0  -5 -4.5 0  -5 -4.6 0  -5 -4.699999999999999 0  -5 -4.800000000000001 0  -5 -4.9 0  1.257486607394642 0.09230466670189834 0  1.235311882079014 0.1900114255487476 0  1.201307633361044 0.2869617763615991 0  1.158645435142917 0.3755785258860867 0  1.09979426291772 0.4668104861384199 0  1.032836466598327 0.549999740222459 0  0.9543993586489057 0.6306257305208924 0  0.8671814553056305 0.7054442942636141 0  0.7753616140611773 0.770488749296017 0  0.6738226193443376 0.8279770083329484 0  0.5599891708105438 0.8802291187608914 0  0.4459845247953952 0.9253235840071584 0  0.3361140297006582 0.9566990752069717 0  0.2088127594923182 0.9796978522306072 0  0.08696460366770578 0.997780397664466 0  -0.0260725366793455 1.001425452651436 0  -0.1437351802543236 0.9879703922970299 0  -0.2746824694865001 0.9677337104027099 0  -0.3952350673590261 0.9434069643454789 0  -0.5041829633831701 0.9086469291135069 0  -0.6134698793487819 0.8623022013408106 0  -0.7153417418033494 0.8070022004808909 0  -0.8096009035491615 0.7428676173763079 0  -0.9013147131376532 0.6691360942521845 0  -0.9881282446593826 0.5886607628283027 0  -1.063123442291741 0.5067173864803981 0  -1.125536554006066 0.4226975737657677 0  -1.181563456682495 0.3279270205878629 0  -1.218657767155334 0.2418545233324758 0  -1.242853460263082 0.1484686347035837 0  -1.252901949905217 0.05293143764750852 0  -1.2528284378186 -0.05062979818186297 0  -1.242666021819409 -0.1454282929325603 0  -1.21830129717642 -0.2354325770769811 0  -1.17577821169574 -0.3311250569864043 0  -1.125832149494102 -0.4238761727437435 0  -1.065487765487778 -0.5064286537857632 0  -0.9907404664456591 -0.587673907309042 0  -0.9045230698186137 -0.6670981694382967 0  -0.813885754494249 -0.7381079908746887 0  -0.7188960931604399 -0.7985030615902633 0  -0.6144846958243951 -0.8520239440908076 0  -0.497838504822242 -0.9018377956567868 0  -0.3856895800070148 -0.9416863551932269 0  -0.2713797519257083 -0.9676014227429662 0  -0.1418965550593085 -0.988073716655445 0  -0.02742194732836507 -1.0006472312578 0  0.08499023119779033 -0.9932823615937997 0  0.2158159145279265 -0.975199784071465 0  0.3392484626942522 -0.9547198067826738 0  0.4502766393737209 -0.9239735275692084 0  0.5629039906550494 -0.8794192687138811 0  0.6752049253500795 -0.827736754913268 0  0.7749966269863152 -0.7717801587072154 0  0.8658451179466299 -0.7074412635379721 0  0.9513229909564139 -0.6317377928716993 0  1.030548570609485 -0.5483969643330888 0  1.101874709752685 -0.464651742433291 0  1.159610694210149 -0.3757051932599541 0  1.203179772917996 -0.2850497127538327 0  1.236057820362877 -0.1894745479696244 0  1.257899357301772 -0.09256608902002614 0  -2.448509953846617 4.918023228860529 0  -2.448379115098479 -4.910393021379971 0  4.91031324905433 2.447822354206538 0  4.918449591125085 -2.449290795235878 0  2.446099852847754 -4.895607175884862 0  2.44053530419931 4.899373483304918 0  -4.910340551606033 -2.447849611916888 0  -4.910337875908267 2.447853843968151 0  -1.748461985106688 4.910870031854142 0  -1.74425038791287 -4.914316555196951 0  4.920461822314272 1.744004104545487 0  4.908971210980345 -1.747756064691802 0  -4.909266293318858 -1.74749109840043 0  -4.910090299039997 1.747237095510369 0  1.745730674165002 4.904715348360102 0  1.747137103421677 -4.89284089326222 0  -1.148783822134804 4.908621851860172 0  -1.129645419695843 -4.91655390354236 0  -4.908937853873025 -1.147832885507021 0  -4.908755695131051 1.147633725953262 0  1.143781595740351 -4.912729850792839 0  1.148793124216551 4.908607760567048 0  4.909077039002322 1.146107436539595 0  4.919939451473187 -1.151900983648049 0  -0.5466383777048029 -4.909793975541584 0  -0.5464246913671414 4.918500716564651 0  -4.907633407642562 -0.5486556814805974 0  -4.907657400394024 0.5472141640501679 0  4.906949189020178 -0.5489735894677351 0  4.918644428415617 0.5457373922349592 0  0.5424178081408122 -4.896636871761102 0  0.551151458206818 4.915314814077079 0  -4.911804255860949 -3.048220222252869 0  4.918381552695358 3.046241067117361 0  4.911311465471189 -3.048194993531583 0  -4.912652755323117 3.045312630847992 0  3.055241913285622 -4.917303111228734 0  -3.048568112841206 -4.911232925368989 0  3.052136852356325 4.913312305376047 0  -3.048014448190837 4.912123684466475 0  -4.906727696003256 -0.04990235135971084 0  0.04511790179524087 -4.911742120270334 0  0.04956461332215886 4.918788144271433 0  4.913805731159727 -0.05128524685344007 0  3.545572895075123 -4.918971327021469 0  -3.548849352915924 4.911
[...]
<PointData  Scalars="f_30"> 
<DataArray  type="Float64"  Name="f_30"  format="ascii">0.0000000000000000e+00  0.0000000000000000e+00  0.0000000000000000e+00  0.0000000000000000e+00  3.1979571143496463e-02  0.0000000000000000e+00  0.0000000000000000e+00  0.0000000000000000e+00  0.0000000000000000e+00  0.0000000000000000e+00  0.0000000000000000e+00  0.0000000000000000e+00  0.0000000000000000e+00  0.0000000000000000e+00  0.0000000000000000e+00  0.0000000000000000e+00  0.0000000000000000e+00  0.0000000000000000e+00  0.0000000000000000e+00  0.0000000000000000e+00  0.0000000000000000e+00  0.0000000000000000e+00  0.0000000000000000e+00  0.0000000000000000e+00  0.0000000000000000e+00  0.0000000000000000e+00  0.0000000000000000e+00  0.0000000000000000e+00  0.0000000000000000e+00  0.0000000000000000e+00  0.0000000000000000e+00  0.0000000000000000e+00  0.0000000000000000e+00  0.0000000000000000e+00  0.0000000000000000e+00  0.0000000000000000e+00  0.0000000000000000e+00  0.0000000000000000e+00  0.0000000000000000e+00  0.0000000000000000e+00  0.0000000000000000e+00  0.0000000000000000e+00  0.0000000000000000e+00  0.0000000000000000e+00  0.0000000000000000e+00  0.0000000000000000e+00  0.0000000000000000e+00  0.0000000000000000e+00  0.0000000000000000e+00  0.0000000000000000e+00  0.0000000000000000e+00  0.0000000000000000e+00  0.0000000000000000e+00  0.0000000000000000e+00  0.0000000000000000e+00  0.0000000000000000e+00  0.0000000000000000e+00  0.0000000000000000e+00  0.0000000000000000e+00  0.0000000000000000e+00  0.0000000000000000e+00  0.0000000000000000e+00  0.0000000000000000e+00  0.0000000000000000e+00  0.0000000000000000e+00  0.0000000000000000e+00  0.0000000000000000e+00  0.0000000000000000e+00  0.0000000000000000e+00  0.0000000000000000e+00  0.0000000000000000e+00  0.0000000000000000e+00  0.0000000000000000e+00  0.0000000000000000e+00  0.0000000000000000e+00  0.0000000000000000e+00  0.0000000000000000e+00  0.0000000000000000e+00  0.0000000000000000e+00  0.0000000000000000e+00  0.0000000000000000e+00  0.0000000000000000e+00  0.0000000000000000e+00  0.0000000000000000e+00  0.0000000000000000e+00  0.0000000000000000e+00  0.0000000000000000e+00  0.0000000000000000e+00  0.0000000000000000e+00  0.0000000000000000e+00  0.0000000000000000e+00  0.0000000000000000e+00  0.0000000000000000e+00  0.0000000000000000e+00  0.0000000000000000e+00  0.0000000000000000e+00  0.0000000000000000e+00  0.0000000000000000e+00  0.0000000000000000e+00  0.0000000000000000e+00  0.0000000000000000e+00  0.0000000000000000e+00  0.0000000000000000e+00  0.0000000000000000e+00  0.0000000000000000e+00  0.0000000000000000e+00  0.0000000000000000e+00  0.0000000000000000e+00  0.0000000000000000e+00  0.0000000000000000e+00  0.0000000000000000e+00  0.0000000000000000e+00  0.0000000000000000e+00  0.0000000000000000e+00  0.0000000000000000e+00  0.0000000000000000e+00  0.0000000000000000e+00  0.0000000000000000e+00  0.0000000000000000e+00  0.0000000000000000e+00  0.0000000000000000e+00  0.0000000000000000e+00  0.0000000000000000e+00  0.0000000000000000e+00  0.0000000000000000e+00  0.0000000000000000e+00  0.0000000000000000e+00  0.0000000000000000e+00  0.0000000000000000e+00  0.0000000000000000e+00  0.0000000000000000e+00  0.0000000000000000e+00  0.0000000000000000e+00  0.0000000000000000e+00  0.0000000000000000e+00  0.0000000000000000e+00  0.0000000000000000e+00  0.0000000000000000e+00  0.0000000000000000e+00  0.0000000000000000e+00  0.0000000000000000e+00  0.0000000000000000e+00  0.0000000000000000e+00  0.0000000000000000e+00  0.0000000000000000e+00  0.0000000000000000e+00  0.0000000000000000e+00  0.0000000000000000e+00  0.0000000000000000e+00  0.0000000000000000e+00  0.0000000000000000e+00  0.0000000000000000e+00  0.0000000000000000e+00  0.0000000000000000e+00  0.0000000000000000e+00  0.0000000000000000e+00  0.0000000000000000e+00  0.0000000000000000e+00  0.0000000000000000e+00  0.0000000000000000e+00  0.0000000000000000e+00  0.0000000000000000e+00  0.0000000000000000e+00  0.0000000000000000e+00  0.0000000000000000e+00  0.0000000000000000e+00  0.0000000000000000e+00  0.0000000000000000e+00  0.0000000000000000e+00  0.0000000000000000e+00  0.0000000000000000e+00  0.0000000000000000e+00  0.0000000000000000e+00  0.0000000000000000e+00  0.0000000000000000e+00  0.0000000000000000e+00  0.0000000000000000e+00  0.0000000000000000e+00  0.0000000000000000e+00  0.0000000000000000e+00  0.0000000000000000e+00  0.0000000000000000e+00  0.0000000000000000e+00  0.0000000000000000e+00  0.0000000000000000e+00  0.0000000000000000e+00  0.0000000000000000e+00  0.0000000000000000e+00  0.0000000000000000e+00  0.0000000000000000e+00  0.0000000000000000e+00  0.0000000000000000e+00  0.0000000000000000e+00  0.0000000000000000e+00  0.0000000000000000e+00  0.0000000000000000e+00  0.0000000000000000e+00  0.0000000000000000e+00  0.0000000000000000e+00  0.0000000000000000e+00  0.0000000000000000e+00  0.0000000000000000e+00  0.0000000000000000e+00  0.0000000000000000e+00  0.0000000000000000e+00  0.0000000000000000e+00  0.0000000000000000e+00  0.0000000000000000e+00  0.0000000000000000e+00  0.0000000000000000e+00  0.0000000000000000e+00  0.0000000000000000e+00  0.0000000000000000e+00  0.0000000000000000e+00  0.0000000000000000e+00  0.0000000000000000e+00  0.0000000000000000e+00  0.0000000000000000e+00  0.0000000000000000e+00  0.0000000000000000e+00  0.0000000000000000e+00  0.0000000000000000e+00  0.0000000000000000e+00  0.0000000000000000e+00  0.0000000000000000e+00  0.0000000000000000e+00  0.0000000000000000e+00  0.0000000000000000e+00  0.0000000000000000e+00  0.0000000000000000e+00  0.0000000000000000e+00  0.0000000000000000e+00  0.0000000000000000e+00  0.0000000000000000e+00  0.0000000000000000e+00  0.0000000000000000e+00  0.0000000000000000e+00  0.0000000000000000e+00  0.0000000000000000e+00  0.0000000000000000e+00  0.0000000000000000e+00  0.0000000000000000e+00  0.0000000000000000e+00  0.0000000000000000e+00  0.0000000000000000e+00  0.0000000000000000e+00  0.0000000000000000e+00  0.0000000000000000e+00  0.0000000000000000e+00  0.0000000000000000e+00  0.0000000000000000e+00  0.0000000000000000e+00  0.0000000000000000e+00  0.0000000000000000e+00  0.0000000000000000e+00  0.0000000000000000e+00  0.0000000000000000e+00  0.0000000000000000e+00  0.0000000000000000e+00  0.0000000000000000e+00  0.0000000000000000e+00  0.0000000000000000e+00  0.0000000000000000e+00  0.0000000000000000e+00  0.0000000000000000e+00  0.0000000000000000e+00  0.0000000000000000e+00  0.0000000000000000e+00  0.0000000000000000e+00  0.0000000000000000e+00  0.0000000000000000e+00  0.0000000000000000e+00  0.0000000000000000e+00  0.0000000000000000e+00  0.0000000000000000e+00  0.0000000000000000e+00  0.0000000000000000e+00  0.0000000000000000e+00  0.0000000000000000e+00  0.0000000000000000e+00  0.0000000000000000e+00  0.0000000000000000e+00  0.0000000000000000e+00  0.0000000000000000e+00  0.0000000000000000e+00  0.0000000000000000e+00  0.0000000000000000e+00  0.0000000000000000e+00  0.0000000000000000e+00  0.0000000000000000e+00  0.0000000000000000e+00  0.0000000000000000e+00  0.0000000000000000e+00  0.0000000000000000e+00  0.0000000000000000e+00  0.0000000000000000e+00  0.0000000000000000e+00  0.0000000000000000e+00  0.0000000000000000e+00  0.0000000000000000e+00  0.0000000000000000e+00  0.0000000000000000e+00  0.0000000000000000e+00  0.0000000000000000e+00  0.0000000000000000e+00  0.0000000000000000e+00  0.0000000000000000e+00  0.0000000000000000e+00  0.0000000000000000e+00  0.0000000000000000e+00  0.0000000000000000e+00  0.0000000000000000e+00  0.0000000000000000e+00  0.0000000000000000e+00  0.0000000000000000e+00  0.0000000000000000e+00  0.0000000000000000e+00  0.0000000000000000e+00  0.0000000000000000e+00  0.0000000000000000e+00  0.0000000000000000e+00  0.0000000000000000e+00  0.0000000000000000e+00  0.0000000000000000e+00  0.0000000000000000e+00  0.0000000000000000e+00  0.0000000000000000e+00  0.0000000000000000e+00  0.0000000000000000e+00  0.0000000000000000e+00  0.0000000000000000e+00  0.0000000000000000e+00  0.0000000000000000e+00  0.0000000000000000e+00  0.0000000000000000e+00  0.0000000000000000e+00  0.0000000000000000e+00  0.0000000000000000e+00  0.0000000000000000e+00  0.0000000000000000e+00  0.0000000000000000e+00  0.0000000000000000e+00  0.0000000000000000e+00  0.0000000000000000e+00  0.0000000000000000e+00  0.0000000000000000e+00  0.0000000000000000e+00  0.0000000000000000e+00  0.0000000000000000e+00  0.0000000000000000e+00  0.0000000000000000e+00  0.0000000000000000e+00  0.0000000000000000e+00  0.0000000000000000e+00  0.0000000000000000e+00  0.0000000000000000e+00  0.0000000000000000e+00  0.0000000000000000e+00  0.0000000000000000e+00  0.0000000000000000e+00  0.0000000000000000e+00  0.0000000000000000e+00  0.0000000000000000e+00  0.0000000000000000e+00  0.0000000000000000e+00  0.0000000000000000e+00  0.0000000000000000e+00  0.0000000000000000e+00  0.0000000000000000e+00  0.0000000000000000e+00  0.0000000000000000e+00  0.0000000000000000e+00  0.0000000000000000e+00  0.0000000000000000e+00  0.0000000000000000e+00  0.0000000000000000e+00  0.0000000000000000e+00  0.0000000000000000e+00  0.0000000000000000e+00  0.0000000000000000e+00  0.0000000000000000e+00  0.0000000000000000e+00  0.0000000000000000e+00  0.0000000000000000e+00  0.0000000000000000e+00  0.0000000000000000e+00  0.0000000000000000e+00  0.0000000000000000e+00  0.0000000000000000e+00  0.0000000000000000e+00  0.0000000000000000e+00  0.0000000000000000e+00  0.0000000000000000e+00  0.0000000000000000e+00  0.0000000000000000e+00  0.0000000000000000e+00  0.0000000000000000e+00  0.0000000000000000e+00  0.0000000000000000e+00  0.0000000000000000e+00  0.0000000000000000e+00  3.2129000451546770e-02  2.5446321307860474e-02  1.9772289314449916e-02  2.1209919068137573e-02  2.3388582071890686e-02  2.7982614408531597e-02  2.8356796665472278e-02  2.1200435284869684e-02  2.6410474128485271e-02  2.8441496321964771e-02  1.7766315184108875e-02  3.2444573799717540e-02  4.0328820528176629e-02  8.1459080012780405e-03  3.1405204297522582e-02  3.6298732445007760e-02  9.9044219430561020e-03  1.6111515044085253e-02  3.2886390579710045e-02  2.7956099070107650e-02  3.0890057939505517e-02  2.7770486355218310e-02  2.5017333435623741e-02  2.3762358267601813e-02  1.9620399563037051e-02  2.1880434920413132e-02  2.3156571202805450e-02  2.3417489275961940e-02  2.7523076236740072e-02  2.4660030339186689e-02  2.0816642355701784e-02  2.2285186906049973e-02  2.0746792224246163e-02  2.8499818836750672e-02  1.7358182891696342e-02  3.0091141084963403e-02  2.5307411454084883e-02  2.1980289566205118e-02  2.7028979476904694e-02  2.8512219829293799e-02  1.7999872467346342e-02  2.3243447907920788e-02  1.7374690064337183e-02  4.0989345546211038e-02  2.3487907302133574e-02  1.3071758461541053e-02  6.1289029573449769e-02  2.8793067206951007e-02  7.6171389196159102e-03  3.4877405296778588e-02  3.2398820380950134e-02  1.6904641510604376e-02  2.8453341171199260e-02  3.7218374246168591e-02  3.1056286638153813e-02  2.1136763441865374e-02  1.3957803516594926e-02  2.8360553554972016e-02  3.6784434387328604e-02  2.9185531306386681e-02  2.4301712940429727e-02  2.9879555852397398e-02  3.6120491939754941e-27  -1.3176451103025397e-27  -2.6372986264552477e-27  -2.9362107377081548e-27  -1.2753405571493575e-27  -5.3166013336082254e-28  -2.0321713613881130e-28  1.8085996418639048e-27  7.1905453625452318e-27  4.1261066286115084e-27  -7.0167484377832884e-25  -6.6245813657063432e-25  5.4015522794134627e-25  1.1894523960928873e-24  3.7093423571015374e-26  3.0578362224462373e-26  -4.7817273905721915e-26  -3.0032620787615861e-26  -1.1242594552484995e-22  -1.6505401289733826e-22  -4.3276102033835744e-26  -4.9235468427589407e-26  4.7612434444071585e-23  4.7758636797918304e-23  -4.7392273244328542e-27  -3.9752115984875780e-26  -7.5369923204245026e-21  -7.1236227134930042e-21  -4.5758828044874160e-21  -4.8274275353735433e-21  8.3206700861860401e-26  -2.6525600125976833e-26  7.1703364651400383e-30  -8.8439256062134486e-30  -9.0742300010325465e-30  1.6282533024487150e-29  1.9760128250656286e-28  3.9844723772681350e-28  2.8927909106855438e-28  3.1818415918206031e-28  3.5536294985465026e-20  6.3555740834494518e-26  1.2229128320146965e-26  3.8447621778344182e-20  -9.0965124340806215e-30  -9.9263713187183070e-30  -6.2620364907172864e-30  2.3186069049154909e-31  2.4329242390502553e-31  2.3940961951702159e-31  1.4562222892373104e-31  -9.9633774431088148e-30  -6.1356137414460724e-33  -2.3069039414946954e-32  1.1371218846842743e-31  -4.0599791814562087e-33  2.5154659680497199e-32  -6.0625809525882291e-33  1.3756192936958241e-31  -9.9017527288683657e-34  -1.2942977181851719e-33  -4.6819489786695365e-34  -1.9574414724499266e-34  1.4856513247286827e-34  1.3409178461648257e-34  7.7341140680309314e-35  7.3736447899733396e-36  -1.6096916274781301e-33  2.7758151083517017e-20  4.6291681310179966e-26  -1.3627605892834803e-26  1.3821898589621378e-20  1.1675538629667146e-25  -3.4725221611947856e-24  1.3394908255826922e-21  8.8430431869896387e-22  -3.2579679078097087e-24  2.7353637028473721e-26  7.8782467476243066e-26  -5.2877723093648039e-26  -3.8571560144240374e-26  -1.1547889007775933e-23  3.9597123398275874e-22  4.1482014449677679e-22  -1.1338401973162803e-23  -2.5504342232967155e-27  8.8214474176552455e-26  -4.0401653806191882e-27  5.5568606013260057e-27  -6.5560354504203387e-27  8.9114994584864576e-26  1.1270768574225198e-25  -4.0131668168963261e-27  -2.4128266434434950e-27  3.0464792211662961e-26  2.8830737220491911e-26  -1.5704723451620850e-28  -7.7610618968991164e-28  -1.2224607771564184e-27  2.0590619432718745e-28  6.3879525953770016e-28  6.7275882528278904e-29  -1.5133884655078028e-28  -9.2252218057925404e-28  1.2567466423185665e-35  1.8952179861061234e-35  7.5316856085262651e-36  -1.6946037256564896e-36  6.4699458936203011e-36  1.5368866646604208e-36  1.0557458793741035e-35  5.2340240930573575e-37  2.7877468754559462e-20  1.2036739176875389e-25  1.1446717389821766e-25  1.3760368729081066e-20  -1.7862907114266315e-27  4.4955673797478066e-27  4.7956970442573012e-27  -7.1561520278915442e-27  -1.1865849343065059e-26  -6.9819690128545567e-29  -8.1942418112071863e-27  -2.0294422557660531e-26  3.5252782548540747e-30  -1.1192111323644188e-28  -7.3961217792670563e-29  2.8341012918476789e-30  3.4754374965166611e-30  -9.6395372155079054e-29  -1.2779725928880804e-28  1.1569377041282235e-30  -3.7499932991689631e-33  3.6441397503476529e-34  1.2052975065801086e-30  -1.2997731597280189e-32  2.7360647445787080e-31  -1.5412842483350459e-32  -3.6562396508424594e-32  1.2126587255763327e-33  8.1374393868727635e-31  -1.3325626062655096e-32  -1.3655503688327331e-33  2.9198296976285818e-34  -4.4317815110597010e-32  1.2637524268344190e-33  5.2319042864305718e-31  -1.7094969302423519e-32  -3.7014104210472660e-36  -1.7453799017169250e-36  -2.9595981744315311e-36  -3.4662520635051993e-36  3.4840952163367314e-20  -1.2995853834314033e-19  -8.5771485419534884e-20  4.2076950842267214e-19  2.0515163002282426e-19  -1.2097206263856002e-18  -3.1622077555629874e-19  2.8705394536720674e-18  -2.7975271386825063e-19  -4.3099805290773402e-18  4.7474873554429866e-18  -4.6496826039894596e-18  -2.3363936473764943e-17  6.8991206883562227e-17  8.0970997997735491e-17  -3.3342387999543629e-16  -2.1158947406931669e-16  1.1328876416210482e-15  3.8162538891722795e-16  -2.8846908322500449e-15  -2.0353347488270710e-16  -4.7525366554370829e-15  4.9165521497650033e-15  -1.6200971394174023e-15  -1.5863606639837910e-15  7.3808900529881167e-15  -2.5145867094038614e-14  -1.5924053225198886e-14  9.9126088662983355e-14  9.7169964863932756e-15  -1.8521733000138080e-13  5.6053597020905705e-14  -3.7650738741165291e-13  2.9176700138739141e-14  -1.9703582431117784e-13  8.8654755041407326e-13  1.5536385977871418e-13  -2.2293420384058676e-12  7.7802385485760326e-13  -1.2244157196633551e-13  -2.4767512543562843e-12  1.3240151114927453e-11  -1.0637073440627253e-13  -2.1326473509449529e-11  -2.3720649812374622e-11  1.5576240467662457e-11  -4.0435928084796986e-11  -2.6197003039731012e-11  -3.0475884201100109e-13  1.7310816227543575e-11  -4.9867774774269383e-11  -2.3475122187596903e-11  -1.2717079480131938e-12  1.8382142046687784e-11  -2.7278772709938285e-12  -3.2804599142483439e-12  -1.3737042102376381e-11  1.8262690694048276e-11  -1.8308161170008079e-12  -6.7099888890203652e-12  1.4874960437033291e-12  3.6898659617751022e-13  1.1085111009915691e-11  -8.5790468958092802e-12  9.5890383485918134e-13  3.5615961991586583e-12  -1.4405375656031455e-11  2.2790839270357249e-12  -9.7888641083759964e-13  2.8368203736438966e-13  -4.9727543220621480e-12  2.1933223914665059e-12  -8.9154009360441992e-12  1.4121263894534438e-13  1.4211341134922013e-12  2.1923266854208112e-12  -3.5655713843927030e-12  2.5691767046346923e-11  -9.9231806574035933e-12  4.6010827253603388e-11  -1.3699262153629298e-11  5.3262920427045618e-11  3.2758500306329631e-12  -1.4243326164347089e-11  5.2221816173433424e-11  -1.3903440285085617e-11  5.2099286796339262e-11  -1.4170569980379824e-11  5.2926272035485239e-11  -1.3636910798659802e-11  4.6054122305089239e-11  -1.0050907200795267e-11  2.6443271904338953e-11  -3.7217216639001786e-12  1.9323489636544232e-12  3.2816613223287837e-12  -1.3958258870916527e-10  2.5157401795540362e+00  1.9658975725886750e-12  -1.3155946989389891e-11  3.9195811118566865e-12  -1.2890351197057619e-11  2.5731248496916002e+00  2.4091929260419158e-12  -4.4099319636245204e-12  2.4697897065714920e+00  1.7710220843225155e-13  1.8657584392160563e-12  1.7126619319366574e-12  -1.0303922676464172e-11  2.3502664992023158e-12  -4.7667428856720043e-12  -1.9087993126945851e-10  -3.2978801400346505e-13  1.8417607949429483e-13  2.4651867350251597e-12  1.3467152593538717e-12  -1.3792080418566447e-11  3.1901643639125724e-12  -6.8568003572999745e-12  4.4375701662279966e-11  5.1245312547474764e-12  1.7259949133061685e-12  -1.0570508697933506e-11  2.9626035262636207e-11  2.7854158169332090e-11  -3.0701569732607358e-12  -2.6888996907441198e-12  -2.9985472628747494e-11  2.4133002107356475e-11  -4.4954056814840641e-12  2.5560666461567187e-12  -4.7096028014811702e-11  1.4858893401198157e-11  -3.5627236613933782e-12  2.0490976220044374e-12  -3.4327619877589996e-11  1.3014920462328420e-11  -1.6575773339202440e-11  -2.7056039384324168e-11  7.5551038946307448e-13  1.4723899606205112e-11  -2.5696420775369005e-11  -3.4308055366769277e-11  1.0559240191293686e-12  1.9259336406872425e-11  -3.8110181514199101e-11  -4.0370765050604003e-11  3.3822950401927771e-10  -1.0485846190807368e-10  3.4695030338711895e-11  2.7917402170951060e-10  -1.0158209473926397e-11  -1.5825052655890038e-10  7.0791200712337380e-10  -9.7379640181542133e-11  -3.1622786953545540e-10  3.3497021317758743e-10  -1.7630511611891952e-09  3.1759785269412757e-10  5.2654073210542464e-10  -9.3929387282086853e-10  5.5420901201176630e-11  4.6164485868829933e-10  -2.0806079104380185e-09  4.1348398829377599e-10  4.8293094559808669e-11  -7.7766692067806827e-10  6.2573173369693382e-09  -2.5229854336767950e-09  1.1102164331937548e-08  -2.6965599810675464e-09  6.0759683832784256e-09  3.0404568581479876e-10  -1.0068937894804822e-08  5.1679330732395728e-09  -2.7534875335334813e-08  8.9690932117375530e-09  -3.7318258595460066e-08  1.0594690368227477e-08  -4.0077991366991507e-08  1.0586069715324598e-08  -3.7174713855535952e-08  8.7248268250822616e-09  -2.6310873682974311e-08  5.0685659110989750e-09  -1.1416175484478421e-08  -1.8825311443852734e-09  -8.3021181524444613e-10  3.6490833499330000e-10  9.5299198680464465e-11  -6.0274821811835456e-11  2.9172225482549613e-12  6.9893086450581636e-12  -6.6547245241921753e-12  1.9364287583877898e-13  2.8335948012185891e-12  -1.2437678700571500e-11  -4.7751674477769043e-13  4.5643849100727735e-10  3.2651065947809541e-12  -1.0225753863428616e-11  1.8589516837274272e-12  -3.3190771085973417e-12  1.0211851277043893e-13  1.5019760979514412e-12  -5.0334253538205100e-13  1.3507405