<?xml version="1.0"?>
<VTKFile type="UnstructuredGrid"  version="0.1"  >
<UnstructuredGrid>
<Piece  NumberOfPoints="11902" NumberOfCells="23402">
<Points>
<DataArray  type="Float64"  NumberOfComponents="3"  format="ascii">-5 -5 0  5 -5 0  5 5 0  -5 5 0  1.263013449392372 0.001286899505281089 0  -4.9 -5 0  -4.8 -5 0  -4.7 -5 0  -4.6 -5 0  -4.5 -5 0  -4.4 -5 0  -4.3 -5 0  -4.2 -5 0  -4.1 -5 0  -4 -5 0  -3.9 -5 0  -3.8 -5 0  -3.7 -5 0  -3.6 -5 0  -3.5 -5 0  -3.4 -5 0  -3.3 -5 0  -3.2 -5 0  -3.1 -5 0  -3 -5 0  -2.9 -5 0  -2.8 -5 0  -2.7 -5 0  -2.6 -5 0  -2.5 -5 0  -2.4 -5 0  -2.3 -5 0  -2.2 -5 0  -2.1 -5 0  -2 -5 0  -1.9 -5 0  -1.8 -5 0  -1.7 -5 0  -1.6 -5 0  -1.5 -5 0  -1.4 -5 0  -1.3 -5 0  -1.2 -5 0  -1.1 -5 0  -1 -5 0  -0.9000000000000004 -5 0  -0.7999999999999998 -5 0  -0.7000000000000002 -5 0  -0.5999999999999996 -5 0  -0.5 -5 0  -0.4000000000000004 -5 0  -0.2999999999999998 -5 0  -0.2000000000000002 -5 0  -0.09999999999999964 -5 0  0 -5 0  0.09999999999999964 -5 0  0.2000000000000002 -5 0  0.2999999999999998 -5 0  0.4000000000000004 -5 0  0.5 -5 0  0.5999999999999996 -5 0  0.7000000000000002 -5 0  0.7999999999999998 -5 0  0.9000000000000004 -5 0  1 -5 0  1.1 -5 0  1.2 -5 0  1.3 -5 0  1.4 -5 0  1.5 -5 0  1.6 -5 0  1.7 -5 0  1.8 -5 0  1.9 -5 0  2 -5 0  2.1 -5 0  2.2 -5 0  2.3 -5 0  2.4 -5 0  2.5 -5 0  2.6 -5 0  2.7 -5 0  2.8 -5 0  2.9 -5 0  3 -5 0  3.1 -5 0  3.199999999999999 -5 0  3.300000000000001 -5 0  3.4 -5 0  3.5 -5 0  3.6 -5 0  3.699999999999999 -5 0  3.800000000000001 -5 0  3.9 -5 0  4 -5 0  4.1 -5 0  4.199999999999999 -5 0  4.300000000000001 -5 0  4.4 -5 0  4.5 -5 0  4.6 -5 0  4.699999999999999 -5 0  4.800000000000001 -5 0  4.9 -5 0  5 -4.9 0  5 -4.8 0  5 -4.7 0  5 -4.6 0  5 -4.5 0  5 -4.4 0  5 -4.3 0  5 -4.2 0  5 -4.1 0  5 -4 0  5 -3.9 0  5 -3.8 0  5 -3.7 0  5 -3.6 0  5 -3.5 0  5 -3.4 0  5 -3.3 0  5 -3.2 0  5 -3.1 0  5 -3 0  5 -2.9 0  5 -2.8 0  5 -2.7 0  5 -2.6 0  5 -2.5 0  5 -2.4 0  5 -2.3 0  5 -2.2 0  5 -2.1 0  5 -2 0  5 -1.9 0  5 -1.8 0  5 -1.7 0  5 -1.6 0  5 -1.5 0  5 -1.4 0  5 -1.3 0  5 -1.2 0  5 -1.1 0  5 -1 0  5 -0.9000000000000004 0  5 -0.7999999999999998 0  5 -0.7000000000000002 0  5 -0.5999999999999996 0  5 -0.5 0  5 -0.4000000000000004 0  5 -0.2999999999999998 0  5 -0.2000000000000002 0  5 -0.09999999999999964 0  5 0 0  5 0.09999999999999964 0  5 0.2000000000000002 0  5 0.2999999999999998 0  5 0.4000000000000004 0  5 0.5 0  5 0.5999999999999996 0  5 0.7000000000000002 0  5 0.7999999999999998 0  5 0.9000000000000004 0  5 1 0  5 1.1 0  5 1.2 0  5 1.3 0  5 1.4 0  5 1.5 0  5 1.6 0  5 1.7 0  5 1.8 0  5 1.9 0  5 2 0  5 2.1 0  5 2.2 0  5 2.3 0  5 2.4 0  5 2.5 0  5 2.6 0  5 2.7 0  5 2.8 0  5 2.9 0  5 3 0  5 3.1 0  5 3.199999999999999 0  5 3.300000000000001 0  5 3.4 0  5 3.5 0  5 3.6 0  5 3.699999999999999 0  5 3.800000000000001 0  5 3.9 0  5 4 0  5 4.1 0  5 4.199999999999999 0  5 4.300000000000001 0  5 4.4 0  5 4.5 0  5 4.6 0  5 4.699999999999999 0  5 4.800000000000001 0  5 4.9 0  4.9 5 0  4.8 5 0  4.7 5 0  4.6 5 0  4.5 5 0  4.4 5 0  4.3 5 0  4.2 5 0  4.1 5 0  4 5 0  3.9 5 0  3.8 5 0  3.7 5 0  3.6 5 0  3.5 5 0  3.4 5 0  3.3 5 0  3.2 5 0  3.1 5 0  3 5 0  2.9 5 0  2.8 5 0  2.7 5 0  2.6 5 0  2.5 5 0  2.4 5 0  2.3 5 0  2.2 5 0  2.1 5 0  2 5 0  1.9 5 0  1.8 5 0  1.7 5 0  1.6 5 0  1.5 5 0  1.4 5 0  1.3 5 0  1.2 5 0  1.1 5 0  1 5 0  0.9000000000000004 5 0  0.7999999999999998 5 0  0.7000000000000002 5 0  0.5999999999999996 5 0  0.5 5 0  0.4000000000000004 5 0  0.2999999999999998 5 0  0.2000000000000002 5 0  0.09999999999999964 5 0  0 5 0  -0.09999999999999964 5 0  -0.2000000000000002 5 0  -0.2999999999999998 5 0  -0.4000000000000004 5 0  -0.5 5 0  -0.5999999999999996 5 0  -0.7000000000000002 5 0  -0.7999999999999998 5 0  -0.9000000000000004 5 0  -1 5 0  -1.1 5 0  -1.2 5 0  -1.3 5 0  -1.4 5 0  -1.5 5 0  -1.6 5 0  -1.7 5 0  -1.8 5 0  -1.9 5 0  -2 5 0  -2.1 5 0  -2.2 5 0  -2.3 5 0  -2.4 5 0  -2.5 5 0  -2.6 5 0  -2.7 5 0  -2.8 5 0  -2.9 5 0  -3 5 0  -3.1 5 0  -3.199999999999999 5 0  -3.300000000000001 5 0  -3.4 5 0  -3.5 5 0  -3.6 5 0  -3.699999999999999 5 0  -3.800000000000001 5 0  -3.9 5 0  -4 5 0  -4.1 5 0  -4.199999999999999 5 0  -4.300000000000001 5 0  -4.4 5 0  -4.5 5 0  -4.6 5 0  -4.699999999999999 5 0  -4.800000000000001 5 0  -4.9 5 0  -5 4.9 0  -5 4.8 0  -5 4.7 0  -5 4.6 0  -5 4.5 0  -5 4.4 0  -5 4.3 0  -5 4.2 0  -5 4.1 0  -5 4 0  -5 3.9 0  -5 3.8 0  -5 3.7 0  -5 3.6 0  -5 3.5 0  -5 3.4 0  -5 3.3 0  -5 3.2 0  -5 3.1 0  -5 3 0  -5 2.9 0  -5 2.8 0  -5 2.7 0  -5 2.6 0  -5 2.5 0  -5 2.4 0  -5 2.3 0  -5 2.2 0  -5 2.1 0  -5 2 0  -5 1.9 0  -5 1.8 0  -5 1.7 0  -5 1.6 0  -5 1.5 0  -5 1.4 0  -5 1.3 0  -5 1.2 0  -5 1.1 0  -5 1 0  -5 0.9000000000000004 0  -5 0.7999999999999998 0  -5 0.7000000000000002 0  -5 0.5999999999999996 0  -5 0.5 0  -5 0.4000000000000004 0  -5 0.2999999999999998 0  -5 0.2000000000000002 0  -5 0.09999999999999964 0  -5 0 0  -5 -0.09999999999999964 0  -5 -0.2000000000000002 0  -5 -0.2999999999999998 0  -5 -0.4000000000000004 0  -5 -0.5 0  -5 -0.5999999999999996 0  -5 -0.7000000000000002 0  -5 -0.7999999999999998 0  -5 -0.9000000000000004 0  -5 -1 0  -5 -1.1 0  -5 -1.2 0  -5 -1.3 0  -5 -1.4 0  -5 -1.5 0  -5 -1.6 0  -5 -1.7 0  -5 -1.8 0  -5 -1.9 0  -5 -2 0  -5 -2.1 0  -5 -2.2 0  -5 -2.3 0  -5 -2.4 0  -5 -2.5 0  -5 -2.6 0  -5 -2.7 0  -5 -2.8 0  -5 -2.9 0  -5 -3 0  -5 -3.1 0  -5 -3.199999999999999 0  -5 -3.300000000000001 0  -5 -3.4 0  -5 -3.5 0  -5 -3.6 0  -5 -3.699999999999999 0  -5 -3.800000000000001 0  -5 -3.9 0  -5 -4 0  -5 -4.1 0  -5 -4.199999999999999 0  -5 -4.300000000000001 0  -5 -4.4 0  -5 -4.5 0  -5 -4.6 0  -5 -4.699999999999999 0  -5 -4.800000000000001 0  -5 -4.9 0  1.254814941821269 0.09386636016639542 0  1.232768610694988 0.191651456482033 0  1.199180218940992 0.2882509935505097 0  1.156392448002781 0.3766333608241909 0  1.097994529806409 0.4676364175306422 0  1.031750369848716 0.551459128113524 0  0.9531254117172009 0.6317520971871925 0  0.8659258937919033 0.7066538862332351 0  0.7740845365679528 0.7720185830245239 0  0.6718690427446324 0.8294329258529315 0  0.5590511922785615 0.8816729113404702 0  0.4459520997362036 0.92649177664732 0  0.334392803813357 0.9583404126717465 0  0.2087695350492675 0.9803186673794813 0  0.08822773965989496 0.9991469771197677 0  -0.02664439080431361 1.002572982614818 0  -0.1443069461915678 0.9887819674658068 0  -0.2731107088480265 0.9693153277671657 0  -0.3928679853678338 0.9451961111444602 0  -0.5029325221730346 0.9096503489458948 0  -0.6125950740548212 0.8631841393531846 0  -0.7146665908783109 0.8082668867824815 0  -0.8092912102329435 0.7435321814996249 0  -0.9007596129858844 0.6697597884760761 0  -0.9870346737938369 0.5896405854977186 0  -1.061834728831108 0.5082564782183731 0  -1.123826769548471 0.4234680012202829 0  -1.178202001090052 0.330399001107016 0  -1.215881846232073 0.2426018529179547 0  -1.240312752266908 0.148643388900744 0  -1.250874878788112 0.05219287741276423 0  -1.250834572822139 -0.04992269246253789 0  -1.240270713122926 -0.1456488074066105 0  -1.215493032558331 -0.2371653223300396 0  -1.173558943062086 -0.3321511457661543 0  -1.12414537203645 -0.4243024043057239 0  -1.0637493438721 -0.5081533525583303 0  -0.9895487348981367 -0.5886529785632778 0  -0.9039000738822686 -0.6677129447841765 0  -0.813150877690308 -0.7393162013740779 0  -0.717514505011222 -0.8001797495827856 0  -0.6127629589193112 -0.8533993958216974 0  -0.4977292002829434 -0.9030593216018741 0  -0.3850598317534903 -0.942986505663753 0  -0.2697744214237403 -0.9691266402235931 0  -0.1426722879291576 -0.9887574207843486 0  -0.027676986897558 -1.001809214825957 0  0.08706722279368442 -0.9944165632988056 0  0.2148971651611055 -0.9765268433839119 0  0.3371903980428186 -0.9566345582561881 0  0.4501335996192047 -0.9251703610430403 0  0.56163786380631 -0.8809127069583904 0  0.673024154714333 -0.8293666663857687 0  0.7739724496557102 -0.7731619193998643 0  0.8656187648440425 -0.7079732621354903 0  0.9515598605186835 -0.632163492983378 0  1.029226420622681 -0.5502463898315155 0  1.099237626684377 -0.46629007207221 0  1.157194382314001 -0.3770503941299223 0  1.200946792962042 -0.286318349148617 0  1.233486871955261 -0.1908962435609527 0  1.25522058326231 -0.09379388252864278 0  -2.448533924529203 4.918064919662339 0  -2.448405472794243 -4.910438647794012 0  4.910361255882763 2.447854317665125 0  4.918493169012298 -2.449319671398634 0  2.446130390238611 -4.89566062318263 0  2.440564946249739 4.899425372273494 0  -4.910388558996985 -2.447881127561627 0  -4.91038583628699 2.447885202083215 0  -1.748486900456666 4.910930750771671 0  -1.744274558056146 -4.914375013377167 0  4.920522212554806 1.744032966211841 0  4.909040191101483 -1.747788887965567 0  -4.909335075803074 -1.747523554853036 0  -4.9101584180718 1.747269045582976 0  1.745757632673676 4.904780802186941 0  1.747167102740882 -4.892914178189767 0  -1.148803639702155 4.908696035661747 0  -1.129663620450221 -4.916621881672627 0  -4.909023710714613 -1.147859537230171 0  -4.908841690784135 1.147660185996964 0  1.143800549815382 -4.912800868291732 0  1.148813432075485 4.908682317239993 0  4.909162865071361 1.146134449731393 0  4.920014871772015 -1.151924622853573 0  -0.5466489411823872 -4.909875159625022 0  -0.5464338227199309 4.918574189233264 0  -4.907732952309898 -0.5486705013924366 0  -4.907756918477713 0.5472286866881836 0  4.907049572174265 -0.5489885171977925 0  4.918732229438242 0.5457505955058125 0  0.5424294905817469 -4.896730052380635 0  0.5511616097754926 4.915391298638212 0  -4.911836740817397 -3.048246343062839 0  4.918411639380502 3.046265570158539 0  4.911344070235666 -3.048221449860746 0  -4.912684947852663 3.045338421689724 0  3.055263212950718 -4.917333414592299 0  -3.048591136095718 -4.911265423356564 0  3.052159305042469 4.91334428553259 0  -3.048037154238635 4.912155806903726 0  -4.906832339704151 -0.04990388713698393 0  0.04511861889130307 -4.911824036495098 0  0.04956579122534304 4.918863701623686 0  4.913902549338152 -0.05128648210576889 0  3.545589667606517 -4.918992415993849 0  -3.548867578836485 4.911889
[...]
<PointData  Scalars="f_30"> 
<DataArray  type="Float64"  Name="f_30"  format="ascii">0.0000000000000000e+00  0.0000000000000000e+00  0.0000000000000000e+00  0.0000000000000000e+00  4.0307284265340922e-02  0.0000000000000000e+00  0.0000000000000000e+00  0.0000000000000000e+00  0.0000000000000000e+00  0.0000000000000000e+00  0.0000000000000000e+00  0.0000000000000000e+00  0.0000000000000000e+00  0.0000000000000000e+00  0.0000000000000000e+00  0.0000000000000000e+00  0.0000000000000000e+00  0.0000000000000000e+00  0.0000000000000000e+00  0.0000000000000000e+00  0.0000000000000000e+00  0.0000000000000000e+00  0.0000000000000000e+00  0.0000000000000000e+00  0.0000000000000000e+00  0.0000000000000000e+00  0.0000000000000000e+00  0.0000000000000000e+00  0.0000000000000000e+00  0.0000000000000000e+00  0.0000000000000000e+00  0.0000000000000000e+00  0.0000000000000000e+00  0.0000000000000000e+00  0.0000000000000000e+00  0.0000000000000000e+00  0.0000000000000000e+00  0.0000000000000000e+00  0.0000000000000000e+00  0.0000000000000000e+00  0.0000000000000000e+00  0.0000000000000000e+00  0.0000000000000000e+00  0.0000000000000000e+00  0.0000000000000000e+00  0.0000000000000000e+00  0.0000000000000000e+00  0.0000000000000000e+00  0.0000000000000000e+00  0.0000000000000000e+00  0.0000000000000000e+00  0.0000000000000000e+00  0.0000000000000000e+00  0.0000000000000000e+00  0.0000000000000000e+00  0.0000000000000000e+00  0.0000000000000000e+00  0.0000000000000000e+00  0.0000000000000000e+00  0.0000000000000000e+00  0.0000000000000000e+00  0.0000000000000000e+00  0.0000000000000000e+00  0.0000000000000000e+00  0.0000000000000000e+00  0.0000000000000000e+00  0.0000000000000000e+00  0.0000000000000000e+00  0.0000000000000000e+00  0.0000000000000000e+00  0.0000000000000000e+00  0.0000000000000000e+00  0.0000000000000000e+00  0.0000000000000000e+00  0.0000000000000000e+00  0.0000000000000000e+00  0.0000000000000000e+00  0.0000000000000000e+00  0.0000000000000000e+00  0.0000000000000000e+00  0.0000000000000000e+00  0.0000000000000000e+00  0.0000000000000000e+00  0.0000000000000000e+00  0.0000000000000000e+00  0.0000000000000000e+00  0.0000000000000000e+00  0.0000000000000000e+00  0.0000000000000000e+00  0.0000000000000000e+00  0.0000000000000000e+00  0.0000000000000000e+00  0.0000000000000000e+00  0.0000000000000000e+00  0.0000000000000000e+00  0.0000000000000000e+00  0.0000000000000000e+00  0.0000000000000000e+00  0.0000000000000000e+00  0.0000000000000000e+00  0.0000000000000000e+00  0.0000000000000000e+00  0.0000000000000000e+00  0.0000000000000000e+00  0.0000000000000000e+00  0.0000000000000000e+00  0.0000000000000000e+00  0.0000000000000000e+00  0.0000000000000000e+00  0.0000000000000000e+00  0.0000000000000000e+00  0.0000000000000000e+00  0.0000000000000000e+00  0.0000000000000000e+00  0.0000000000000000e+00  0.0000000000000000e+00  0.0000000000000000e+00  0.0000000000000000e+00  0.0000000000000000e+00  0.0000000000000000e+00  0.0000000000000000e+00  0.0000000000000000e+00  0.0000000000000000e+00  0.0000000000000000e+00  0.0000000000000000e+00  0.0000000000000000e+00  0.0000000000000000e+00  0.0000000000000000e+00  0.0000000000000000e+00  0.0000000000000000e+00  0.0000000000000000e+00  0.0000000000000000e+00  0.0000000000000000e+00  0.0000000000000000e+00  0.0000000000000000e+00  0.0000000000000000e+00  0.0000000000000000e+00  0.0000000000000000e+00  0.0000000000000000e+00  0.0000000000000000e+00  0.0000000000000000e+00  0.0000000000000000e+00  0.0000000000000000e+00  0.0000000000000000e+00  0.0000000000000000e+00  0.0000000000000000e+00  0.0000000000000000e+00  0.0000000000000000e+00  0.0000000000000000e+00  0.0000000000000000e+00  0.0000000000000000e+00  0.0000000000000000e+00  0.0000000000000000e+00  0.0000000000000000e+00  0.0000000000000000e+00  0.0000000000000000e+00  0.0000000000000000e+00  0.0000000000000000e+00  0.0000000000000000e+00  0.0000000000000000e+00  0.0000000000000000e+00  0.0000000000000000e+00  0.0000000000000000e+00  0.0000000000000000e+00  0.0000000000000000e+00  0.0000000000000000e+00  0.0000000000000000e+00  0.0000000000000000e+00  0.0000000000000000e+00  0.0000000000000000e+00  0.0000000000000000e+00  0.0000000000000000e+00  0.0000000000000000e+00  0.0000000000000000e+00  0.0000000000000000e+00  0.0000000000000000e+00  0.0000000000000000e+00  0.0000000000000000e+00  0.0000000000000000e+00  0.0000000000000000e+00  0.0000000000000000e+00  0.0000000000000000e+00  0.0000000000000000e+00  0.0000000000000000e+00  0.0000000000000000e+00  0.0000000000000000e+00  0.0000000000000000e+00  0.0000000000000000e+00  0.0000000000000000e+00  0.0000000000000000e+00  0.0000000000000000e+00  0.0000000000000000e+00  0.0000000000000000e+00  0.0000000000000000e+00  0.0000000000000000e+00  0.0000000000000000e+00  0.0000000000000000e+00  0.0000000000000000e+00  0.0000000000000000e+00  0.0000000000000000e+00  0.0000000000000000e+00  0.0000000000000000e+00  0.0000000000000000e+00  0.0000000000000000e+00  0.0000000000000000e+00  0.0000000000000000e+00  0.0000000000000000e+00  0.0000000000000000e+00  0.0000000000000000e+00  0.0000000000000000e+00  0.0000000000000000e+00  0.0000000000000000e+00  0.0000000000000000e+00  0.0000000000000000e+00  0.0000000000000000e+00  0.0000000000000000e+00  0.0000000000000000e+00  0.0000000000000000e+00  0.0000000000000000e+00  0.0000000000000000e+00  0.0000000000000000e+00  0.0000000000000000e+00  0.0000000000000000e+00  0.0000000000000000e+00  0.0000000000000000e+00  0.0000000000000000e+00  0.0000000000000000e+00  0.0000000000000000e+00  0.0000000000000000e+00  0.0000000000000000e+00  0.0000000000000000e+00  0.0000000000000000e+00  0.0000000000000000e+00  0.0000000000000000e+00  0.0000000000000000e+00  0.0000000000000000e+00  0.0000000000000000e+00  0.0000000000000000e+00  0.0000000000000000e+00  0.0000000000000000e+00  0.0000000000000000e+00  0.0000000000000000e+00  0.0000000000000000e+00  0.0000000000000000e+00  0.0000000000000000e+00  0.0000000000000000e+00  0.0000000000000000e+00  0.0000000000000000e+00  0.0000000000000000e+00  0.0000000000000000e+00  0.0000000000000000e+00  0.0000000000000000e+00  0.0000000000000000e+00  0.0000000000000000e+00  0.0000000000000000e+00  0.0000000000000000e+00  0.0000000000000000e+00  0.0000000000000000e+00  0.0000000000000000e+00  0.0000000000000000e+00  0.0000000000000000e+00  0.0000000000000000e+00  0.0000000000000000e+00  0.0000000000000000e+00  0.0000000000000000e+00  0.0000000000000000e+00  0.0000000000000000e+00  0.0000000000000000e+00  0.0000000000000000e+00  0.0000000000000000e+00  0.0000000000000000e+00  0.0000000000000000e+00  0.0000000000000000e+00  0.0000000000000000e+00  0.0000000000000000e+00  0.0000000000000000e+00  0.0000000000000000e+00  0.0000000000000000e+00  0.0000000000000000e+00  0.0000000000000000e+00  0.0000000000000000e+00  0.0000000000000000e+00  0.0000000000000000e+00  0.0000000000000000e+00  0.0000000000000000e+00  0.0000000000000000e+00  0.0000000000000000e+00  0.0000000000000000e+00  0.0000000000000000e+00  0.0000000000000000e+00  0.0000000000000000e+00  0.0000000000000000e+00  0.0000000000000000e+00  0.0000000000000000e+00  0.0000000000000000e+00  0.0000000000000000e+00  0.0000000000000000e+00  0.0000000000000000e+00  0.0000000000000000e+00  0.0000000000000000e+00  0.0000000000000000e+00  0.0000000000000000e+00  0.0000000000000000e+00  0.0000000000000000e+00  0.0000000000000000e+00  0.0000000000000000e+00  0.0000000000000000e+00  0.0000000000000000e+00  0.0000000000000000e+00  0.0000000000000000e+00  0.0000000000000000e+00  0.0000000000000000e+00  0.0000000000000000e+00  0.0000000000000000e+00  0.0000000000000000e+00  0.0000000000000000e+00  0.0000000000000000e+00  0.0000000000000000e+00  0.0000000000000000e+00  0.0000000000000000e+00  0.0000000000000000e+00  0.0000000000000000e+00  0.0000000000000000e+00  0.0000000000000000e+00  0.0000000000000000e+00  0.0000000000000000e+00  0.0000000000000000e+00  0.0000000000000000e+00  0.0000000000000000e+00  0.0000000000000000e+00  0.0000000000000000e+00  0.0000000000000000e+00  0.0000000000000000e+00  0.0000000000000000e+00  0.0000000000000000e+00  0.0000000000000000e+00  0.0000000000000000e+00  0.0000000000000000e+00  0.0000000000000000e+00  0.0000000000000000e+00  0.0000000000000000e+00  0.0000000000000000e+00  0.0000000000000000e+00  0.0000000000000000e+00  0.0000000000000000e+00  0.0000000000000000e+00  0.0000000000000000e+00  0.0000000000000000e+00  0.0000000000000000e+00  0.0000000000000000e+00  0.0000000000000000e+00  0.0000000000000000e+00  0.0000000000000000e+00  0.0000000000000000e+00  0.0000000000000000e+00  0.0000000000000000e+00  0.0000000000000000e+00  0.0000000000000000e+00  0.0000000000000000e+00  0.0000000000000000e+00  0.0000000000000000e+00  0.0000000000000000e+00  0.0000000000000000e+00  0.0000000000000000e+00  0.0000000000000000e+00  0.0000000000000000e+00  0.0000000000000000e+00  0.0000000000000000e+00  0.0000000000000000e+00  0.0000000000000000e+00  0.0000000000000000e+00  0.0000000000000000e+00  0.0000000000000000e+00  0.0000000000000000e+00  0.0000000000000000e+00  0.0000000000000000e+00  0.0000000000000000e+00  0.0000000000000000e+00  0.0000000000000000e+00  0.0000000000000000e+00  0.0000000000000000e+00  0.0000000000000000e+00  0.0000000000000000e+00  0.0000000000000000e+00  0.0000000000000000e+00  0.0000000000000000e+00  0.0000000000000000e+00  0.0000000000000000e+00  0.0000000000000000e+00  0.0000000000000000e+00  0.0000000000000000e+00  0.0000000000000000e+00  0.0000000000000000e+00  0.0000000000000000e+00  0.0000000000000000e+00  0.0000000000000000e+00  0.0000000000000000e+00  0.0000000000000000e+00  0.0000000000000000e+00  0.0000000000000000e+00  0.0000000000000000e+00  3.8724538452351909e-02  3.0363622880006939e-02  2.4430336641047389e-02  2.3355317976333018e-02  2.6924846694959675e-02  3.8830494236533120e-02  3.3302696701097562e-02  2.6616492777615821e-02  3.4654350388191056e-02  3.3636681091899066e-02  2.4191423612395641e-02  4.0469215986770855e-02  4.8031504913650810e-02  1.3935495212592307e-02  3.8433242137661312e-02  4.3420736354916091e-02  1.5201702188815976e-02  2.0510855704879847e-02  4.2170282162940262e-02  3.3248692355251616e-02  3.5461110417015773e-02  3.5561010434010873e-02  3.1444741614787483e-02  2.9903212838249048e-02  2.4958624916175426e-02  2.9672340945926124e-02  2.8835468974098836e-02  2.7929313716838763e-02  3.1926657654728796e-02  3.0335186514054212e-02  2.6212014025624376e-02  2.7665336635775094e-02  2.9067005414505586e-02  3.4781607658110295e-02  2.3318647843814953e-02  3.7042736874825122e-02  3.3244885737453593e-02  2.8271022612035450e-02  3.2158833524442640e-02  3.6193908165841643e-02  2.5339900316617321e-02  2.7148597303935162e-02  2.4703171873566663e-02  4.9630499627480083e-02  2.8694743494205026e-02  1.7942628492512814e-02  7.5142700127590667e-02  3.5269457425903032e-02  1.5553536039445520e-02  4.2232867521654394e-02  3.8570907986381346e-02  2.2153264021232810e-02  3.2841615132644962e-02  4.8008328135170468e-02  3.5977347914264199e-02  2.7194864596097455e-02  2.2051435324554749e-02  3.1789626803579142e-02  4.3224594782592614e-02  3.7469682235758583e-02  3.0704372373071390e-02  3.6155240128555817e-02  3.6120597954036509e-27  -1.3176479055219009e-27  -2.6372986358831360e-27  -2.9362107677287129e-27  -1.2753470889370302e-27  -5.3168329391624003e-28  -2.0321715424159111e-28  1.8085996312799328e-27  7.1905628776817398e-27  4.1260826718251393e-27  -7.0167484481867734e-25  -6.6245814260246786e-25  5.4015522208827466e-25  1.1894523921149860e-24  3.7093207038694247e-26  3.0578240364465347e-26  -4.7817030552224486e-26  -3.0032495450180232e-26  -1.1242594491761130e-22  -1.6505401228155637e-22  -4.3275919145411998e-26  -4.9235290513624859e-26  4.7612434619252658e-23  4.7758637263940024e-23  -4.7392594342007691e-27  -3.9752049902377835e-26  -7.5369922948977802e-21  -7.1236226971096343e-21  -4.5758828068184420e-21  -4.8274275284857580e-21  8.3206043048094948e-26  -2.6525504422093439e-26  7.1703365538296825e-30  -8.8439258304532660e-30  -9.0742301896942521e-30  1.6282533162643728e-29  1.9760116394575308e-28  3.9844695564375480e-28  2.8927872049652666e-28  3.1818405963216764e-28  3.5536295054948509e-20  6.3555378632308850e-26  1.2228952830392417e-26  3.8447621702712564e-20  -9.0965125070972860e-30  -9.9263713693120479e-30  -6.2620369107284205e-30  2.3186069238019520e-31  2.4329242657941915e-31  2.3940962178662283e-31  1.4562223117680142e-31  -9.9633771537660931e-30  -6.1356138175458838e-33  -2.3069038682318821e-32  1.1371218649339821e-31  -4.0599791900130469e-33  2.5154662809708960e-32  -6.0625810331807088e-33  1.3756193420378740e-31  -9.9017525788563340e-34  -1.2942976951472014e-33  -4.6819488444025667e-34  -1.9574414189765705e-34  1.4856513395755904e-34  1.3409178609380492e-34  7.7341139776545958e-35  7.3736431711116007e-36  -1.6096916276984798e-33  2.7758151020661796e-20  4.6291323963544953e-26  -1.3627769834032382e-26  1.3821898524382728e-20  1.1675501831249458e-25  -3.4725222277275197e-24  1.3394908237101560e-21  8.8430431696416235e-22  -3.2579679930046429e-24  2.7353486923914064e-26  7.8782409388201065e-26  -5.2877162115728963e-26  -3.8571432295733383e-26  -1.1547888996860770e-23  3.9597123160657036e-22  4.1482014169215203e-22  -1.1338401971344394e-23  -2.5505179278479272e-27  8.8214110218598673e-26  -4.0401044153046920e-27  5.5569254149134074e-27  -6.5559948949996184e-27  8.9114995119132648e-26  1.1270768651543066e-25  -4.0131534896961877e-27  -2.4128380588239425e-27  3.0464791823156924e-26  2.8830736783666214e-26  -1.5704723707139621e-28  -7.7610757213084729e-28  -1.2224643353967015e-27  2.0590619518829527e-28  6.3879522171483475e-28  6.7275882727839813e-29  -1.5133884871101410e-28  -9.2252287861939043e-28  1.2567466450818487e-35  1.8952179521912538e-35  7.5316857015937979e-36  -1.6946042038304776e-36  6.4699459768312697e-36  1.5368863247686307e-36  1.0557458786788363e-35  5.2340230508343748e-37  2.7877468710799210e-20  1.2036642659428838e-25  1.1446684997163566e-25  1.3760368632215535e-20  -1.7862981760645549e-27  4.4955674629810467e-27  4.7956971752009707e-27  -7.1561422993345294e-27  -1.1865849371771486e-26  -6.9824996260903514e-29  -8.1942397880949124e-27  -2.0294422632741714e-26  3.5252782879161685e-30  -1.1192109011444096e-28  -7.3961205097562643e-29  2.8341013256579235e-30  3.4754375190456336e-30  -9.6395372239394286e-29  -1.2779721131239822e-28  1.1569377318821062e-30  -3.7499931856581884e-33  3.6441397892172352e-34  1.2052975385665740e-30  -1.2997731299901615e-32  2.7360645064416253e-31  -1.5412842236021201e-32  -3.6562397095917240e-32  1.2126587414440951e-33  8.1374392791755759e-31  -1.3325625644278544e-32  -1.3655501526767286e-33  2.9198297401222508e-34  -4.4317815775074733e-32  1.2637524433024392e-33  5.2319049220920023e-31  -1.7094969378007311e-32  -3.7014104272963871e-36  -1.7453799242150028e-36  -2.9595981913126371e-36  -3.4662520649038511e-36  3.4840952176134617e-20  -1.2995853825950512e-19  -8.5771485207785399e-20  4.2076950773917236e-19  2.0515162933040035e-19  -1.2097206233315145e-18  -3.1622077401794934e-19  2.8705394438656516e-18  -2.7975271473203685e-19  -4.3099805078187969e-18  4.7474873427574492e-18  -4.6496826129107661e-18  -2.3363936391269016e-17  6.8991206693057939e-17  8.0970997663774888e-17  -3.3342387880504030e-16  -2.1158947304381236e-16  1.1328876369135144e-15  3.8162538649279792e-16  -2.8846908180760170e-15  -2.0353347101116658e-16  -4.7525366383097436e-15  4.9165521170816929e-15  -1.6200971401198406e-15  -1.5863606139720138e-15  7.3808900308386995e-15  -2.5145867091147635e-14  -1.5924053135383342e-14  9.9126088342765668e-14  9.7169962867761493e-15  -1.8521732879306998e-13  5.6053597179539663e-14  -3.7650738722078503e-13  2.9176697610953539e-14  -1.9703582350350441e-13  8.8654755162555328e-13  1.5536385563730475e-13  -2.2293420249694055e-12  7.7802386403404084e-13  -1.2244163031682785e-13  -2.4767512564425942e-12  1.3240151223765270e-11  -1.0637079283875187e-13  -2.1326473291805628e-11  -2.3720649756186292e-11  1.5576240661110657e-11  -4.0435929041353971e-11  -2.6197003179924077e-11  -3.0475888373466892e-13  1.7310816460695973e-11  -4.9867775702501779e-11  -2.3475122411973796e-11  -1.2717079824267148e-12  1.8382142292704000e-11  -2.7278773040714734e-12  -3.2804599621245431e-12  -1.3737042241310764e-11  1.8262690912073618e-11  -1.8308161396508035e-12  -6.7099889569769651e-12  1.4874960606944522e-12  3.6898659238678523e-13  1.1085111138869837e-11  -8.5790469586909881e-12  9.5890384614112276e-13  3.5615962070696981e-12  -1.4405375601665767e-11  2.2790838751406387e-12  -9.7888640494406157e-13  2.8368205406723822e-13  -4.9727543441563530e-12  2.1933223639274487e-12  -8.9154006799534614e-12  1.4121263495374609e-13  1.4211340092029323e-12  2.1923271100429236e-12  -3.5655714594220389e-12  2.5691767152750681e-11  -9.9231806682230043e-12  4.6010827561240479e-11  -1.3699262462773099e-11  5.3262922664579502e-11  3.2758500593528444e-12  -1.4243327043371043e-11  5.2221819621986117e-11  -1.3903440803001447e-11  5.2099285393804528e-11  -1.4170568167138481e-11  5.2926258987376517e-11  -1.3636905638739346e-11  4.6054098109592280e-11  -1.0050900025204718e-11  2.6443244912186019e-11  -3.7217149716734220e-12  1.9323273533065359e-12  3.2816595965465797e-12  -1.3958258876224928e-10  2.5352486279997799e+00  1.9659023967015908e-12  -1.3155961695961305e-11  3.9195844698801360e-12  -1.2890362415843544e-11  2.6180958064686837e+00  2.4091957932986167e-12  -4.4099423569998817e-12  2.4975386098936712e+00  1.7710483821398716e-13  1.8657497494216090e-12  1.7126987648629503e-12  -1.0303897123290800e-11  2.3502621275616319e-12  -4.7667365483660767e-12  -1.9087985911288781e-10  -3.2978875826362528e-13  1.8417679204463274e-13  2.4651774494675077e-12  1.3467259999708204e-12  -1.3792034211849141e-11  3.1901527804872154e-12  -6.8567690640026777e-12  4.4375537809329385e-11  5.1244750572756472e-12  1.7259971652162726e-12  -1.0570487436387115e-11  2.9626048542662753e-11  2.7854062011077404e-11  -3.0701407906708213e-12  -2.6889099549763073e-12  -2.9985277637965302e-11  2.4132933638792915e-11  -4.4953873865287365e-12  2.5560439297268634e-12  -4.7095792521643842e-11  1.4858825251114765e-11  -3.5627027910447797e-12  2.0490712711284985e-12  -3.4327339316887233e-11  1.3014820786013056e-11  -1.6575770418631297e-11  -2.7055702503296378e-11  7.5548709693432475e-13  1.4723747197070194e-11  -2.5696165766740398e-11  -3.4307740558476435e-11  1.0559212228998196e-12  1.9259135441032037e-11  -3.8109473268286963e-11  -4.0370652552154943e-11  3.3822741341074429e-10  -1.0485741210778956e-10  3.4691328983356625e-11  2.7917381256371225e-10  -1.0158432949978093e-11  -1.5824989046266706e-10  7.0790742082722804e-10  -9.7378073316285519e-11  -3.1623362840552830e-10  3.3497124161693407e-10  -1.7630532349998239e-09  3.1759850212799637e-10  5.2653505551732467e-10  -9.3929041770560796e-10  5.5420445379253004e-11  4.6164333230921609e-10  -2.0806002464286954e-09  4.1348166531857210e-10  4.8301804202481566e-11  -7.7766901514941293e-10  6.2573239692570394e-09  -2.5229870071053376e-09  1.1102170168715800e-08  -2.6965618509112807e-09  6.0759771668183622e-09  3.0404275061639562e-10  -1.0068925343377249e-08  5.1679296416695321e-09  -2.7534863794783926e-08  8.9690908944252344e-09  -3.7318253549926183e-08  1.0594689890926059e-08  -4.0077991950600464e-08  1.0586070078590591e-08  -3.7174714907896528e-08  8.7248268648861100e-09  -2.6310872902949168e-08  5.0685656100308969e-09  -1.1416174461607605e-08  -1.8825310977414028e-09  -8.3021174294121941e-10  3.6490831508957934e-10  9.5299186635383748e-11  -6.0274816750605250e-11  2.9172236242237835e-12  6.9893077449466997e-12  -6.6547244038027143e-12  1.9364297050776220e-13  2.8335947236054726e-12  -1.2437678441125470e-11  -4.7751674021673841e-13  4.5643897232001708e-10  3.2651065618214199e-12  -1.0225753889303585e-11  1.8589517063592543e-12  -3.3190771909448821e-12  1.0211852457788165e-13  1.5019760980967350e-12  -5.0334253997981609e-13  1.3507406