<?xml version="1.0"?>
<VTKFile type="UnstructuredGrid"  version="0.1"  >
<UnstructuredGrid>
<Piece  NumberOfPoints="11902" NumberOfCells="23402">
<Points>
<DataArray  type="Float64"  NumberOfComponents="3"  format="ascii">-5 -5 0  5 -5 0  5 5 0  -5 5 0  1.265215780407599 0.001268149056653459 0  -4.9 -5 0  -4.8 -5 0  -4.7 -5 0  -4.6 -5 0  -4.5 -5 0  -4.4 -5 0  -4.3 -5 0  -4.2 -5 0  -4.1 -5 0  -4 -5 0  -3.9 -5 0  -3.8 -5 0  -3.7 -5 0  -3.6 -5 0  -3.5 -5 0  -3.4 -5 0  -3.3 -5 0  -3.2 -5 0  -3.1 -5 0  -3 -5 0  -2.9 -5 0  -2.8 -5 0  -2.7 -5 0  -2.6 -5 0  -2.5 -5 0  -2.4 -5 0  -2.3 -5 0  -2.2 -5 0  -2.1 -5 0  -2 -5 0  -1.9 -5 0  -1.8 -5 0  -1.7 -5 0  -1.6 -5 0  -1.5 -5 0  -1.4 -5 0  -1.3 -5 0  -1.2 -5 0  -1.1 -5 0  -1 -5 0  -0.9000000000000004 -5 0  -0.7999999999999998 -5 0  -0.7000000000000002 -5 0  -0.5999999999999996 -5 0  -0.5 -5 0  -0.4000000000000004 -5 0  -0.2999999999999998 -5 0  -0.2000000000000002 -5 0  -0.09999999999999964 -5 0  0 -5 0  0.09999999999999964 -5 0  0.2000000000000002 -5 0  0.2999999999999998 -5 0  0.4000000000000004 -5 0  0.5 -5 0  0.5999999999999996 -5 0  0.7000000000000002 -5 0  0.7999999999999998 -5 0  0.9000000000000004 -5 0  1 -5 0  1.1 -5 0  1.2 -5 0  1.3 -5 0  1.4 -5 0  1.5 -5 0  1.6 -5 0  1.7 -5 0  1.8 -5 0  1.9 -5 0  2 -5 0  2.1 -5 0  2.2 -5 0  2.3 -5 0  2.4 -5 0  2.5 -5 0  2.6 -5 0  2.7 -5 0  2.8 -5 0  2.9 -5 0  3 -5 0  3.1 -5 0  3.199999999999999 -5 0  3.300000000000001 -5 0  3.4 -5 0  3.5 -5 0  3.6 -5 0  3.699999999999999 -5 0  3.800000000000001 -5 0  3.9 -5 0  4 -5 0  4.1 -5 0  4.199999999999999 -5 0  4.300000000000001 -5 0  4.4 -5 0  4.5 -5 0  4.6 -5 0  4.699999999999999 -5 0  4.800000000000001 -5 0  4.9 -5 0  5 -4.9 0  5 -4.8 0  5 -4.7 0  5 -4.6 0  5 -4.5 0  5 -4.4 0  5 -4.3 0  5 -4.2 0  5 -4.1 0  5 -4 0  5 -3.9 0  5 -3.8 0  5 -3.7 0  5 -3.6 0  5 -3.5 0  5 -3.4 0  5 -3.3 0  5 -3.2 0  5 -3.1 0  5 -3 0  5 -2.9 0  5 -2.8 0  5 -2.7 0  5 -2.6 0  5 -2.5 0  5 -2.4 0  5 -2.3 0  5 -2.2 0  5 -2.1 0  5 -2 0  5 -1.9 0  5 -1.8 0  5 -1.7 0  5 -1.6 0  5 -1.5 0  5 -1.4 0  5 -1.3 0  5 -1.2 0  5 -1.1 0  5 -1 0  5 -0.9000000000000004 0  5 -0.7999999999999998 0  5 -0.7000000000000002 0  5 -0.5999999999999996 0  5 -0.5 0  5 -0.4000000000000004 0  5 -0.2999999999999998 0  5 -0.2000000000000002 0  5 -0.09999999999999964 0  5 0 0  5 0.09999999999999964 0  5 0.2000000000000002 0  5 0.2999999999999998 0  5 0.4000000000000004 0  5 0.5 0  5 0.5999999999999996 0  5 0.7000000000000002 0  5 0.7999999999999998 0  5 0.9000000000000004 0  5 1 0  5 1.1 0  5 1.2 0  5 1.3 0  5 1.4 0  5 1.5 0  5 1.6 0  5 1.7 0  5 1.8 0  5 1.9 0  5 2 0  5 2.1 0  5 2.2 0  5 2.3 0  5 2.4 0  5 2.5 0  5 2.6 0  5 2.7 0  5 2.8 0  5 2.9 0  5 3 0  5 3.1 0  5 3.199999999999999 0  5 3.300000000000001 0  5 3.4 0  5 3.5 0  5 3.6 0  5 3.699999999999999 0  5 3.800000000000001 0  5 3.9 0  5 4 0  5 4.1 0  5 4.199999999999999 0  5 4.300000000000001 0  5 4.4 0  5 4.5 0  5 4.6 0  5 4.699999999999999 0  5 4.800000000000001 0  5 4.9 0  4.9 5 0  4.8 5 0  4.7 5 0  4.6 5 0  4.5 5 0  4.4 5 0  4.3 5 0  4.2 5 0  4.1 5 0  4 5 0  3.9 5 0  3.8 5 0  3.7 5 0  3.6 5 0  3.5 5 0  3.4 5 0  3.3 5 0  3.2 5 0  3.1 5 0  3 5 0  2.9 5 0  2.8 5 0  2.7 5 0  2.6 5 0  2.5 5 0  2.4 5 0  2.3 5 0  2.2 5 0  2.1 5 0  2 5 0  1.9 5 0  1.8 5 0  1.7 5 0  1.6 5 0  1.5 5 0  1.4 5 0  1.3 5 0  1.2 5 0  1.1 5 0  1 5 0  0.9000000000000004 5 0  0.7999999999999998 5 0  0.7000000000000002 5 0  0.5999999999999996 5 0  0.5 5 0  0.4000000000000004 5 0  0.2999999999999998 5 0  0.2000000000000002 5 0  0.09999999999999964 5 0  0 5 0  -0.09999999999999964 5 0  -0.2000000000000002 5 0  -0.2999999999999998 5 0  -0.4000000000000004 5 0  -0.5 5 0  -0.5999999999999996 5 0  -0.7000000000000002 5 0  -0.7999999999999998 5 0  -0.9000000000000004 5 0  -1 5 0  -1.1 5 0  -1.2 5 0  -1.3 5 0  -1.4 5 0  -1.5 5 0  -1.6 5 0  -1.7 5 0  -1.8 5 0  -1.9 5 0  -2 5 0  -2.1 5 0  -2.2 5 0  -2.3 5 0  -2.4 5 0  -2.5 5 0  -2.6 5 0  -2.7 5 0  -2.8 5 0  -2.9 5 0  -3 5 0  -3.1 5 0  -3.199999999999999 5 0  -3.300000000000001 5 0  -3.4 5 0  -3.5 5 0  -3.6 5 0  -3.699999999999999 5 0  -3.800000000000001 5 0  -3.9 5 0  -4 5 0  -4.1 5 0  -4.199999999999999 5 0  -4.300000000000001 5 0  -4.4 5 0  -4.5 5 0  -4.6 5 0  -4.699999999999999 5 0  -4.800000000000001 5 0  -4.9 5 0  -5 4.9 0  -5 4.8 0  -5 4.7 0  -5 4.6 0  -5 4.5 0  -5 4.4 0  -5 4.3 0  -5 4.2 0  -5 4.1 0  -5 4 0  -5 3.9 0  -5 3.8 0  -5 3.7 0  -5 3.6 0  -5 3.5 0  -5 3.4 0  -5 3.3 0  -5 3.2 0  -5 3.1 0  -5 3 0  -5 2.9 0  -5 2.8 0  -5 2.7 0  -5 2.6 0  -5 2.5 0  -5 2.4 0  -5 2.3 0  -5 2.2 0  -5 2.1 0  -5 2 0  -5 1.9 0  -5 1.8 0  -5 1.7 0  -5 1.6 0  -5 1.5 0  -5 1.4 0  -5 1.3 0  -5 1.2 0  -5 1.1 0  -5 1 0  -5 0.9000000000000004 0  -5 0.7999999999999998 0  -5 0.7000000000000002 0  -5 0.5999999999999996 0  -5 0.5 0  -5 0.4000000000000004 0  -5 0.2999999999999998 0  -5 0.2000000000000002 0  -5 0.09999999999999964 0  -5 0 0  -5 -0.09999999999999964 0  -5 -0.2000000000000002 0  -5 -0.2999999999999998 0  -5 -0.4000000000000004 0  -5 -0.5 0  -5 -0.5999999999999996 0  -5 -0.7000000000000002 0  -5 -0.7999999999999998 0  -5 -0.9000000000000004 0  -5 -1 0  -5 -1.1 0  -5 -1.2 0  -5 -1.3 0  -5 -1.4 0  -5 -1.5 0  -5 -1.6 0  -5 -1.7 0  -5 -1.8 0  -5 -1.9 0  -5 -2 0  -5 -2.1 0  -5 -2.2 0  -5 -2.3 0  -5 -2.4 0  -5 -2.5 0  -5 -2.6 0  -5 -2.7 0  -5 -2.8 0  -5 -2.9 0  -5 -3 0  -5 -3.1 0  -5 -3.199999999999999 0  -5 -3.300000000000001 0  -5 -3.4 0  -5 -3.5 0  -5 -3.6 0  -5 -3.699999999999999 0  -5 -3.800000000000001 0  -5 -3.9 0  -5 -4 0  -5 -4.1 0  -5 -4.199999999999999 0  -5 -4.300000000000001 0  -5 -4.4 0  -5 -4.5 0  -5 -4.6 0  -5 -4.699999999999999 0  -5 -4.800000000000001 0  -5 -4.9 0  1.257258923302831 0.09257412308996371 0  1.23507590388933 0.1903364039043774 0  1.201143435217355 0.2872225585709529 0  1.158472129153212 0.3757379573808967 0  1.09967187412003 0.4669471918644665 0  1.032831590541472 0.5502147628835631 0  0.9543198196350327 0.630803842512441 0  0.8670546393487241 0.70567437992965 0  0.7752310880225586 0.7707820758860633 0  0.6735698425410344 0.8282583050827067 0  0.5598629978477617 0.8805011003693795 0  0.4460159571572163 0.9255708840618305 0  0.3358582035181304 0.9570157739634112 0  0.2088142593556371 0.9798324347087667 0  0.08717440573461981 0.9980618705868869 0  -0.02614429809811794 1.001678048434073 0  -0.1438139983525313 0.9881419775104591 0  -0.2744460987356984 0.9680231777909706 0  -0.3948632380953829 0.9437555844168927 0  -0.5039933205629968 0.9088682328416943 0  -0.6133955566845583 0.8624968401028186 0  -0.7152885492415469 0.8072554588993364 0  -0.8096163185573778 0.7430057428673011 0  -0.9013198765985766 0.6692405177235486 0  -0.988096053444952 0.5887960175273721 0  -1.0631127706812 0.5069297107235519 0  -1.125447703839445 0.4228130084551858 0  -1.181201292596953 0.3283660249355931 0  -1.218390529092524 0.2420531218048417 0  -1.242641887197745 0.1485482558284644 0  -1.252756091761335 0.05284274746663315 0  -1.25269025555886 -0.05053625332237067 0  -1.242480835740966 -0.1455058206699657 0  -1.218031159125328 -0.2357635403082443 0  -1.175588497693595 -0.3313131517409124 0  -1.125743875883104 -0.4239565820878219 0  -1.065395676979918 -0.5066936931299335 0  -0.9906912290131504 -0.5878137855341983 0  -0.90451312049628 -0.6672126246394029 0  -0.8138284512151945 -0.7383484353665812 0  -0.718747076203514 -0.7988200685502351 0  -0.6142544977203269 -0.8522900563884026 0  -0.4978385861524662 -0.902083259574867 0  -0.3856079357864514 -0.9419609444707324 0  -0.2711334904182274 -0.9678913089009293 0  -0.1420094983596507 -0.9882307114760179 0  -0.02744240491472084 -1.000907363607454 0  0.08533795526490175 -0.9935208304471317 0  0.2156735480198088 -0.9754566876952993 0  0.338925723331026 -0.9550855970753329 0  0.450279875825274 -0.9242304948412391 0  0.5627246945037713 -0.8797046071955039 0  0.6749230819777264 -0.8280410792084124 0  0.7749171463591595 -0.772044346703416 0  0.865908336507528 -0.707548997646978 0  0.9515179064879223 -0.6317853063793725 0  1.030503470418171 -0.54868665618679 0  1.101617465545605 -0.4649458456267399 0  1.159401221305422 -0.3759310648833092 0  1.20299930850927 -0.2853092540418102 0  1.235818490094745 -0.189768130295573 0  1.257674346401374 -0.09278590914289542 0  -2.448513483648456 4.918029311051028 0  -2.44838299503963 -4.910399678452791 0  4.910320295846904 2.447826996585302 0  4.918455987565911 -2.449294986692962 0  2.446104354039197 -4.895614961092972 0  2.440539674552911 4.899381049681632 0  -4.910347615674696 -2.447854193594081 0  -4.910344936068593 2.447858403566605 0  -1.748465650661174 4.910878898669454 0  -1.744253943555187 -4.914325091831358 0  4.920470679060767 1.744008292360714 0  4.908981327099479 -1.747760826552289 0  -4.909276410798874 -1.74749581212804 0  -4.910100322250191 1.747241738764585 0  1.745734656414937 4.904724903008767 0  1.747141532572362 -4.892851580260094 0  -1.148786731506068 4.908632693077085 0  -1.129648092816567 -4.916563836352459 0  -4.908950478775011 -1.147836752255721 0  -4.908768343288529 1.147637570906683 0  1.143784400535113 -4.912740217291977 0  1.148796132170376 4.908618653321147 0  4.909089617584939 1.146111352685833 0  4.919950504551946 -1.15190441245041 0  -0.5466399212590841 -4.909805841352905 0  -0.5464260225112617 4.918511459143035 0  -4.907648041840362 -0.5486578280414166 0  -4.907672032258913 0.5472162763380194 0  4.906963893572175 -0.5489757557551689 0  4.918657290221669 0.5457393040674317 0  0.5424195469135222 -4.896650484194939 0  0.5511529719146478 4.915325995463521 0  -4.911809036856356 -3.048224022317077 0  4.918385972069057 3.046244628495275 0  4.911316254560242 -3.048198835719292 0  -4.912657495524571 3.04531638286274 0  3.055245049626992 -4.917307521494846 0  -3.048571502359457 -4.911237663562233 0  3.052140158954471 4.913316964682084 0  -3.048017792513701 4.912128367187308 0  -4.906743079057162 -0.04990256924619765 0  0.0451180223763677 -4.911754091889658 0  0.04956480413497968 4.918799192777533 0  4.913819911522038 -0.05128542856504999 0  3.545575363281805 -4.918974394599832 0  -3.548852037399385 4.91187
[...]
<PointData  Scalars="f_30"> 
<DataArray  type="Float64"  Name="f_30"  format="ascii">0.0000000000000000e+00  0.0000000000000000e+00  0.0000000000000000e+00  0.0000000000000000e+00  3.3060142386171013e-02  0.0000000000000000e+00  0.0000000000000000e+00  0.0000000000000000e+00  0.0000000000000000e+00  0.0000000000000000e+00  0.0000000000000000e+00  0.0000000000000000e+00  0.0000000000000000e+00  0.0000000000000000e+00  0.0000000000000000e+00  0.0000000000000000e+00  0.0000000000000000e+00  0.0000000000000000e+00  0.0000000000000000e+00  0.0000000000000000e+00  0.0000000000000000e+00  0.0000000000000000e+00  0.0000000000000000e+00  0.0000000000000000e+00  0.0000000000000000e+00  0.0000000000000000e+00  0.0000000000000000e+00  0.0000000000000000e+00  0.0000000000000000e+00  0.0000000000000000e+00  0.0000000000000000e+00  0.0000000000000000e+00  0.0000000000000000e+00  0.0000000000000000e+00  0.0000000000000000e+00  0.0000000000000000e+00  0.0000000000000000e+00  0.0000000000000000e+00  0.0000000000000000e+00  0.0000000000000000e+00  0.0000000000000000e+00  0.0000000000000000e+00  0.0000000000000000e+00  0.0000000000000000e+00  0.0000000000000000e+00  0.0000000000000000e+00  0.0000000000000000e+00  0.0000000000000000e+00  0.0000000000000000e+00  0.0000000000000000e+00  0.0000000000000000e+00  0.0000000000000000e+00  0.0000000000000000e+00  0.0000000000000000e+00  0.0000000000000000e+00  0.0000000000000000e+00  0.0000000000000000e+00  0.0000000000000000e+00  0.0000000000000000e+00  0.0000000000000000e+00  0.0000000000000000e+00  0.0000000000000000e+00  0.0000000000000000e+00  0.0000000000000000e+00  0.0000000000000000e+00  0.0000000000000000e+00  0.0000000000000000e+00  0.0000000000000000e+00  0.0000000000000000e+00  0.0000000000000000e+00  0.0000000000000000e+00  0.0000000000000000e+00  0.0000000000000000e+00  0.0000000000000000e+00  0.0000000000000000e+00  0.0000000000000000e+00  0.0000000000000000e+00  0.0000000000000000e+00  0.0000000000000000e+00  0.0000000000000000e+00  0.0000000000000000e+00  0.0000000000000000e+00  0.0000000000000000e+00  0.0000000000000000e+00  0.0000000000000000e+00  0.0000000000000000e+00  0.0000000000000000e+00  0.0000000000000000e+00  0.0000000000000000e+00  0.0000000000000000e+00  0.0000000000000000e+00  0.0000000000000000e+00  0.0000000000000000e+00  0.0000000000000000e+00  0.0000000000000000e+00  0.0000000000000000e+00  0.0000000000000000e+00  0.0000000000000000e+00  0.0000000000000000e+00  0.0000000000000000e+00  0.0000000000000000e+00  0.0000000000000000e+00  0.0000000000000000e+00  0.0000000000000000e+00  0.0000000000000000e+00  0.0000000000000000e+00  0.0000000000000000e+00  0.0000000000000000e+00  0.0000000000000000e+00  0.0000000000000000e+00  0.0000000000000000e+00  0.0000000000000000e+00  0.0000000000000000e+00  0.0000000000000000e+00  0.0000000000000000e+00  0.0000000000000000e+00  0.0000000000000000e+00  0.0000000000000000e+00  0.0000000000000000e+00  0.0000000000000000e+00  0.0000000000000000e+00  0.0000000000000000e+00  0.0000000000000000e+00  0.0000000000000000e+00  0.0000000000000000e+00  0.0000000000000000e+00  0.0000000000000000e+00  0.0000000000000000e+00  0.0000000000000000e+00  0.0000000000000000e+00  0.0000000000000000e+00  0.0000000000000000e+00  0.0000000000000000e+00  0.0000000000000000e+00  0.0000000000000000e+00  0.0000000000000000e+00  0.0000000000000000e+00  0.0000000000000000e+00  0.0000000000000000e+00  0.0000000000000000e+00  0.0000000000000000e+00  0.0000000000000000e+00  0.0000000000000000e+00  0.0000000000000000e+00  0.0000000000000000e+00  0.0000000000000000e+00  0.0000000000000000e+00  0.0000000000000000e+00  0.0000000000000000e+00  0.0000000000000000e+00  0.0000000000000000e+00  0.0000000000000000e+00  0.0000000000000000e+00  0.0000000000000000e+00  0.0000000000000000e+00  0.0000000000000000e+00  0.0000000000000000e+00  0.0000000000000000e+00  0.0000000000000000e+00  0.0000000000000000e+00  0.0000000000000000e+00  0.0000000000000000e+00  0.0000000000000000e+00  0.0000000000000000e+00  0.0000000000000000e+00  0.0000000000000000e+00  0.0000000000000000e+00  0.0000000000000000e+00  0.0000000000000000e+00  0.0000000000000000e+00  0.0000000000000000e+00  0.0000000000000000e+00  0.0000000000000000e+00  0.0000000000000000e+00  0.0000000000000000e+00  0.0000000000000000e+00  0.0000000000000000e+00  0.0000000000000000e+00  0.0000000000000000e+00  0.0000000000000000e+00  0.0000000000000000e+00  0.0000000000000000e+00  0.0000000000000000e+00  0.0000000000000000e+00  0.0000000000000000e+00  0.0000000000000000e+00  0.0000000000000000e+00  0.0000000000000000e+00  0.0000000000000000e+00  0.0000000000000000e+00  0.0000000000000000e+00  0.0000000000000000e+00  0.0000000000000000e+00  0.0000000000000000e+00  0.0000000000000000e+00  0.0000000000000000e+00  0.0000000000000000e+00  0.0000000000000000e+00  0.0000000000000000e+00  0.0000000000000000e+00  0.0000000000000000e+00  0.0000000000000000e+00  0.0000000000000000e+00  0.0000000000000000e+00  0.0000000000000000e+00  0.0000000000000000e+00  0.0000000000000000e+00  0.0000000000000000e+00  0.0000000000000000e+00  0.0000000000000000e+00  0.0000000000000000e+00  0.0000000000000000e+00  0.0000000000000000e+00  0.0000000000000000e+00  0.0000000000000000e+00  0.0000000000000000e+00  0.0000000000000000e+00  0.0000000000000000e+00  0.0000000000000000e+00  0.0000000000000000e+00  0.0000000000000000e+00  0.0000000000000000e+00  0.0000000000000000e+00  0.0000000000000000e+00  0.0000000000000000e+00  0.0000000000000000e+00  0.0000000000000000e+00  0.0000000000000000e+00  0.0000000000000000e+00  0.0000000000000000e+00  0.0000000000000000e+00  0.0000000000000000e+00  0.0000000000000000e+00  0.0000000000000000e+00  0.0000000000000000e+00  0.0000000000000000e+00  0.0000000000000000e+00  0.0000000000000000e+00  0.0000000000000000e+00  0.0000000000000000e+00  0.0000000000000000e+00  0.0000000000000000e+00  0.0000000000000000e+00  0.0000000000000000e+00  0.0000000000000000e+00  0.0000000000000000e+00  0.0000000000000000e+00  0.0000000000000000e+00  0.0000000000000000e+00  0.0000000000000000e+00  0.0000000000000000e+00  0.0000000000000000e+00  0.0000000000000000e+00  0.0000000000000000e+00  0.0000000000000000e+00  0.0000000000000000e+00  0.0000000000000000e+00  0.0000000000000000e+00  0.0000000000000000e+00  0.0000000000000000e+00  0.0000000000000000e+00  0.0000000000000000e+00  0.0000000000000000e+00  0.0000000000000000e+00  0.0000000000000000e+00  0.0000000000000000e+00  0.0000000000000000e+00  0.0000000000000000e+00  0.0000000000000000e+00  0.0000000000000000e+00  0.0000000000000000e+00  0.0000000000000000e+00  0.0000000000000000e+00  0.0000000000000000e+00  0.0000000000000000e+00  0.0000000000000000e+00  0.0000000000000000e+00  0.0000000000000000e+00  0.0000000000000000e+00  0.0000000000000000e+00  0.0000000000000000e+00  0.0000000000000000e+00  0.0000000000000000e+00  0.0000000000000000e+00  0.0000000000000000e+00  0.0000000000000000e+00  0.0000000000000000e+00  0.0000000000000000e+00  0.0000000000000000e+00  0.0000000000000000e+00  0.0000000000000000e+00  0.0000000000000000e+00  0.0000000000000000e+00  0.0000000000000000e+00  0.0000000000000000e+00  0.0000000000000000e+00  0.0000000000000000e+00  0.0000000000000000e+00  0.0000000000000000e+00  0.0000000000000000e+00  0.0000000000000000e+00  0.0000000000000000e+00  0.0000000000000000e+00  0.0000000000000000e+00  0.0000000000000000e+00  0.0000000000000000e+00  0.0000000000000000e+00  0.0000000000000000e+00  0.0000000000000000e+00  0.0000000000000000e+00  0.0000000000000000e+00  0.0000000000000000e+00  0.0000000000000000e+00  0.0000000000000000e+00  0.0000000000000000e+00  0.0000000000000000e+00  0.0000000000000000e+00  0.0000000000000000e+00  0.0000000000000000e+00  0.0000000000000000e+00  0.0000000000000000e+00  0.0000000000000000e+00  0.0000000000000000e+00  0.0000000000000000e+00  0.0000000000000000e+00  0.0000000000000000e+00  0.0000000000000000e+00  0.0000000000000000e+00  0.0000000000000000e+00  0.0000000000000000e+00  0.0000000000000000e+00  0.0000000000000000e+00  0.0000000000000000e+00  0.0000000000000000e+00  0.0000000000000000e+00  0.0000000000000000e+00  0.0000000000000000e+00  0.0000000000000000e+00  0.0000000000000000e+00  0.0000000000000000e+00  0.0000000000000000e+00  0.0000000000000000e+00  0.0000000000000000e+00  0.0000000000000000e+00  0.0000000000000000e+00  0.0000000000000000e+00  0.0000000000000000e+00  0.0000000000000000e+00  0.0000000000000000e+00  0.0000000000000000e+00  0.0000000000000000e+00  0.0000000000000000e+00  0.0000000000000000e+00  0.0000000000000000e+00  0.0000000000000000e+00  0.0000000000000000e+00  0.0000000000000000e+00  0.0000000000000000e+00  0.0000000000000000e+00  0.0000000000000000e+00  0.0000000000000000e+00  0.0000000000000000e+00  0.0000000000000000e+00  0.0000000000000000e+00  0.0000000000000000e+00  0.0000000000000000e+00  0.0000000000000000e+00  0.0000000000000000e+00  0.0000000000000000e+00  0.0000000000000000e+00  0.0000000000000000e+00  0.0000000000000000e+00  0.0000000000000000e+00  0.0000000000000000e+00  0.0000000000000000e+00  0.0000000000000000e+00  0.0000000000000000e+00  0.0000000000000000e+00  0.0000000000000000e+00  0.0000000000000000e+00  0.0000000000000000e+00  0.0000000000000000e+00  0.0000000000000000e+00  0.0000000000000000e+00  0.0000000000000000e+00  0.0000000000000000e+00  0.0000000000000000e+00  0.0000000000000000e+00  0.0000000000000000e+00  0.0000000000000000e+00  0.0000000000000000e+00  0.0000000000000000e+00  0.0000000000000000e+00  0.0000000000000000e+00  0.0000000000000000e+00  0.0000000000000000e+00  0.0000000000000000e+00  0.0000000000000000e+00  0.0000000000000000e+00  0.0000000000000000e+00  0.0000000000000000e+00  3.2850789174011720e-02  2.5906461903789091e-02  2.0344893262695739e-02  2.1280536509160269e-02  2.3678738209789885e-02  2.9377846066783477e-02  2.8778628285737438e-02  2.1754922016652748e-02  2.7435799377687749e-02  2.8919701419209510e-02  1.8282616561969223e-02  3.3449890577925967e-02  4.1384706361384742e-02  7.6571602841866964e-03  3.2349634774419399e-02  3.7239829119499100e-02  1.0093169083516934e-02  1.6531435114188881e-02  3.3985738537073151e-02  2.8452792792034439e-02  3.1413901878147403e-02  2.8723773759106570e-02  2.5678070844466803e-02  2.4375082260017604e-02  2.0112507335247411e-02  2.2880452586109823e-02  2.3640918857332039e-02  2.3770724634560775e-02  2.7989348705940467e-02  2.5369820797686439e-02  2.1332842181275714e-02  2.2764569567152063e-02  2.1767079227937709e-02  2.9118351883728022e-02  1.7864344407637150e-02  3.0914995744581217e-02  2.6288176850302120e-02  2.2541432928113423e-02  2.7500571440939890e-02  2.9405990187808356e-02  1.8901050584655656e-02  2.3544507194057145e-02  1.8156244105488370e-02  4.2125542648313030e-02  2.4002060028250321e-02  1.3145656862662107e-02  6.3084919761213748e-02  2.9539254713629868e-02  7.7512035382684549e-03  3.5832056642821908e-02  3.3149692799191902e-02  1.7358109965141335e-02  2.8885794499305791e-02  3.8558651869111740e-02  3.1534477858456762e-02  2.1775902093688265e-02  1.4965201289123537e-02  2.8680702828234240e-02  3.7321025703484570e-02  3.0197786589563638e-02  2.4921851463474337e-02  3.0522522973714435e-02  3.6120498661117756e-27  -1.3176452760097088e-27  -2.6372986272904815e-27  -2.9362107400756280e-27  -1.2753406656408617e-27  -5.3166089318254003e-28  -2.0321713978379747e-28  1.8085996400489649e-27  7.1905494404558109e-27  4.1261070988758151e-27  -7.0167484358819511e-25  -6.6245813667908781e-25  5.4015522701576652e-25  1.1894523956523028e-24  3.7093407862717924e-26  3.0578355391213215e-26  -4.7817253315627322e-26  -3.0032608383918719e-26  -1.1242594546428527e-22  -1.6505401284012973e-22  -4.3276095109518261e-26  -4.9235443560816915e-26  4.7612434442144421e-23  4.7758636799754955e-23  -4.7392344462909880e-27  -3.9752105620186978e-26  -7.5369923179810226e-21  -7.1236227112783383e-21  -4.5758828040870498e-21  -4.8274275355165082e-21  8.3206662854443817e-26  -2.6525574636341235e-26  7.1703364633543440e-30  -8.8439256318353923e-30  -9.0742300217019371e-30  1.6282533033394566e-29  1.9760126689237606e-28  3.9844719708543063e-28  2.8927904175601082e-28  3.1818414352175516e-28  3.5536294985279902e-20  6.3555719575779020e-26  1.2229112330835611e-26  3.8447621774776938e-20  -9.0965124737855615e-30  -9.9263713288886608e-30  -6.2620365161093758e-30  2.3186069073479733e-31  2.4329242431371291e-31  2.3940961977372590e-31  1.4562222918129186e-31  -9.9633774246419992e-30  -6.1356137502443177e-33  -2.3069039023631908e-32  1.1371218841222078e-31  -4.0599791847532033e-33  2.5154660294096468e-32  -6.0625809617861347e-33  1.3756193014357545e-31  -9.9017527157051885e-34  -1.2942977152623517e-33  -4.6819489612092772e-34  -1.9574414547840783e-34  1.4856513261508229e-34  1.3409178477164439e-34  7.7341140598575250e-35  7.3736446193991596e-36  -1.6096916282607707e-33  2.7758151079796674e-20  4.6291661635483898e-26  -1.3627614183519320e-26  1.3821898586103664e-20  1.1675536031537371e-25  -3.4725221637546082e-24  1.3394908253557900e-21  8.8430431851111705e-22  -3.2579679141914884e-24  2.7353626739645258e-26  7.8782463373793013e-26  -5.2877675993467495e-26  -3.8571545129052155e-26  -1.1547889011220768e-23  3.9597123386343751e-22  4.1482014438725184e-22  -1.1338401975605681e-23  -2.5504444260510676e-27  8.8214436617886292e-26  -4.0401621963197345e-27  5.5568617989927980e-27  -6.5560280050058838e-27  8.9114994585246095e-26  1.1270768578873054e-25  -4.0131668566641215e-27  -2.4128295518015021e-27  3.0464792221355698e-26  2.8830737221656259e-26  -1.5704723475570913e-28  -7.7610635586879916e-28  -1.2224611267517593e-27  2.0590619433360253e-28  6.3879523311694620e-28  6.7275882380145760e-29  -1.5133884677447027e-28  -9.2252224460439111e-28  1.2567466426533795e-35  1.8952179825053804e-35  7.5316856145538627e-36  -1.6946037591151743e-36  6.4699459005694947e-36  1.5368866326704034e-36  1.0557458790154919e-35  5.2340240283831602e-37  2.7877468749153400e-20  1.2036732821842353e-25  1.1446710523338255e-25  1.3760368728993837e-20  -1.7862912343065048e-27  4.4955673818761753e-27  4.7956970502412032e-27  -7.1561535284397631e-27  -1.1865849334787584e-26  -6.9819810981618290e-29  -8.1942416824178226e-27  -2.0294422559649512e-26  3.5252782586173564e-30  -1.1192110934296105e-28  -7.3961215774111358e-29  2.8341012973056955e-30  3.4754374996842787e-30  -9.6395372248996320e-29  -1.2779725383066853e-28  1.1569377075961058e-30  -3.7499932807662351e-33  3.6441397533177586e-34  1.2052975062681869e-30  -1.2997731544765516e-32  2.7360647298011798e-31  -1.5412842453098079e-32  -3.6562396573968304e-32  1.2126587275573434e-33  8.1374393857452489e-31  -1.3325626023460118e-32  -1.3655503420847073e-33  2.9198297010948835e-34  -4.4317815175718699e-32  1.2637524283761568e-33  5.2319043551812338e-31  -1.7094969317214813e-32  -3.7014104209286721e-36  -1.7453799017909796e-36  -2.9595981740356960e-36  -3.4662520621044949e-36  3.4840952160015847e-20  -1.2995853832394062e-19  -8.5771485399118004e-20  4.2076950834001325e-19  2.0515162996508957e-19  -1.2097206260943850e-18  -3.1622077544695850e-19  2.8705394528569761e-18  -2.7975271385000071e-19  -4.3099805275644945e-18  4.7474873540786910e-18  -4.6496826035182323e-18  -2.3363936466006502e-17  6.8991206863522596e-17  8.0970997967765112e-17  -3.3342387988391788e-16  -2.1158947398047128e-16  1.1328876411981008e-15  3.8162538871837323e-16  -2.8846908310204726e-15  -2.0353347461060538e-16  -4.7525366538367515e-15  4.9165521471022262e-15  -1.6200971392717423e-15  -1.5863606606195610e-15  7.3808900507736405e-15  -2.5145867090703771e-14  -1.5924053218494824e-14  9.9126088631487131e-14  9.7169964782726389e-15  -1.8521732991613624e-13  5.6053597000829397e-14  -3.7650738734940560e-13  2.9176700062771659e-14  -1.9703582417318151e-13  8.8654755003856466e-13  1.5536385941452709e-13  -2.2293420364186555e-12  7.7802385517788856e-13  -1.2244157655621096e-13  -2.4767512528704733e-12  1.3240151117003222e-11  -1.0637074179801113e-13  -2.1326473481409173e-11  -2.3720649786334624e-11  1.5576240481409375e-11  -4.0435928188364218e-11  -2.6197003029472441e-11  -3.0475884963727832e-13  1.7310816249448510e-11  -4.9867774899539082e-11  -2.3475122187151867e-11  -1.2717079557352461e-12  1.8382142072485463e-11  -2.7278772731206892e-12  -3.2804599235418905e-12  -1.3737042094154597e-11  1.8262690716719232e-11  -1.8308161180871545e-12  -6.7099888997035619e-12  1.4874960457406065e-12  3.6898659709408879e-13  1.1085111020667116e-11  -8.5790469038890528e-12  9.5890383600674258e-13  3.5615962007089430e-12  -1.4405375652520225e-11  2.2790839211690833e-12  -9.7888641027958009e-13  2.8368203930723795e-13  -4.9727543243288296e-12  2.1933223878335638e-12  -8.9154009063177352e-12  1.4121263848513613e-13  1.4211341036178751e-12  2.1923267084558586e-12  -3.5655713777380519e-12  2.5691766965007041e-11  -9.9231806242347639e-12  4.6010827132514564e-11  -1.3699262142877132e-11  5.3262920494820681e-11  3.2758500229186832e-12  -1.4243326206504897e-11  5.2221816301136514e-11  -1.3903440252212909e-11  5.2099286202032862e-11  -1.4170569632008496e-11  5.2926269932239300e-11  -1.3636910025487229e-11  4.6054118805977968e-11  -1.0050906178131374e-11  2.6443268093875672e-11  -3.7217207317753888e-12  1.9323460366423802e-12  3.2816610720445715e-12  -1.3958258822733675e-10  2.5169221214665920e+00  1.9658981863108096e-12  -1.3155948661749175e-11  3.9195814358285763e-12  -1.2890352076587276e-11  2.5792559619871738e+00  2.4091931099117631e-12  -4.4099325108171610e-12  2.4734613222226325e+00  1.7710231196499079e-13  1.8657582450131762e-12  1.7126634327523525e-12  -1.0303922831029889e-11  2.3502667725323805e-12  -4.7667445866811883e-12  -1.9087992048518930e-10  -3.2978805244342755e-13  1.8417662291226543e-13  2.4651847123228607e-12  1.3467229151411479e-12  -1.3792074033449318e-11  3.1901631395238480e-12  -6.8567977967394672e-12  4.4375684726659953e-11  5.1245282469395610e-12  1.7259945932356647e-12  -1.0570505488826989e-11  2.9626029749860358e-11  2.7854146733704782e-11  -3.0701551045583366e-12  -2.6889014019263061e-12  -2.9985449175091583e-11  2.4132996962702209e-11  -4.4954039458049263e-12  2.5560635693099752e-12  -4.7096005219751282e-11  1.4858891067482077e-11  -3.5627223703651464e-12  2.0490955086008823e-12  -3.4327602030769068e-11  1.3014914855258267e-11  -1.6575774120152361e-11  -2.7056021574727544e-11  7.5550973243731379e-13  1.4723888281637515e-11  -2.5696387275010438e-11  -3.4308041814079580e-11  1.0559257164597672e-12  1.9259321167146912e-11  -3.8110107701844980e-11  -4.0370769721441194e-11  3.3822938866829707e-10  -1.0485837075813771e-10  3.4694587178368203e-11  2.7917408075579860e-10  -1.0158240006950998e-11  -1.5825049221894824e-10  7.0791161554671091e-10  -9.7379456685507218e-11  -3.1622878011576930e-10  3.3497047452698910e-10  -1.7630520766935283e-09  3.1759805944667414e-10  5.2654013088953481e-10  -9.3929374549174399e-10  5.5420856839540970e-11  4.6164483175076218e-10  -2.0806078183400037e-09  4.1348395888154802e-10  4.8293257943446465e-11  -7.7766699164253998e-10  6.2573177309642685e-09  -2.5229855767904250e-09  1.1102165013618194e-08  -2.6965602061146412e-09  6.0759694026948149e-09  3.0404535024309361e-10  -1.0068936437002646e-08  5.1679326495565894e-09  -2.7534873797630942e-08  8.9690928753964414e-09  -3.7318257776390680e-08  1.0594690280020634e-08  -4.0077991457753734e-08  1.0586069795991991e-08  -3.7174714189567537e-08  8.7248268824187060e-09  -2.6310873726501773e-08  5.0685658920694782e-09  -1.1416175360895886e-08  -1.8825311488349604e-09  -8.3021180694528659e-10  3.6490833395071939e-10  9.5299196701042921e-11  -6.0274821261748380e-11  2.9172228671580334e-12  6.9893085034006346e-12  -6.6547245515630437e-12  1.9364290059157129e-13  2.8335947984164623e-12  -1.2437678675358416e-11  -4.7751674735458776e-13  4.5643851911957274e-10  3.2651065898566473e-12  -1.0225753859599778e-11  1.8589516847829609e-12  -3.3190771148521923e-12  1.0211851373510861e-13  1.5019760983108536e-12  -5.0334253584892700e-13  1.3507405