<?xml version="1.0"?>
<VTKFile type="UnstructuredGrid"  version="0.1"  >
<UnstructuredGrid>
<Piece  NumberOfPoints="11902" NumberOfCells="23402">
<Points>
<DataArray  type="Float64"  NumberOfComponents="3"  format="ascii">-5 -5 0  5 -5 0  5 5 0  -5 5 0  1.247555428817006 0.001370534145506971 0  -4.9 -5 0  -4.8 -5 0  -4.7 -5 0  -4.6 -5 0  -4.5 -5 0  -4.4 -5 0  -4.3 -5 0  -4.2 -5 0  -4.1 -5 0  -4 -5 0  -3.9 -5 0  -3.8 -5 0  -3.7 -5 0  -3.6 -5 0  -3.5 -5 0  -3.4 -5 0  -3.3 -5 0  -3.2 -5 0  -3.1 -5 0  -3 -5 0  -2.9 -5 0  -2.8 -5 0  -2.7 -5 0  -2.6 -5 0  -2.5 -5 0  -2.4 -5 0  -2.3 -5 0  -2.2 -5 0  -2.1 -5 0  -2 -5 0  -1.9 -5 0  -1.8 -5 0  -1.7 -5 0  -1.6 -5 0  -1.5 -5 0  -1.4 -5 0  -1.3 -5 0  -1.2 -5 0  -1.1 -5 0  -1 -5 0  -0.9000000000000004 -5 0  -0.7999999999999998 -5 0  -0.7000000000000002 -5 0  -0.5999999999999996 -5 0  -0.5 -5 0  -0.4000000000000004 -5 0  -0.2999999999999998 -5 0  -0.2000000000000002 -5 0  -0.09999999999999964 -5 0  0 -5 0  0.09999999999999964 -5 0  0.2000000000000002 -5 0  0.2999999999999998 -5 0  0.4000000000000004 -5 0  0.5 -5 0  0.5999999999999996 -5 0  0.7000000000000002 -5 0  0.7999999999999998 -5 0  0.9000000000000004 -5 0  1 -5 0  1.1 -5 0  1.2 -5 0  1.3 -5 0  1.4 -5 0  1.5 -5 0  1.6 -5 0  1.7 -5 0  1.8 -5 0  1.9 -5 0  2 -5 0  2.1 -5 0  2.2 -5 0  2.3 -5 0  2.4 -5 0  2.5 -5 0  2.6 -5 0  2.7 -5 0  2.8 -5 0  2.9 -5 0  3 -5 0  3.1 -5 0  3.199999999999999 -5 0  3.300000000000001 -5 0  3.4 -5 0  3.5 -5 0  3.6 -5 0  3.699999999999999 -5 0  3.800000000000001 -5 0  3.9 -5 0  4 -5 0  4.1 -5 0  4.199999999999999 -5 0  4.300000000000001 -5 0  4.4 -5 0  4.5 -5 0  4.6 -5 0  4.699999999999999 -5 0  4.800000000000001 -5 0  4.9 -5 0  5 -4.9 0  5 -4.8 0  5 -4.7 0  5 -4.6 0  5 -4.5 0  5 -4.4 0  5 -4.3 0  5 -4.2 0  5 -4.1 0  5 -4 0  5 -3.9 0  5 -3.8 0  5 -3.7 0  5 -3.6 0  5 -3.5 0  5 -3.4 0  5 -3.3 0  5 -3.2 0  5 -3.1 0  5 -3 0  5 -2.9 0  5 -2.8 0  5 -2.7 0  5 -2.6 0  5 -2.5 0  5 -2.4 0  5 -2.3 0  5 -2.2 0  5 -2.1 0  5 -2 0  5 -1.9 0  5 -1.8 0  5 -1.7 0  5 -1.6 0  5 -1.5 0  5 -1.4 0  5 -1.3 0  5 -1.2 0  5 -1.1 0  5 -1 0  5 -0.9000000000000004 0  5 -0.7999999999999998 0  5 -0.7000000000000002 0  5 -0.5999999999999996 0  5 -0.5 0  5 -0.4000000000000004 0  5 -0.2999999999999998 0  5 -0.2000000000000002 0  5 -0.09999999999999964 0  5 0 0  5 0.09999999999999964 0  5 0.2000000000000002 0  5 0.2999999999999998 0  5 0.4000000000000004 0  5 0.5 0  5 0.5999999999999996 0  5 0.7000000000000002 0  5 0.7999999999999998 0  5 0.9000000000000004 0  5 1 0  5 1.1 0  5 1.2 0  5 1.3 0  5 1.4 0  5 1.5 0  5 1.6 0  5 1.7 0  5 1.8 0  5 1.9 0  5 2 0  5 2.1 0  5 2.2 0  5 2.3 0  5 2.4 0  5 2.5 0  5 2.6 0  5 2.7 0  5 2.8 0  5 2.9 0  5 3 0  5 3.1 0  5 3.199999999999999 0  5 3.300000000000001 0  5 3.4 0  5 3.5 0  5 3.6 0  5 3.699999999999999 0  5 3.800000000000001 0  5 3.9 0  5 4 0  5 4.1 0  5 4.199999999999999 0  5 4.300000000000001 0  5 4.4 0  5 4.5 0  5 4.6 0  5 4.699999999999999 0  5 4.800000000000001 0  5 4.9 0  4.9 5 0  4.8 5 0  4.7 5 0  4.6 5 0  4.5 5 0  4.4 5 0  4.3 5 0  4.2 5 0  4.1 5 0  4 5 0  3.9 5 0  3.8 5 0  3.7 5 0  3.6 5 0  3.5 5 0  3.4 5 0  3.3 5 0  3.2 5 0  3.1 5 0  3 5 0  2.9 5 0  2.8 5 0  2.7 5 0  2.6 5 0  2.5 5 0  2.4 5 0  2.3 5 0  2.2 5 0  2.1 5 0  2 5 0  1.9 5 0  1.8 5 0  1.7 5 0  1.6 5 0  1.5 5 0  1.4 5 0  1.3 5 0  1.2 5 0  1.1 5 0  1 5 0  0.9000000000000004 5 0  0.7999999999999998 5 0  0.7000000000000002 5 0  0.5999999999999996 5 0  0.5 5 0  0.4000000000000004 5 0  0.2999999999999998 5 0  0.2000000000000002 5 0  0.09999999999999964 5 0  0 5 0  -0.09999999999999964 5 0  -0.2000000000000002 5 0  -0.2999999999999998 5 0  -0.4000000000000004 5 0  -0.5 5 0  -0.5999999999999996 5 0  -0.7000000000000002 5 0  -0.7999999999999998 5 0  -0.9000000000000004 5 0  -1 5 0  -1.1 5 0  -1.2 5 0  -1.3 5 0  -1.4 5 0  -1.5 5 0  -1.6 5 0  -1.7 5 0  -1.8 5 0  -1.9 5 0  -2 5 0  -2.1 5 0  -2.2 5 0  -2.3 5 0  -2.4 5 0  -2.5 5 0  -2.6 5 0  -2.7 5 0  -2.8 5 0  -2.9 5 0  -3 5 0  -3.1 5 0  -3.199999999999999 5 0  -3.300000000000001 5 0  -3.4 5 0  -3.5 5 0  -3.6 5 0  -3.699999999999999 5 0  -3.800000000000001 5 0  -3.9 5 0  -4 5 0  -4.1 5 0  -4.199999999999999 5 0  -4.300000000000001 5 0  -4.4 5 0  -4.5 5 0  -4.6 5 0  -4.699999999999999 5 0  -4.800000000000001 5 0  -4.9 5 0  -5 4.9 0  -5 4.8 0  -5 4.7 0  -5 4.6 0  -5 4.5 0  -5 4.4 0  -5 4.3 0  -5 4.2 0  -5 4.1 0  -5 4 0  -5 3.9 0  -5 3.8 0  -5 3.7 0  -5 3.6 0  -5 3.5 0  -5 3.4 0  -5 3.3 0  -5 3.2 0  -5 3.1 0  -5 3 0  -5 2.9 0  -5 2.8 0  -5 2.7 0  -5 2.6 0  -5 2.5 0  -5 2.4 0  -5 2.3 0  -5 2.2 0  -5 2.1 0  -5 2 0  -5 1.9 0  -5 1.8 0  -5 1.7 0  -5 1.6 0  -5 1.5 0  -5 1.4 0  -5 1.3 0  -5 1.2 0  -5 1.1 0  -5 1 0  -5 0.9000000000000004 0  -5 0.7999999999999998 0  -5 0.7000000000000002 0  -5 0.5999999999999996 0  -5 0.5 0  -5 0.4000000000000004 0  -5 0.2999999999999998 0  -5 0.2000000000000002 0  -5 0.09999999999999964 0  -5 0 0  -5 -0.09999999999999964 0  -5 -0.2000000000000002 0  -5 -0.2999999999999998 0  -5 -0.4000000000000004 0  -5 -0.5 0  -5 -0.5999999999999996 0  -5 -0.7000000000000002 0  -5 -0.7999999999999998 0  -5 -0.9000000000000004 0  -5 -1 0  -5 -1.1 0  -5 -1.2 0  -5 -1.3 0  -5 -1.4 0  -5 -1.5 0  -5 -1.6 0  -5 -1.7 0  -5 -1.8 0  -5 -1.9 0  -5 -2 0  -5 -2.1 0  -5 -2.2 0  -5 -2.3 0  -5 -2.4 0  -5 -2.5 0  -5 -2.6 0  -5 -2.7 0  -5 -2.8 0  -5 -2.9 0  -5 -3 0  -5 -3.1 0  -5 -3.199999999999999 0  -5 -3.300000000000001 0  -5 -3.4 0  -5 -3.5 0  -5 -3.6 0  -5 -3.699999999999999 0  -5 -3.800000000000001 0  -5 -3.9 0  -5 -4 0  -5 -4.1 0  -5 -4.199999999999999 0  -5 -4.300000000000001 0  -5 -4.4 0  -5 -4.5 0  -5 -4.6 0  -5 -4.699999999999999 0  -5 -4.800000000000001 0  -5 -4.9 0  1.240136662019355 0.09622199449906121 0  1.219314577142907 0.1934979215120294 0  1.186149180138183 0.2900788713390152 0  1.143550183861822 0.3795547987146407 0  1.086847033322614 0.4701369968731747 0  1.021862744041512 0.5548197956241672 0  0.944668633050634 0.6345798498339877 0  0.8588434179380957 0.7085650664288285 0  0.767284513071818 0.7739322545828669 0  0.6654338072774008 0.8314995035447957 0  0.5553990029548023 0.8837337151645255 0  0.4436558031584844 0.927197187300575 0  0.3307886343099168 0.959867139423314 0  0.2081152021949647 0.9814775818850757 0  0.08939082333041237 0.9996286769400602 0  -0.02749308971350843 1.002727992619123 0  -0.1452186497763823 0.9897755526606797 0  -0.2700926828168987 0.9713281281162031 0  -0.388449609123188 0.9465976878076334 0  -0.4993043882422894 0.9102922905104185 0  -0.6077098127308966 0.8639492158252793 0  -0.7097604233505417 0.8095151111789275 0  -0.8041308256544307 0.745031039183072 0  -0.8940885173994251 0.6724046190474042 0  -0.9781092877982664 0.5932375832850052 0  -1.050950044226365 0.5120071011334726 0  -1.112361968696947 0.4260429731965303 0  -1.163793931676365 0.3343805298874309 0  -1.201543163385421 0.2432544141467356 0  -1.22604388995015 0.1486534426645443 0  -1.23785669064398 0.05095884007352666 0  -1.237808443392439 -0.04884654408038724 0  -1.225954257821006 -0.1459066408137449 0  -1.201347109698047 -0.2397116941356589 0  -1.161463905392173 -0.3346418364629882 0  -1.112597206998355 -0.4258351735395545 0  -1.052370006501381 -0.5116616342652168 0  -0.9803354478931466 -0.5921718799029465 0  -0.8969303650272028 -0.6700990472815356 0  -0.8072759143262634 -0.7411900542822573 0  -0.7113679736799132 -0.802154631899561 0  -0.607343138342395 -0.8555070279045225 0  -0.4952514342188337 -0.9045396654426213 0  -0.3826462807178355 -0.9437439474661335 0  -0.2667877394789652 -0.9707682096363037 0  -0.1438753674025542 -0.9893426378136192 0  -0.02797044376230565 -1.001880891877627 0  0.08940385955180244 -0.9951763038885483 0  0.2127794566764968 -0.9784812041110794 0  0.3331384950477442 -0.9582929657430307 0  0.4477348452363654 -0.9258592148311755 0  0.5576470202659444 -0.882847191185545 0  0.6663158245548986 -0.8315102289575622 0  0.7673061403799041 -0.7750964392665378 0  0.8589375209527308 -0.7095169533950405 0  0.9440261186266452 -0.6344909512269149 0  1.019438487291701 -0.5540508097868336 0  1.087082790426697 -0.4691811923457542 0  1.144464880101859 -0.379705397234409 0  1.187848847402426 -0.2881044362105052 0  1.219882899177496 -0.1926109537120329 0  1.240360509056531 -0.09587210389197939 0  -2.448596897810562 4.918178691808881 0  -2.448474290870637 -4.910562934156148 0  4.910488819693087 2.447942390109592 0  4.918608919066502 -2.449399578988711 0  2.446210292153274 -4.895806379066228 0  2.44064236801397 4.899566462084307 0  -4.910515364981696 -2.447968291506129 0  -4.910512751905297 2.447972174343131 0  -1.748552389690496 4.911095678148656 0  -1.744337511187457 -4.914533584745539 0  4.920683216074851 1.744112698257649 0  4.909224026018155 -1.747880003613453 0  -4.909517295233612 -1.747613616680813 0  -4.910339111891417 1.747357965946234 0  1.745827568317528 4.904958113805859 0  1.747245244377976 -4.893113177632123 0  -1.148855948172713 4.908896781616392 0  -1.129710979519385 -4.916805672262917 0  -4.90925171384055 -1.14793366648351 0  -4.909070253487826 1.147734026782892 0  1.143849710760141 -4.91299304113773 0  1.148865653977725 4.908883712038874 0  4.909392251965546 1.146209187052087 0  4.920216391875767 -1.151990421979588 0  -0.5466764899342669 -4.910094202033584 0  -0.5464583580789463 4.918772457897872 0  -4.907997775961287 -0.5487117550380691 0  -4.908021777783666 0.547269320817108 0  4.907318284323364 -0.5490302282773095 0  4.918967291668271 0.5457870881205222 0  0.5424596106893548 -4.896981563359324 0  0.5511871989259375 4.915597520326584 0  -4.911922356998384 -3.048318395587642 0  4.918491373831992 3.046332939044635 0  4.911430449207566 -3.048294482148233 0  -4.912769993039807 3.045409756571796 0  3.055319132364991 -4.917416329813319 0  -3.048651384547609 -4.911354239350746 0  3.052218204516814 4.913431503418368 0  -3.048096857346517 4.912243781103133 0  -4.907110919661945 -0.04990807775858461 0  0.04512030276663144 -4.912044940222065 0  0.04956801088757392 4.919067351495335 0  4.914161877772993 -0.05129012413871183 0  3.54563379774215 -4.919050243252458 0  -3.54891554756926
[...]
<PointData  Scalars="f_30"> 
<DataArray  type="Float64"  Name="f_30"  format="ascii">0.0000000000000000e+00  0.0000000000000000e+00  0.0000000000000000e+00  0.0000000000000000e+00  8.2579252923465019e-02  0.0000000000000000e+00  0.0000000000000000e+00  0.0000000000000000e+00  0.0000000000000000e+00  0.0000000000000000e+00  0.0000000000000000e+00  0.0000000000000000e+00  0.0000000000000000e+00  0.0000000000000000e+00  0.0000000000000000e+00  0.0000000000000000e+00  0.0000000000000000e+00  0.0000000000000000e+00  0.0000000000000000e+00  0.0000000000000000e+00  0.0000000000000000e+00  0.0000000000000000e+00  0.0000000000000000e+00  0.0000000000000000e+00  0.0000000000000000e+00  0.0000000000000000e+00  0.0000000000000000e+00  0.0000000000000000e+00  0.0000000000000000e+00  0.0000000000000000e+00  0.0000000000000000e+00  0.0000000000000000e+00  0.0000000000000000e+00  0.0000000000000000e+00  0.0000000000000000e+00  0.0000000000000000e+00  0.0000000000000000e+00  0.0000000000000000e+00  0.0000000000000000e+00  0.0000000000000000e+00  0.0000000000000000e+00  0.0000000000000000e+00  0.0000000000000000e+00  0.0000000000000000e+00  0.0000000000000000e+00  0.0000000000000000e+00  0.0000000000000000e+00  0.0000000000000000e+00  0.0000000000000000e+00  0.0000000000000000e+00  0.0000000000000000e+00  0.0000000000000000e+00  0.0000000000000000e+00  0.0000000000000000e+00  0.0000000000000000e+00  0.0000000000000000e+00  0.0000000000000000e+00  0.0000000000000000e+00  0.0000000000000000e+00  0.0000000000000000e+00  0.0000000000000000e+00  0.0000000000000000e+00  0.0000000000000000e+00  0.0000000000000000e+00  0.0000000000000000e+00  0.0000000000000000e+00  0.0000000000000000e+00  0.0000000000000000e+00  0.0000000000000000e+00  0.0000000000000000e+00  0.0000000000000000e+00  0.0000000000000000e+00  0.0000000000000000e+00  0.0000000000000000e+00  0.0000000000000000e+00  0.0000000000000000e+00  0.0000000000000000e+00  0.0000000000000000e+00  0.0000000000000000e+00  0.0000000000000000e+00  0.0000000000000000e+00  0.0000000000000000e+00  0.0000000000000000e+00  0.0000000000000000e+00  0.0000000000000000e+00  0.0000000000000000e+00  0.0000000000000000e+00  0.0000000000000000e+00  0.0000000000000000e+00  0.0000000000000000e+00  0.0000000000000000e+00  0.0000000000000000e+00  0.0000000000000000e+00  0.0000000000000000e+00  0.0000000000000000e+00  0.0000000000000000e+00  0.0000000000000000e+00  0.0000000000000000e+00  0.0000000000000000e+00  0.0000000000000000e+00  0.0000000000000000e+00  0.0000000000000000e+00  0.0000000000000000e+00  0.0000000000000000e+00  0.0000000000000000e+00  0.0000000000000000e+00  0.0000000000000000e+00  0.0000000000000000e+00  0.0000000000000000e+00  0.0000000000000000e+00  0.0000000000000000e+00  0.0000000000000000e+00  0.0000000000000000e+00  0.0000000000000000e+00  0.0000000000000000e+00  0.0000000000000000e+00  0.0000000000000000e+00  0.0000000000000000e+00  0.0000000000000000e+00  0.0000000000000000e+00  0.0000000000000000e+00  0.0000000000000000e+00  0.0000000000000000e+00  0.0000000000000000e+00  0.0000000000000000e+00  0.0000000000000000e+00  0.0000000000000000e+00  0.0000000000000000e+00  0.0000000000000000e+00  0.0000000000000000e+00  0.0000000000000000e+00  0.0000000000000000e+00  0.0000000000000000e+00  0.0000000000000000e+00  0.0000000000000000e+00  0.0000000000000000e+00  0.0000000000000000e+00  0.0000000000000000e+00  0.0000000000000000e+00  0.0000000000000000e+00  0.0000000000000000e+00  0.0000000000000000e+00  0.0000000000000000e+00  0.0000000000000000e+00  0.0000000000000000e+00  0.0000000000000000e+00  0.0000000000000000e+00  0.0000000000000000e+00  0.0000000000000000e+00  0.0000000000000000e+00  0.0000000000000000e+00  0.0000000000000000e+00  0.0000000000000000e+00  0.0000000000000000e+00  0.0000000000000000e+00  0.0000000000000000e+00  0.0000000000000000e+00  0.0000000000000000e+00  0.0000000000000000e+00  0.0000000000000000e+00  0.0000000000000000e+00  0.0000000000000000e+00  0.0000000000000000e+00  0.0000000000000000e+00  0.0000000000000000e+00  0.0000000000000000e+00  0.0000000000000000e+00  0.0000000000000000e+00  0.0000000000000000e+00  0.0000000000000000e+00  0.0000000000000000e+00  0.0000000000000000e+00  0.0000000000000000e+00  0.0000000000000000e+00  0.0000000000000000e+00  0.0000000000000000e+00  0.0000000000000000e+00  0.0000000000000000e+00  0.0000000000000000e+00  0.0000000000000000e+00  0.0000000000000000e+00  0.0000000000000000e+00  0.0000000000000000e+00  0.0000000000000000e+00  0.0000000000000000e+00  0.0000000000000000e+00  0.0000000000000000e+00  0.0000000000000000e+00  0.0000000000000000e+00  0.0000000000000000e+00  0.0000000000000000e+00  0.0000000000000000e+00  0.0000000000000000e+00  0.0000000000000000e+00  0.0000000000000000e+00  0.0000000000000000e+00  0.0000000000000000e+00  0.0000000000000000e+00  0.0000000000000000e+00  0.0000000000000000e+00  0.0000000000000000e+00  0.0000000000000000e+00  0.0000000000000000e+00  0.0000000000000000e+00  0.0000000000000000e+00  0.0000000000000000e+00  0.0000000000000000e+00  0.0000000000000000e+00  0.0000000000000000e+00  0.0000000000000000e+00  0.0000000000000000e+00  0.0000000000000000e+00  0.0000000000000000e+00  0.0000000000000000e+00  0.0000000000000000e+00  0.0000000000000000e+00  0.0000000000000000e+00  0.0000000000000000e+00  0.0000000000000000e+00  0.0000000000000000e+00  0.0000000000000000e+00  0.0000000000000000e+00  0.0000000000000000e+00  0.0000000000000000e+00  0.0000000000000000e+00  0.0000000000000000e+00  0.0000000000000000e+00  0.0000000000000000e+00  0.0000000000000000e+00  0.0000000000000000e+00  0.0000000000000000e+00  0.0000000000000000e+00  0.0000000000000000e+00  0.0000000000000000e+00  0.0000000000000000e+00  0.0000000000000000e+00  0.0000000000000000e+00  0.0000000000000000e+00  0.0000000000000000e+00  0.0000000000000000e+00  0.0000000000000000e+00  0.0000000000000000e+00  0.0000000000000000e+00  0.0000000000000000e+00  0.0000000000000000e+00  0.0000000000000000e+00  0.0000000000000000e+00  0.0000000000000000e+00  0.0000000000000000e+00  0.0000000000000000e+00  0.0000000000000000e+00  0.0000000000000000e+00  0.0000000000000000e+00  0.0000000000000000e+00  0.0000000000000000e+00  0.0000000000000000e+00  0.0000000000000000e+00  0.0000000000000000e+00  0.0000000000000000e+00  0.0000000000000000e+00  0.0000000000000000e+00  0.0000000000000000e+00  0.0000000000000000e+00  0.0000000000000000e+00  0.0000000000000000e+00  0.0000000000000000e+00  0.0000000000000000e+00  0.0000000000000000e+00  0.0000000000000000e+00  0.0000000000000000e+00  0.0000000000000000e+00  0.0000000000000000e+00  0.0000000000000000e+00  0.0000000000000000e+00  0.0000000000000000e+00  0.0000000000000000e+00  0.0000000000000000e+00  0.0000000000000000e+00  0.0000000000000000e+00  0.0000000000000000e+00  0.0000000000000000e+00  0.0000000000000000e+00  0.0000000000000000e+00  0.0000000000000000e+00  0.0000000000000000e+00  0.0000000000000000e+00  0.0000000000000000e+00  0.0000000000000000e+00  0.0000000000000000e+00  0.0000000000000000e+00  0.0000000000000000e+00  0.0000000000000000e+00  0.0000000000000000e+00  0.0000000000000000e+00  0.0000000000000000e+00  0.0000000000000000e+00  0.0000000000000000e+00  0.0000000000000000e+00  0.0000000000000000e+00  0.0000000000000000e+00  0.0000000000000000e+00  0.0000000000000000e+00  0.0000000000000000e+00  0.0000000000000000e+00  0.0000000000000000e+00  0.0000000000000000e+00  0.0000000000000000e+00  0.0000000000000000e+00  0.0000000000000000e+00  0.0000000000000000e+00  0.0000000000000000e+00  0.0000000000000000e+00  0.0000000000000000e+00  0.0000000000000000e+00  0.0000000000000000e+00  0.0000000000000000e+00  0.0000000000000000e+00  0.0000000000000000e+00  0.0000000000000000e+00  0.0000000000000000e+00  0.0000000000000000e+00  0.0000000000000000e+00  0.0000000000000000e+00  0.0000000000000000e+00  0.0000000000000000e+00  0.0000000000000000e+00  0.0000000000000000e+00  0.0000000000000000e+00  0.0000000000000000e+00  0.0000000000000000e+00  0.0000000000000000e+00  0.0000000000000000e+00  0.0000000000000000e+00  0.0000000000000000e+00  0.0000000000000000e+00  0.0000000000000000e+00  0.0000000000000000e+00  0.0000000000000000e+00  0.0000000000000000e+00  0.0000000000000000e+00  0.0000000000000000e+00  0.0000000000000000e+00  0.0000000000000000e+00  0.0000000000000000e+00  0.0000000000000000e+00  0.0000000000000000e+00  0.0000000000000000e+00  0.0000000000000000e+00  0.0000000000000000e+00  0.0000000000000000e+00  0.0000000000000000e+00  0.0000000000000000e+00  0.0000000000000000e+00  0.0000000000000000e+00  0.0000000000000000e+00  0.0000000000000000e+00  0.0000000000000000e+00  0.0000000000000000e+00  0.0000000000000000e+00  0.0000000000000000e+00  0.0000000000000000e+00  0.0000000000000000e+00  0.0000000000000000e+00  0.0000000000000000e+00  0.0000000000000000e+00  0.0000000000000000e+00  0.0000000000000000e+00  0.0000000000000000e+00  0.0000000000000000e+00  0.0000000000000000e+00  0.0000000000000000e+00  0.0000000000000000e+00  0.0000000000000000e+00  0.0000000000000000e+00  0.0000000000000000e+00  0.0000000000000000e+00  0.0000000000000000e+00  0.0000000000000000e+00  0.0000000000000000e+00  0.0000000000000000e+00  0.0000000000000000e+00  0.0000000000000000e+00  0.0000000000000000e+00  0.0000000000000000e+00  0.0000000000000000e+00  0.0000000000000000e+00  0.0000000000000000e+00  0.0000000000000000e+00  0.0000000000000000e+00  0.0000000000000000e+00  0.0000000000000000e+00  0.0000000000000000e+00  0.0000000000000000e+00  0.0000000000000000e+00  0.0000000000000000e+00  0.0000000000000000e+00  0.0000000000000000e+00  0.0000000000000000e+00  0.0000000000000000e+00  0.0000000000000000e+00  0.0000000000000000e+00  8.4571727363576252e-02  7.4292648991520258e-02  6.2199354764205753e-02  5.5992519731783583e-02  6.8821289870273153e-02  9.2756987393308787e-02  8.4718388883815582e-02  6.9063183727202784e-02  7.6889699192052297e-02  9.0114651028299173e-02  8.0572451632146311e-02  8.7815344230086953e-02  8.6489154602148344e-02  7.3887590351897528e-02  6.9411471024717064e-02  7.3073194119559495e-02  6.4522447810029526e-02  6.7913600358240692e-02  8.3756697986494419e-02  7.7019141793545881e-02  7.5466932297827430e-02  7.3877200561290518e-02  8.1062710160035925e-02  8.3569249903164528e-02  7.6814756751223123e-02  7.1953416766580666e-02  7.8711159523079430e-02  7.4103126364229110e-02  6.3295093586158799e-02  6.9534438724659586e-02  7.2071396838738019e-02  7.6513569631943307e-02  7.8817506718705826e-02  1.0191831040987080e-01  7.5065571612886198e-02  8.6214202809963308e-02  7.8811909738188315e-02  8.5931236001356881e-02  8.2782932808981441e-02  7.8039800361599895e-02  6.3349661800231050e-02  9.2890503519946904e-02  7.2759892631821976e-02  8.8240988060737116e-02  7.5329687272666465e-02  7.7274613774011278e-02  1.1356872187714821e-01  9.1599910818232572e-02  7.5841938145209828e-02  7.6223805698883568e-02  7.7099413872795008e-02  6.6620440278666163e-02  7.4979258187880427e-02  9.4315083270979691e-02  7.9802855315909180e-02  7.4610018556205762e-02  7.0551773364931930e-02  7.2749036137461420e-02  9.7674547916041535e-02  8.7047144482845798e-02  8.2237346982414958e-02  8.4414170165416233e-02  3.6121020493162255e-27  -1.3176881509468392e-27  -2.6372987206676298e-27  -2.9362109186582856e-27  -1.2753987620541241e-27  -5.3177683074934629e-28  -2.0321713776701989e-28  1.8085996432216492e-27  7.1906970326534640e-27  4.1261262617848836e-27  -7.0167486590233455e-25  -6.6245817422154361e-25  5.4015521023072656e-25  1.1894523729775469e-24  3.7092326418125506e-26  3.0577764749107533e-26  -4.7815601167749987e-26  -3.0032413639718472e-26  -1.1242594269590156e-22  -1.6505400898397801e-22  -4.3275471987477766e-26  -4.9234887680372595e-26  4.7612436144213592e-23  4.7758639290077124e-23  -4.7383712387524430e-27  -3.9751174503400408e-26  -7.5369922774387348e-21  -7.1236227100012616e-21  -4.5758827986470447e-21  -4.8274274643672642e-21  8.3203841396279402e-26  -2.6524828088163169e-26  7.1703380425025070e-30  -8.8439267039451836e-30  -9.0742309187261121e-30  1.6282534516372666e-29  1.9760009613854711e-28  3.9844661184758603e-28  2.8927818726921268e-28  3.1818359765422949e-28  3.5536295386478999e-20  6.3552517419876688e-26  1.2229399936538927e-26  3.8447621236271308e-20  -9.0965153523932727e-30  -9.9263728580979334e-30  -6.2620403815115153e-30  2.3186070304662819e-31  2.4329242491874642e-31  2.3940963468070187e-31  1.4562222657911103e-31  -9.9633768098756650e-30  -6.1356140544496724e-33  -2.3068998230432193e-32  1.1371219244088472e-31  -4.0599787567284964e-33  2.5154705157325244e-32  -6.0625813514993977e-33  1.3756195593110363e-31  -9.9017471008010650e-34  -1.2942975785057447e-33  -4.6819475376287484e-34  -1.9574402987770395e-34  1.4856513791060801e-34  1.3409178690733354e-34  7.7341126753749951e-35  7.3736266696766871e-36  -1.6096914996726828e-33  2.7758150599436452e-20  4.6290409831445976e-26  -1.3627055002527532e-26  1.3821898109076561e-20  1.1675464483903476e-25  -3.4725227609549512e-24  1.3394908224266789e-21  8.8430431550175334e-22  -3.2579685603289760e-24  2.7353050100603718e-26  7.8783474213661697e-26  -5.2874726984362611e-26  -3.8571033342047318e-26  -1.1547888823015951e-23  3.9597122069174598e-22  4.1482012507564417e-22  -1.1338401822360387e-23  -2.5510271367826670e-27  8.8213974100686370e-26  -4.0402710681366745e-27  5.5574153185296786e-27  -6.5555256329609173e-27  8.9115000825454215e-26  1.1270769152786847e-25  -4.0130481641316456e-27  -2.4127123489243500e-27  3.0464788838635312e-26  2.8830733665976372e-26  -1.5704724910286380e-28  -7.7610116329439373e-28  -1.2224731632885167e-27  2.0590620725387423e-28  6.3879395229364618e-28  6.7275896367409794e-29  -1.5133885944024513e-28  -9.2253202082946426e-28  1.2567465821769716e-35  1.8952177194808456e-35  7.5316861400473017e-36  -1.6946031514463334e-36  6.4699462481425636e-36  1.5368870557750780e-36  1.0557457792085238e-35  5.2340163866080673e-37  2.7877468672145507e-20  1.2036206704282346e-25  1.1446618936732064e-25  1.3760368117146498e-20  -1.7863078779411063e-27  4.4955680797129547e-27  4.7956979199317834e-27  -7.1561078268480052e-27  -1.1865850164595026e-26  -6.9860757268053593e-29  -8.1943324634717151e-27  -2.0294423278014610e-26  3.5252784637135163e-30  -1.1192086987184013e-28  -7.3961103868345484e-29  2.8341013100126689e-30  3.4754376501169619e-30  -9.6395380028707578e-29  -1.2779708324711791e-28  1.1569376893056489e-30  -3.7499941589349140e-33  3.6441403468249833e-34  1.2052979968713868e-30  -1.2997730416821425e-32  2.7360656514244743e-31  -1.5412841249746756e-32  -3.6562400092828565e-32  1.2126587701103537e-33  8.1374415637543173e-31  -1.3325624612268085e-32  -1.3655501182078455e-33  2.9198301665173346e-34  -4.4317818558083009e-32  1.2637524574832424e-33  5.2319058962358664e-31  -1.7094968324761824e-32  -3.7014101989078534e-36  -1.7453800302676715e-36  -2.9595980721982104e-36  -3.4662517222620979e-36  3.4840952352064213e-20  -1.2995853849795395e-19  -8.5771484788501867e-20  4.2076950709348990e-19  2.0515162742228781e-19  -1.2097206172403017e-18  -3.1622076782665667e-19  2.8705394168107821e-18  -2.7975272911041188e-19  -4.3099804211577325e-18  4.7474873575556324e-18  -4.6496828097683819e-18  -2.3363936322800074e-17  6.8991206878966792e-17  8.0970997125017353e-17  -3.3342387776370313e-16  -2.1158947076378203e-16  1.1328876291474397e-15  3.8162537942047748e-16  -2.8846907857575729e-15  -2.0353345522940232e-16  -4.7525366225696540e-15  4.9165520179608453e-15  -1.6200971559034816e-15  -1.5863603983113710e-15  7.3808899681250685e-15  -2.5145867269046851e-14  -1.5924052711171544e-14  9.9126087317276013e-14  9.7169949121002507e-15  -1.8521732255849818e-13  5.6053599637560357e-14  -3.7650738908678307e-13  2.9176678492314523e-14  -1.9703582258224379e-13  8.8654758112605984e-13  1.5536383313973563e-13  -2.2293419917923935e-12  7.7802393909687116e-13  -1.2244197933402189e-13  -2.4767513513076836e-12  1.3240152202793764e-11  -1.0637100907174010e-13  -2.1326472521640494e-11  -2.3720650496585341e-11  1.5576241927881019e-11  -4.0435933429767752e-11  -2.6197005220749768e-11  -3.0475890269927555e-13  1.7310817724926267e-11  -4.9867778447154796e-11  -2.3475125053999119e-11  -1.2717078800773473e-12  1.8382143505317345e-11  -2.7278775652333788e-12  -3.2804598576109622e-12  -1.3737044818632075e-11  1.8262692092079571e-11  -1.8308163790654893e-12  -6.7099889581891829e-12  1.4874961278835460e-12  3.6898641151193117e-13  1.1085112213669599e-11  -8.5790470979195053e-12  9.5890391594103088e-13  3.5615961132172943e-12  -1.4405374832631961e-11  2.2790836840653047e-12  -9.7888634914854923e-13  2.8368202517045188e-13  -4.9727538404483960e-12  2.1933221376062335e-12  -8.9153999614418148e-12  1.4121262510338585e-13  1.4211340915270870e-12  2.1923254810768998e-12  -3.5655707230211216e-12  2.5691765109311206e-11  -9.9231812315800812e-12  4.6010836891156961e-11  -1.3699267712143177e-11  5.3262950602270665e-11  3.2758507862482036e-12  -1.4243335048679329e-11  5.2221839659678901e-11  -1.3903438906591317e-11  5.2099239076604783e-11  -1.4170543068242284e-11  5.2926127034517535e-11  -1.3636866781080746e-11  4.6053972390721377e-11  -1.0050882246142455e-11  2.6443256866045807e-11  -3.7217388470909100e-12  1.9324678275063331e-12  3.2816509070292718e-12  -1.3958259445586002e-10  2.5667599110033028e+00  1.9658646437309933e-12  -1.3155862678413938e-11  3.9195785034029775e-12  -1.2890422856954612e-11  2.6267808324064266e+00  2.4092279212472777e-12  -4.4100904923111540e-12  2.5264607600970002e+00  1.7714127764100972e-13  1.8656505728964068e-12  1.7132109196837686e-12  -1.0303706835079835e-11  2.3502512779261332e-12  -4.7668022066661378e-12  -1.9087930512760548e-10  -3.2979911797522430e-13  1.8420626029726800e-13  2.4650662250559227e-12  1.3471387348075874e-12  -1.3791713904811424e-11  3.1900987396740762e-12  -6.8566816087829851e-12  4.4374807287398857e-11  5.1244480761466942e-12  1.7259675941864010e-12  -1.0570355378531802e-11  2.9625592791180795e-11  2.7853795268788071e-11  -3.0701315498670195e-12  -2.6887829792491463e-12  -2.9985341706427711e-11  2.4132482117088630e-11  -4.4953422119842850e-12  2.5561734771461964e-12  -4.7095511328542346e-11  1.4858126804465110e-11  -3.5626095001556881e-12  2.0491866117646507e-12  -3.4326599101692978e-11  1.3013919581897465e-11  -1.6572430361800859e-11  -2.7054753876607472e-11  7.5561165238542328e-13  1.4722749668707792e-11  -2.5692176965162274e-11  -3.4307155719174071e-11  1.0561148900198801e-12  1.9258227652704757e-11  -3.8104911040072462e-11  -4.0370934642149093e-11  3.3822174944385255e-10  -1.0485344712261107e-10  3.4674557136606411e-11  2.7917431574622157e-10  -1.0159432070059214e-11  -1.5824805454128243e-10  7.0789448126218624e-10  -9.7374682679660431e-11  -3.1623776400284365e-10  3.3496718731837649e-10  -1.7630190537001239e-09  3.1758703405253803e-10  5.2656818538405991e-10  -9.3928956863341379e-10  5.5422610579099836e-11  4.6163922359595617e-10  -2.0805681928024627e-09  4.1346880528900504e-10  4.8363347962217894e-11  -7.7768815631252985e-10  6.2574025635272058e-09  -2.5230096913868916e-09  1.1102260138867729e-08  -2.6965876821442243e-09  6.0760791800612668e-09  3.0401404910052992e-10  -1.0068817045432149e-08  5.1679017788775945e-09  -2.7534771317219359e-08  8.9690712983915030e-09  -3.7318204722933643e-08  1.0594683555280533e-08  -4.0077990298474644e-08  1.0586073354544916e-08  -3.7174733027721825e-08  8.7248311121867108e-09  -2.6310882345330577e-08  5.0685664129833687e-09  -1.1416172619449888e-08  -1.8825318094037911e-09  -8.3021164985880604e-10  3.6490838528859869e-10  9.5299130705501180e-11  -6.0274812798952003e-11  2.9172364877257425e-12  6.9893040661558904e-12  -6.6547260387125426e-12  1.9364390704628966e-13  2.8335947000290383e-12  -1.2437677223397042e-11  -4.7751687697853099e-13  4.5644463437936654e-10  3.2651062469190037e-12  -1.0225753316482991e-11  1.8589517037009891e-12  -3.3190775526699349e-12  1.0211861718865427e-13  1.5019759433211609e-12  -5.0334254035718483e-13  1.3507407