<?xml version="1.0"?>
<VTKFile type="UnstructuredGrid"  version="0.1"  >
<UnstructuredGrid>
<Piece  NumberOfPoints="11902" NumberOfCells="23402">
<Points>
<DataArray  type="Float64"  NumberOfComponents="3"  format="ascii">-5 -5 0  5 -5 0  5 5 0  -5 5 0  1.265520999060144 0.001280979602026407 0  -4.9 -5 0  -4.8 -5 0  -4.7 -5 0  -4.6 -5 0  -4.5 -5 0  -4.4 -5 0  -4.3 -5 0  -4.2 -5 0  -4.1 -5 0  -4 -5 0  -3.9 -5 0  -3.8 -5 0  -3.7 -5 0  -3.6 -5 0  -3.5 -5 0  -3.4 -5 0  -3.3 -5 0  -3.2 -5 0  -3.1 -5 0  -3 -5 0  -2.9 -5 0  -2.8 -5 0  -2.7 -5 0  -2.6 -5 0  -2.5 -5 0  -2.4 -5 0  -2.3 -5 0  -2.2 -5 0  -2.1 -5 0  -2 -5 0  -1.9 -5 0  -1.8 -5 0  -1.7 -5 0  -1.6 -5 0  -1.5 -5 0  -1.4 -5 0  -1.3 -5 0  -1.2 -5 0  -1.1 -5 0  -1 -5 0  -0.9000000000000004 -5 0  -0.7999999999999998 -5 0  -0.7000000000000002 -5 0  -0.5999999999999996 -5 0  -0.5 -5 0  -0.4000000000000004 -5 0  -0.2999999999999998 -5 0  -0.2000000000000002 -5 0  -0.09999999999999964 -5 0  0 -5 0  0.09999999999999964 -5 0  0.2000000000000002 -5 0  0.2999999999999998 -5 0  0.4000000000000004 -5 0  0.5 -5 0  0.5999999999999996 -5 0  0.7000000000000002 -5 0  0.7999999999999998 -5 0  0.9000000000000004 -5 0  1 -5 0  1.1 -5 0  1.2 -5 0  1.3 -5 0  1.4 -5 0  1.5 -5 0  1.6 -5 0  1.7 -5 0  1.8 -5 0  1.9 -5 0  2 -5 0  2.1 -5 0  2.2 -5 0  2.3 -5 0  2.4 -5 0  2.5 -5 0  2.6 -5 0  2.7 -5 0  2.8 -5 0  2.9 -5 0  3 -5 0  3.1 -5 0  3.199999999999999 -5 0  3.300000000000001 -5 0  3.4 -5 0  3.5 -5 0  3.6 -5 0  3.699999999999999 -5 0  3.800000000000001 -5 0  3.9 -5 0  4 -5 0  4.1 -5 0  4.199999999999999 -5 0  4.300000000000001 -5 0  4.4 -5 0  4.5 -5 0  4.6 -5 0  4.699999999999999 -5 0  4.800000000000001 -5 0  4.9 -5 0  5 -4.9 0  5 -4.8 0  5 -4.7 0  5 -4.6 0  5 -4.5 0  5 -4.4 0  5 -4.3 0  5 -4.2 0  5 -4.1 0  5 -4 0  5 -3.9 0  5 -3.8 0  5 -3.7 0  5 -3.6 0  5 -3.5 0  5 -3.4 0  5 -3.3 0  5 -3.2 0  5 -3.1 0  5 -3 0  5 -2.9 0  5 -2.8 0  5 -2.7 0  5 -2.6 0  5 -2.5 0  5 -2.4 0  5 -2.3 0  5 -2.2 0  5 -2.1 0  5 -2 0  5 -1.9 0  5 -1.8 0  5 -1.7 0  5 -1.6 0  5 -1.5 0  5 -1.4 0  5 -1.3 0  5 -1.2 0  5 -1.1 0  5 -1 0  5 -0.9000000000000004 0  5 -0.7999999999999998 0  5 -0.7000000000000002 0  5 -0.5999999999999996 0  5 -0.5 0  5 -0.4000000000000004 0  5 -0.2999999999999998 0  5 -0.2000000000000002 0  5 -0.09999999999999964 0  5 0 0  5 0.09999999999999964 0  5 0.2000000000000002 0  5 0.2999999999999998 0  5 0.4000000000000004 0  5 0.5 0  5 0.5999999999999996 0  5 0.7000000000000002 0  5 0.7999999999999998 0  5 0.9000000000000004 0  5 1 0  5 1.1 0  5 1.2 0  5 1.3 0  5 1.4 0  5 1.5 0  5 1.6 0  5 1.7 0  5 1.8 0  5 1.9 0  5 2 0  5 2.1 0  5 2.2 0  5 2.3 0  5 2.4 0  5 2.5 0  5 2.6 0  5 2.7 0  5 2.8 0  5 2.9 0  5 3 0  5 3.1 0  5 3.199999999999999 0  5 3.300000000000001 0  5 3.4 0  5 3.5 0  5 3.6 0  5 3.699999999999999 0  5 3.800000000000001 0  5 3.9 0  5 4 0  5 4.1 0  5 4.199999999999999 0  5 4.300000000000001 0  5 4.4 0  5 4.5 0  5 4.6 0  5 4.699999999999999 0  5 4.800000000000001 0  5 4.9 0  4.9 5 0  4.8 5 0  4.7 5 0  4.6 5 0  4.5 5 0  4.4 5 0  4.3 5 0  4.2 5 0  4.1 5 0  4 5 0  3.9 5 0  3.8 5 0  3.7 5 0  3.6 5 0  3.5 5 0  3.4 5 0  3.3 5 0  3.2 5 0  3.1 5 0  3 5 0  2.9 5 0  2.8 5 0  2.7 5 0  2.6 5 0  2.5 5 0  2.4 5 0  2.3 5 0  2.2 5 0  2.1 5 0  2 5 0  1.9 5 0  1.8 5 0  1.7 5 0  1.6 5 0  1.5 5 0  1.4 5 0  1.3 5 0  1.2 5 0  1.1 5 0  1 5 0  0.9000000000000004 5 0  0.7999999999999998 5 0  0.7000000000000002 5 0  0.5999999999999996 5 0  0.5 5 0  0.4000000000000004 5 0  0.2999999999999998 5 0  0.2000000000000002 5 0  0.09999999999999964 5 0  0 5 0  -0.09999999999999964 5 0  -0.2000000000000002 5 0  -0.2999999999999998 5 0  -0.4000000000000004 5 0  -0.5 5 0  -0.5999999999999996 5 0  -0.7000000000000002 5 0  -0.7999999999999998 5 0  -0.9000000000000004 5 0  -1 5 0  -1.1 5 0  -1.2 5 0  -1.3 5 0  -1.4 5 0  -1.5 5 0  -1.6 5 0  -1.7 5 0  -1.8 5 0  -1.9 5 0  -2 5 0  -2.1 5 0  -2.2 5 0  -2.3 5 0  -2.4 5 0  -2.5 5 0  -2.6 5 0  -2.7 5 0  -2.8 5 0  -2.9 5 0  -3 5 0  -3.1 5 0  -3.199999999999999 5 0  -3.300000000000001 5 0  -3.4 5 0  -3.5 5 0  -3.6 5 0  -3.699999999999999 5 0  -3.800000000000001 5 0  -3.9 5 0  -4 5 0  -4.1 5 0  -4.199999999999999 5 0  -4.300000000000001 5 0  -4.4 5 0  -4.5 5 0  -4.6 5 0  -4.699999999999999 5 0  -4.800000000000001 5 0  -4.9 5 0  -5 4.9 0  -5 4.8 0  -5 4.7 0  -5 4.6 0  -5 4.5 0  -5 4.4 0  -5 4.3 0  -5 4.2 0  -5 4.1 0  -5 4 0  -5 3.9 0  -5 3.8 0  -5 3.7 0  -5 3.6 0  -5 3.5 0  -5 3.4 0  -5 3.3 0  -5 3.2 0  -5 3.1 0  -5 3 0  -5 2.9 0  -5 2.8 0  -5 2.7 0  -5 2.6 0  -5 2.5 0  -5 2.4 0  -5 2.3 0  -5 2.2 0  -5 2.1 0  -5 2 0  -5 1.9 0  -5 1.8 0  -5 1.7 0  -5 1.6 0  -5 1.5 0  -5 1.4 0  -5 1.3 0  -5 1.2 0  -5 1.1 0  -5 1 0  -5 0.9000000000000004 0  -5 0.7999999999999998 0  -5 0.7000000000000002 0  -5 0.5999999999999996 0  -5 0.5 0  -5 0.4000000000000004 0  -5 0.2999999999999998 0  -5 0.2000000000000002 0  -5 0.09999999999999964 0  -5 0 0  -5 -0.09999999999999964 0  -5 -0.2000000000000002 0  -5 -0.2999999999999998 0  -5 -0.4000000000000004 0  -5 -0.5 0  -5 -0.5999999999999996 0  -5 -0.7000000000000002 0  -5 -0.7999999999999998 0  -5 -0.9000000000000004 0  -5 -1 0  -5 -1.1 0  -5 -1.2 0  -5 -1.3 0  -5 -1.4 0  -5 -1.5 0  -5 -1.6 0  -5 -1.7 0  -5 -1.8 0  -5 -1.9 0  -5 -2 0  -5 -2.1 0  -5 -2.2 0  -5 -2.3 0  -5 -2.4 0  -5 -2.5 0  -5 -2.6 0  -5 -2.7 0  -5 -2.8 0  -5 -2.9 0  -5 -3 0  -5 -3.1 0  -5 -3.199999999999999 0  -5 -3.300000000000001 0  -5 -3.4 0  -5 -3.5 0  -5 -3.6 0  -5 -3.699999999999999 0  -5 -3.800000000000001 0  -5 -3.9 0  -5 -4 0  -5 -4.1 0  -5 -4.199999999999999 0  -5 -4.300000000000001 0  -5 -4.4 0  -5 -4.5 0  -5 -4.6 0  -5 -4.699999999999999 0  -5 -4.800000000000001 0  -5 -4.9 0  1.257812371809875 0.0916116018709305 0  1.23568786473196 0.1891073368055549 0  1.201509461641467 0.2862219090093562 0  1.158840050836951 0.3751826205102055 0  1.099905811300245 0.4664399732085701 0  1.03266276618057 0.5494817232586675 0  0.9544566740758539 0.6301797787077043 0  0.8674219269215844 0.7048218956776114 0  0.7756020529441662 0.769699369694344 0  0.6743496276090188 0.8272201650125398 0  0.5602704553806538 0.8795088801107784 0  0.4458626079014926 0.924634927522872 0  0.3366804427173349 0.955851997265875 0  0.2087903379680278 0.9793134955858085 0  0.08646420832699185 0.9970235184093046 0  -0.0259212609513933 1.000710711175536 0  -0.143554409968267 0.9874922521121641 0  -0.2752284042401022 0.9669786161835653 0  -0.3961276519377306 0.942472742671989 0  -0.5046259431805498 0.9080239675475915 0  -0.6135644864288596 0.8617472481935737 0  -0.7154221011577501 0.8063105726008135 0  -0.8095031635248792 0.7424768033081113 0  -0.9012069541177194 0.668857142813749 0  -0.9880525213358156 0.588335751130227 0  -1.062931558903701 0.5062239412679301 0  -1.125547467436659 0.4223863824967733 0  -1.182244022698522 0.3267638406490152 0  -1.219115192829716 0.2412401849017973 0  -1.243145751708391 0.1481934988829552 0  -1.25306106880634 0.05309257681623179 0  -1.25297324713469 -0.05080990767960775 0  -1.242892968437393 -0.145164618831561 0  -1.218756386240073 -0.2345301144148391 0  -1.176059277682502 -0.3306050875677464 0  -1.125837464435003 -0.4236284710121722 0  -1.06550533230524 -0.5057779162714013 0  -0.9907126002320827 -0.5873305322170893 0  -0.904464641521962 -0.6667758216971992 0  -0.8139800319300164 -0.7374434679353894 0  -0.7191797969914918 -0.7976542232164573 0  -0.6149854089544302 -0.8513047748530184 0  -0.4978296109244862 -0.9011666431631654 0  -0.3858587325521212 -0.9409215612736159 0  -0.2719486279374673 -0.9668348908482896 0  -0.1416395682856233 -0.9876255728975019 0  -0.02740763359676661 -0.9999089905085473 0  0.08412823723434915 -0.9926189507186668 0  0.2161631676904053 -0.97450762170355 0  0.3400088050535154 -0.9537497227377493 0  0.4502386336570884 -0.923252353317504 0  0.5633194489465623 -0.8786555264435681 0  0.6758045749013218 -0.8269285987882472 0  0.7751051912456007 -0.7710651974419259 0  0.8655974686615152 -0.7071288747877236 0  0.9506843926901557 -0.6316269268461312 0  1.030473660588457 -0.5476703600058453 0  1.102311868070341 -0.4638634957254053 0  1.15990477957287 -0.3751225828647188 0  1.203420911419681 -0.2843040898439963 0  1.236441614919342 -0.1886430164468678 0  1.258214207705875 -0.09199205142315896 0  -2.448501662858541 4.918008979271904 0  -2.448370011947996 -4.910377426764642 0  4.910296725078502 2.447811500724025 0  4.918434601989826 -2.449281000093504 0  2.446089286580892 -4.895588962324013 0  2.440525032896758 4.899355770173395 0  -4.910323972087303 -2.4478388872736 0  -4.910321294883818 2.44784316946002 0  -1.748453378896396 4.910849253259593 0  -1.744242049539654 -4.914296554375075 0  4.920441063677492 1.743994316495018 0  4.90894751258086 -1.747744937810432 0  -4.909242547990471 -1.747480067202604 0  -4.910066763786492 1.747226225506118 0  1.745721306017824 4.90469297142668 0  1.747126698175985 -4.892815880453917 0  -1.148776998229807 4.908596442159888 0  -1.129639157006372 -4.916530629864086 0  -4.908908224794977 -1.147823839045418 0  -4.908726002164017 1.147624723816719 0  1.143774999015011 -4.912705578859077 0  1.148786038628594 4.90858224092176 0  4.909047567874786 1.146098285674004 0  4.919913563662051 -1.151892971777038 0  -0.5466347714932144 -4.909766173447338 0  -0.546421579846719 4.918475536198001 0  -4.90759906342039 -0.5486506626927243 0  -4.907623056535343 0.5472092159073678 0  4.906914752856316 -0.5489685267982787 0  4.918614302460083 0.5457329262593642 0  0.5424137063723181 -4.896604988946277 0  0.551147881009631 4.915288610731311 0  -4.911793034869922 -3.048211325900168 0  4.918371186085731 3.046232739162829 0  4.91130024008292 -3.048186013448755 0  -4.91264162160987 3.045303846319074 0  3.055234554322024 -4.917292796494085 0  -3.048560159002544 -4.911221827567262 0  3.052129085655254 4.91330140124527 0  -3.048006592096001 4.912112715778856 0  -4.906691593048052 -0.04990184680286407 0  0.0451176003339661 -4.911714074483183 0  0.04956414533539696 4.91876224832331 0  4.913772522060089 -0.05128482079125015 0  3.545567105358327 -4.91896415391147 0  -3.548843046835172 4.911859333887
[...]
<PointData  Scalars="f_30"> 
<DataArray  type="Float64"  Name="f_30"  format="ascii">0.0000000000000000e+00  0.0000000000000000e+00  0.0000000000000000e+00  0.0000000000000000e+00  2.9618491250525774e-02  0.0000000000000000e+00  0.0000000000000000e+00  0.0000000000000000e+00  0.0000000000000000e+00  0.0000000000000000e+00  0.0000000000000000e+00  0.0000000000000000e+00  0.0000000000000000e+00  0.0000000000000000e+00  0.0000000000000000e+00  0.0000000000000000e+00  0.0000000000000000e+00  0.0000000000000000e+00  0.0000000000000000e+00  0.0000000000000000e+00  0.0000000000000000e+00  0.0000000000000000e+00  0.0000000000000000e+00  0.0000000000000000e+00  0.0000000000000000e+00  0.0000000000000000e+00  0.0000000000000000e+00  0.0000000000000000e+00  0.0000000000000000e+00  0.0000000000000000e+00  0.0000000000000000e+00  0.0000000000000000e+00  0.0000000000000000e+00  0.0000000000000000e+00  0.0000000000000000e+00  0.0000000000000000e+00  0.0000000000000000e+00  0.0000000000000000e+00  0.0000000000000000e+00  0.0000000000000000e+00  0.0000000000000000e+00  0.0000000000000000e+00  0.0000000000000000e+00  0.0000000000000000e+00  0.0000000000000000e+00  0.0000000000000000e+00  0.0000000000000000e+00  0.0000000000000000e+00  0.0000000000000000e+00  0.0000000000000000e+00  0.0000000000000000e+00  0.0000000000000000e+00  0.0000000000000000e+00  0.0000000000000000e+00  0.0000000000000000e+00  0.0000000000000000e+00  0.0000000000000000e+00  0.0000000000000000e+00  0.0000000000000000e+00  0.0000000000000000e+00  0.0000000000000000e+00  0.0000000000000000e+00  0.0000000000000000e+00  0.0000000000000000e+00  0.0000000000000000e+00  0.0000000000000000e+00  0.0000000000000000e+00  0.0000000000000000e+00  0.0000000000000000e+00  0.0000000000000000e+00  0.0000000000000000e+00  0.0000000000000000e+00  0.0000000000000000e+00  0.0000000000000000e+00  0.0000000000000000e+00  0.0000000000000000e+00  0.0000000000000000e+00  0.0000000000000000e+00  0.0000000000000000e+00  0.0000000000000000e+00  0.0000000000000000e+00  0.0000000000000000e+00  0.0000000000000000e+00  0.0000000000000000e+00  0.0000000000000000e+00  0.0000000000000000e+00  0.0000000000000000e+00  0.0000000000000000e+00  0.0000000000000000e+00  0.0000000000000000e+00  0.0000000000000000e+00  0.0000000000000000e+00  0.0000000000000000e+00  0.0000000000000000e+00  0.0000000000000000e+00  0.0000000000000000e+00  0.0000000000000000e+00  0.0000000000000000e+00  0.0000000000000000e+00  0.0000000000000000e+00  0.0000000000000000e+00  0.0000000000000000e+00  0.0000000000000000e+00  0.0000000000000000e+00  0.0000000000000000e+00  0.0000000000000000e+00  0.0000000000000000e+00  0.0000000000000000e+00  0.0000000000000000e+00  0.0000000000000000e+00  0.0000000000000000e+00  0.0000000000000000e+00  0.0000000000000000e+00  0.0000000000000000e+00  0.0000000000000000e+00  0.0000000000000000e+00  0.0000000000000000e+00  0.0000000000000000e+00  0.0000000000000000e+00  0.0000000000000000e+00  0.0000000000000000e+00  0.0000000000000000e+00  0.0000000000000000e+00  0.0000000000000000e+00  0.0000000000000000e+00  0.0000000000000000e+00  0.0000000000000000e+00  0.0000000000000000e+00  0.0000000000000000e+00  0.0000000000000000e+00  0.0000000000000000e+00  0.0000000000000000e+00  0.0000000000000000e+00  0.0000000000000000e+00  0.0000000000000000e+00  0.0000000000000000e+00  0.0000000000000000e+00  0.0000000000000000e+00  0.0000000000000000e+00  0.0000000000000000e+00  0.0000000000000000e+00  0.0000000000000000e+00  0.0000000000000000e+00  0.0000000000000000e+00  0.0000000000000000e+00  0.0000000000000000e+00  0.0000000000000000e+00  0.0000000000000000e+00  0.0000000000000000e+00  0.0000000000000000e+00  0.0000000000000000e+00  0.0000000000000000e+00  0.0000000000000000e+00  0.0000000000000000e+00  0.0000000000000000e+00  0.0000000000000000e+00  0.0000000000000000e+00  0.0000000000000000e+00  0.0000000000000000e+00  0.0000000000000000e+00  0.0000000000000000e+00  0.0000000000000000e+00  0.0000000000000000e+00  0.0000000000000000e+00  0.0000000000000000e+00  0.0000000000000000e+00  0.0000000000000000e+00  0.0000000000000000e+00  0.0000000000000000e+00  0.0000000000000000e+00  0.0000000000000000e+00  0.0000000000000000e+00  0.0000000000000000e+00  0.0000000000000000e+00  0.0000000000000000e+00  0.0000000000000000e+00  0.0000000000000000e+00  0.0000000000000000e+00  0.0000000000000000e+00  0.0000000000000000e+00  0.0000000000000000e+00  0.0000000000000000e+00  0.0000000000000000e+00  0.0000000000000000e+00  0.0000000000000000e+00  0.0000000000000000e+00  0.0000000000000000e+00  0.0000000000000000e+00  0.0000000000000000e+00  0.0000000000000000e+00  0.0000000000000000e+00  0.0000000000000000e+00  0.0000000000000000e+00  0.0000000000000000e+00  0.0000000000000000e+00  0.0000000000000000e+00  0.0000000000000000e+00  0.0000000000000000e+00  0.0000000000000000e+00  0.0000000000000000e+00  0.0000000000000000e+00  0.0000000000000000e+00  0.0000000000000000e+00  0.0000000000000000e+00  0.0000000000000000e+00  0.0000000000000000e+00  0.0000000000000000e+00  0.0000000000000000e+00  0.0000000000000000e+00  0.0000000000000000e+00  0.0000000000000000e+00  0.0000000000000000e+00  0.0000000000000000e+00  0.0000000000000000e+00  0.0000000000000000e+00  0.0000000000000000e+00  0.0000000000000000e+00  0.0000000000000000e+00  0.0000000000000000e+00  0.0000000000000000e+00  0.0000000000000000e+00  0.0000000000000000e+00  0.0000000000000000e+00  0.0000000000000000e+00  0.0000000000000000e+00  0.0000000000000000e+00  0.0000000000000000e+00  0.0000000000000000e+00  0.0000000000000000e+00  0.0000000000000000e+00  0.0000000000000000e+00  0.0000000000000000e+00  0.0000000000000000e+00  0.0000000000000000e+00  0.0000000000000000e+00  0.0000000000000000e+00  0.0000000000000000e+00  0.0000000000000000e+00  0.0000000000000000e+00  0.0000000000000000e+00  0.0000000000000000e+00  0.0000000000000000e+00  0.0000000000000000e+00  0.0000000000000000e+00  0.0000000000000000e+00  0.0000000000000000e+00  0.0000000000000000e+00  0.0000000000000000e+00  0.0000000000000000e+00  0.0000000000000000e+00  0.0000000000000000e+00  0.0000000000000000e+00  0.0000000000000000e+00  0.0000000000000000e+00  0.0000000000000000e+00  0.0000000000000000e+00  0.0000000000000000e+00  0.0000000000000000e+00  0.0000000000000000e+00  0.0000000000000000e+00  0.0000000000000000e+00  0.0000000000000000e+00  0.0000000000000000e+00  0.0000000000000000e+00  0.0000000000000000e+00  0.0000000000000000e+00  0.0000000000000000e+00  0.0000000000000000e+00  0.0000000000000000e+00  0.0000000000000000e+00  0.0000000000000000e+00  0.0000000000000000e+00  0.0000000000000000e+00  0.0000000000000000e+00  0.0000000000000000e+00  0.0000000000000000e+00  0.0000000000000000e+00  0.0000000000000000e+00  0.0000000000000000e+00  0.0000000000000000e+00  0.0000000000000000e+00  0.0000000000000000e+00  0.0000000000000000e+00  0.0000000000000000e+00  0.0000000000000000e+00  0.0000000000000000e+00  0.0000000000000000e+00  0.0000000000000000e+00  0.0000000000000000e+00  0.0000000000000000e+00  0.0000000000000000e+00  0.0000000000000000e+00  0.0000000000000000e+00  0.0000000000000000e+00  0.0000000000000000e+00  0.0000000000000000e+00  0.0000000000000000e+00  0.0000000000000000e+00  0.0000000000000000e+00  0.0000000000000000e+00  0.0000000000000000e+00  0.0000000000000000e+00  0.0000000000000000e+00  0.0000000000000000e+00  0.0000000000000000e+00  0.0000000000000000e+00  0.0000000000000000e+00  0.0000000000000000e+00  0.0000000000000000e+00  0.0000000000000000e+00  0.0000000000000000e+00  0.0000000000000000e+00  0.0000000000000000e+00  0.0000000000000000e+00  0.0000000000000000e+00  0.0000000000000000e+00  0.0000000000000000e+00  0.0000000000000000e+00  0.0000000000000000e+00  0.0000000000000000e+00  0.0000000000000000e+00  0.0000000000000000e+00  0.0000000000000000e+00  0.0000000000000000e+00  0.0000000000000000e+00  0.0000000000000000e+00  0.0000000000000000e+00  0.0000000000000000e+00  0.0000000000000000e+00  0.0000000000000000e+00  0.0000000000000000e+00  0.0000000000000000e+00  0.0000000000000000e+00  0.0000000000000000e+00  0.0000000000000000e+00  0.0000000000000000e+00  0.0000000000000000e+00  0.0000000000000000e+00  0.0000000000000000e+00  0.0000000000000000e+00  0.0000000000000000e+00  0.0000000000000000e+00  0.0000000000000000e+00  0.0000000000000000e+00  0.0000000000000000e+00  0.0000000000000000e+00  0.0000000000000000e+00  0.0000000000000000e+00  0.0000000000000000e+00  0.0000000000000000e+00  0.0000000000000000e+00  0.0000000000000000e+00  0.0000000000000000e+00  0.0000000000000000e+00  0.0000000000000000e+00  0.0000000000000000e+00  0.0000000000000000e+00  0.0000000000000000e+00  0.0000000000000000e+00  0.0000000000000000e+00  0.0000000000000000e+00  0.0000000000000000e+00  0.0000000000000000e+00  0.0000000000000000e+00  0.0000000000000000e+00  0.0000000000000000e+00  0.0000000000000000e+00  0.0000000000000000e+00  0.0000000000000000e+00  0.0000000000000000e+00  0.0000000000000000e+00  0.0000000000000000e+00  0.0000000000000000e+00  0.0000000000000000e+00  0.0000000000000000e+00  0.0000000000000000e+00  0.0000000000000000e+00  0.0000000000000000e+00  0.0000000000000000e+00  0.0000000000000000e+00  0.0000000000000000e+00  0.0000000000000000e+00  0.0000000000000000e+00  0.0000000000000000e+00  0.0000000000000000e+00  0.0000000000000000e+00  0.0000000000000000e+00  0.0000000000000000e+00  0.0000000000000000e+00  0.0000000000000000e+00  0.0000000000000000e+00  0.0000000000000000e+00  0.0000000000000000e+00  0.0000000000000000e+00  0.0000000000000000e+00  0.0000000000000000e+00  0.0000000000000000e+00  0.0000000000000000e+00  0.0000000000000000e+00  0.0000000000000000e+00  0.0000000000000000e+00  3.0773463595575184e-02  2.4644434727012655e-02  1.8546949500347507e-02  2.1255802812764152e-02  2.2960732548349343e-02  2.5017181638981346e-02  2.7729516544669507e-02  2.0215350103786323e-02  2.4299531747166623e-02  2.7546409188431750e-02  1.7036296976822064e-02  3.0320986551309784e-02  3.8151441581477881e-02  9.8062808265330526e-03  2.9442194540486390e-02  3.4238386680921183e-02  9.8603685259646186e-03  1.5430782235795786e-02  3.0625487800607552e-02  2.7155785985719487e-02  2.9809836747560332e-02  2.5836734135589644e-02  2.3818044172338723e-02  2.2691147589296003e-02  1.8818342691698239e-02  1.9757665278987126e-02  2.2322280880860832e-02  2.2812380700079769e-02  2.6634959797950438e-02  2.3171624269353194e-02  1.9769387270153607e-02  2.1364888710755918e-02  1.8620594543705633e-02  2.7306964332027485e-02  1.6558048303323990e-02  2.8399762957960289e-02  2.3252198811474879e-02  2.1117724294665661e-02  2.6270044749288405e-02  2.6744322053199182e-02  1.6125992635618154e-02  2.2856136548124410e-02  1.5966137404963738e-02  3.8495520590533322e-02  2.2553601397148307e-02  1.3359674630933701e-02  5.7488186996962863e-02  2.7312121081411414e-02  7.7719197832654841e-03  3.2958034539882289e-02  3.0808959027408243e-02  1.6278749425270092e-02  2.7662953917152219e-02  3.4409930946585753e-02  3.0262322835745207e-02  1.9973243256919262e-02  1.1818885475070222e-02  2.7803168161376141e-02  3.6000919027395821e-02  2.7082825124535734e-02  2.3215598977066071e-02  2.8643191092476424e-02  3.6120482419253873e-27  -1.3176446483396758e-27  -2.6372986238470812e-27  -2.9362107337117556e-27  -1.2753400077891974e-27  -5.3165932813666648e-28  -2.0321713154023770e-28  1.8085996424253619e-27  7.1905324230937762e-27  4.1261047650195978e-27  -7.0167484391091780e-25  -6.6245813626536991e-25  5.4015522930107236e-25  1.1894523967058345e-24  3.7093469374984410e-26  3.0578375861235599e-26  -4.7817355246792858e-26  -3.0032641797628828e-26  -1.1242594562733146e-22  -1.6505401299098689e-22  -4.3276114263512691e-26  -4.9235538273851796e-26  4.7612434427210794e-23  4.7758636758832805e-23  -4.7392217271063035e-27  -3.9752170912075552e-26  -7.5369923246178419e-21  -7.1236227145952982e-21  -4.5758828065685947e-21  -4.8274275361687357e-21  8.3206778945808265e-26  -2.6525683738455568e-26  7.1703364707823554e-30  -8.8439255615939895e-30  -9.0742299695335781e-30  1.6282533003427277e-29  1.9760131882616321e-28  3.9844732263707297e-28  2.8927918421349337e-28  3.1818419510522399e-28  3.5536294991297969e-20  6.3555796350498917e-26  1.2229151784564116e-26  3.8447621789518734e-20  -9.0965122498147822e-30  -9.9263711903370478e-30  -6.2620363801198261e-30  2.3186068983820287e-31  2.4329242343373084e-31  2.3940961906578094e-31  1.4562222881544638e-31  -9.9633774588611598e-30  -6.1356137265924982e-33  -2.3069040743717888e-32  1.1371218795269138e-31  -4.0599791764370621e-33  2.5154657647470775e-32  -6.0625809343642277e-33  1.3756192812257786e-31  -9.9017527783579168e-34  -1.2942977205304168e-33  -4.6819490112238124e-34  -1.9574415088891203e-34  1.4856513227434580e-34  1.3409178434994101e-34  7.7341140704169619e-35  7.3736449582617178e-36  -1.6096916300574389e-33  2.7758151102297675e-20  4.6291719183343174e-26  -1.3627617110929086e-26  1.3821898607763521e-20  1.1675544240483381e-25  -3.4725221586760274e-24  1.3394908258748326e-21  8.8430431905739598e-22  -3.2579679039205816e-24  2.7353656883358035e-26  7.8782460998803690e-26  -5.2877824376431169e-26  -3.8571603647758018e-26  -1.1547888999923332e-23  3.9597123427160187e-22  4.1482014484020080e-22  -1.1338401963463481e-23  -2.5503988920869662e-27  8.8214537638531381e-26  -4.0401681637458645e-27  5.5568479118163675e-27  -6.5560517602200837e-27  8.9114994612046288e-26  1.1270768572920672e-25  -4.0131669831542020e-27  -2.4128223321202282e-27  3.0464792166801505e-26  2.8830737170067146e-26  -1.5704723415931951e-28  -7.7610590458507916e-28  -1.2224601720783712e-27  2.0590619419046637e-28  6.3879530889143889e-28  6.7275882742561642e-29  -1.5133884612213675e-28  -9.2252201297137678e-28  1.2567466421755645e-35  1.8952179879363164e-35  7.5316855959563917e-36  -1.6946037944077647e-36  6.4699458850273652e-36  1.5368866384088248e-36  1.0557458802136272e-35  5.2340243041347392e-37  2.7877468768931624e-20  1.2036753050366639e-25  1.1446737850814279e-25  1.3760368738424722e-20  -1.7862906274530492e-27  4.4955673775031060e-27  4.7956970400600682e-27  -7.1561496902265602e-27  -1.1865849357324824e-26  -6.9819217302168774e-29  -8.1942403516893566e-27  -2.0294422556253401e-26  3.5252782480497730e-30  -1.1192112214034125e-28  -7.3961222156375896e-29  2.8341012854732749e-30  3.4754374879544640e-30  -9.6395371565059264e-29  -1.2779726950452776e-28  1.1569377030136710e-30  -3.7499933318517640e-33  3.6441397481719908e-34  1.2052974975618104e-30  -1.2997731641879477e-32  2.7360646468148366e-31  -1.5412842506948139e-32  -3.6562396444959589e-32  1.2126587237886723e-33  8.1374392998030326e-31  -1.3325626072830116e-32  -1.3655503836698733e-33  2.9198296810430851e-34  -4.4317815041175058e-32  1.2637524258191535e-33  5.2319041600087034e-31  -1.7094969313746963e-32  -3.7014104242924414e-36  -1.7453799014344295e-36  -2.9595981757538189e-36  -3.4662520693885832e-36  3.4840952174653017e-20  -1.2995853839785324e-19  -8.5771485472610733e-20  4.2076950864117125e-19  2.0515163017727773e-19  -1.2097206271388931e-18  -3.1622077589529640e-19  2.8705394558470401e-18  -2.7975271355628108e-19  -4.3099805337916231e-18  4.7474873572681527e-18  -4.6496826000356340e-18  -2.3363936487334081e-17  6.8991206910981146e-17  8.0970998054773697e-17  -3.3342388019195332e-16  -2.1158947424628829e-16  1.1328876424301002e-15  3.8162538932583932e-16  -2.8846908347059716e-15  -2.0353347546023991e-16  -4.7525366582816814e-15  4.9165521552408623e-15  -1.6200971396840172e-15  -1.5863606710639111e-15  7.3808900575467482e-15  -2.5145867100718581e-14  -1.5924053239186302e-14  9.9126088727983096e-14  9.7169965046448696e-15  -1.8521733017702256e-13  5.6053597049271085e-14  -3.7650738754139769e-13  2.9176700309241776e-14  -1.9703582451927021e-13  8.8654755098932012e-13  1.5536386024502423e-13  -2.2293420412695762e-12  7.7802385475360589e-13  -1.2244156680863492e-13  -2.4767512570391938e-12  1.3240151117281809e-11  -1.0637072523127093e-13  -2.1326473547010631e-11  -2.3720649852773228e-11  1.5576240455201307e-11  -4.0435927967563269e-11  -2.6197003059994605e-11  -3.0475883236104794e-13  1.7310816203505959e-11  -4.9867774625120777e-11  -2.3475122192852938e-11  -1.2717079383269389e-12  1.8382142016592394e-11  -2.7278772688563098e-12  -3.2804599020295259e-12  -1.3737042120699088e-11  1.8262690669289879e-11  -1.8308161165260595e-12  -6.7099888750430945e-12  1.4874960414266928e-12  3.6898659355791162e-13  1.1085111006859041e-11  -8.5790468890937158e-12  9.5890383426723486e-13  3.5615961973113947e-12  -1.4405375653706879e-11  2.2790839292949720e-12  -9.7888641093826345e-13  2.8368203700153364e-13  -4.9727543255268537e-12  2.1933223952388247e-12  -8.9154009534883025e-12  1.4121263911490101e-13  1.4211341137595269e-12  2.1923267185780217e-12  -3.5655714074574271e-12  2.5691767150290057e-11  -9.9231806668630676e-12  4.6010827118362615e-11  -1.3699262037929358e-11  5.3262919721907569e-11  3.2758500188644694e-12  -1.4243325944543934e-11  5.2221815581628309e-11  -1.3903440329924884e-11  5.2099288196143098e-11  -1.4170570803945205e-11  5.2926276905457413e-11  -1.3636912543057853e-11  4.6054129989432895e-11  -1.0050909378403426e-11  2.6443279723747006e-11  -3.7217234845792596e-12  1.9323543236046142e-12  3.2816618717505258e-12  -1.3958258890710954e-10  2.5157529765674749e+00  1.9658965334010094e-12  -1.3155944381127081e-11  3.9195806092447592e-12  -1.2890349647207191e-11  2.5599293227350586e+00  2.4091925108914625e-12  -4.4099303697737705e-12  2.4621929755258050e+00  1.7710183044416826e-13  1.8657594386105493e-12  1.7126564595049059e-12  -1.0303923969275292e-11  2.3502661514210931e-12  -4.7667394586774195e-12  -1.9087995560514969e-10  -3.2978790291190976e-13  1.8417488615254467e-13  2.4651912453375329e-12  1.3466982974248389e-12  -1.3792094220050321e-11  3.1901668703719929e-12  -6.8568050463992102e-12  4.4375735876663616e-11  5.1245350297693560e-12  1.7259959898054491e-12  -1.0570515678421106e-11  2.9626051933426056e-11  2.7854180128603895e-11  -3.0701602360134903e-12  -2.6888976459654878e-12  -2.9985512655853018e-11  2.4133013830304841e-11  -4.4954089339489850e-12  2.5560710683439933e-12  -4.7096068882667929e-11  1.4858901978114840e-11  -3.5627264761676253e-12  2.0491004236418794e-12  -3.4327655431733973e-11  1.3014936494681172e-11  -1.6575796534714589e-11  -2.7056076053488653e-11  7.5551040029129188e-13  1.4723926781979670e-11  -2.5696512712595627e-11  -3.4308080344510035e-11  1.0559190620742765e-12  1.9259369653139341e-11  -3.8110351057629047e-11  -4.0370749315790136e-11  3.3822972486056071e-10  -1.0485865160588261e-10  3.4695985889062824e-11  2.7917387777988657e-10  -1.0158143729386510e-11  -1.5825058752086982e-10  7.0791274867783786e-10  -9.7379986090003554e-11  -3.1622620002315871e-10  3.3496976444389735e-10  -1.7630497260987677e-09  3.1759756343584781e-10  5.2654153370533044e-10  -9.3929409273171289e-10  5.5420962707321948e-11  4.6164493485205759e-10  -2.0806083125446876e-09  4.1348413774140401e-10  4.8292349314239143e-11  -7.7766666236396398e-10  6.2573161389394728e-09  -2.5229850476749081e-09  1.1102162624427073e-08  -2.6965594353960513e-09  6.0759659530057179e-09  3.0404647491878716e-10  -1.0068941290040866e-08  5.1679340528304996e-09  -2.7534878881414361e-08  8.9690939932970901e-09  -3.7318260526817774e-08  1.0594690579898335e-08  -4.0077991128658445e-08  1.0586069487281958e-08  -3.7174712784898787e-08  8.7248265824332957e-09  -2.6310873120892684e-08  5.0685658426771507e-09  -1.1416175451397502e-08  -1.8825311017143782e-09  -8.3021181144979881e-10  3.6490832944267831e-10  9.5299199390903100e-11  -6.0274821429836534e-11  2.9172223028893755e-12  6.9893086876783660e-12  -6.6547244924636951e-12  1.9364285639751566e-13  2.8335948026896680e-12  -1.2437678729744441e-11  -4.7751674159789557e-13  4.5643840526483020e-10  3.2651066014582024e-12  -1.0225753873088329e-11  1.8589516838405142e-12  -3.3190771052444596e-12  1.0211851248751764e-13  1.5019760951937131e-12  -5.0334253448500624e-13  1.3507405