<?xml version="1.0"?>
<VTKFile type="UnstructuredGrid"  version="0.1"  >
<UnstructuredGrid>
<Piece  NumberOfPoints="11902" NumberOfCells="23402">
<Points>
<DataArray  type="Float64"  NumberOfComponents="3"  format="ascii">-5 -5 0  5 -5 0  5 5 0  -5 5 0  1.229395532652591 0.001378415946916611 0  -4.9 -5 0  -4.8 -5 0  -4.7 -5 0  -4.6 -5 0  -4.5 -5 0  -4.4 -5 0  -4.3 -5 0  -4.2 -5 0  -4.1 -5 0  -4 -5 0  -3.9 -5 0  -3.8 -5 0  -3.7 -5 0  -3.6 -5 0  -3.5 -5 0  -3.4 -5 0  -3.3 -5 0  -3.2 -5 0  -3.1 -5 0  -3 -5 0  -2.9 -5 0  -2.8 -5 0  -2.7 -5 0  -2.6 -5 0  -2.5 -5 0  -2.4 -5 0  -2.3 -5 0  -2.2 -5 0  -2.1 -5 0  -2 -5 0  -1.9 -5 0  -1.8 -5 0  -1.7 -5 0  -1.6 -5 0  -1.5 -5 0  -1.4 -5 0  -1.3 -5 0  -1.2 -5 0  -1.1 -5 0  -1 -5 0  -0.9000000000000004 -5 0  -0.7999999999999998 -5 0  -0.7000000000000002 -5 0  -0.5999999999999996 -5 0  -0.5 -5 0  -0.4000000000000004 -5 0  -0.2999999999999998 -5 0  -0.2000000000000002 -5 0  -0.09999999999999964 -5 0  0 -5 0  0.09999999999999964 -5 0  0.2000000000000002 -5 0  0.2999999999999998 -5 0  0.4000000000000004 -5 0  0.5 -5 0  0.5999999999999996 -5 0  0.7000000000000002 -5 0  0.7999999999999998 -5 0  0.9000000000000004 -5 0  1 -5 0  1.1 -5 0  1.2 -5 0  1.3 -5 0  1.4 -5 0  1.5 -5 0  1.6 -5 0  1.7 -5 0  1.8 -5 0  1.9 -5 0  2 -5 0  2.1 -5 0  2.2 -5 0  2.3 -5 0  2.4 -5 0  2.5 -5 0  2.6 -5 0  2.7 -5 0  2.8 -5 0  2.9 -5 0  3 -5 0  3.1 -5 0  3.199999999999999 -5 0  3.300000000000001 -5 0  3.4 -5 0  3.5 -5 0  3.6 -5 0  3.699999999999999 -5 0  3.800000000000001 -5 0  3.9 -5 0  4 -5 0  4.1 -5 0  4.199999999999999 -5 0  4.300000000000001 -5 0  4.4 -5 0  4.5 -5 0  4.6 -5 0  4.699999999999999 -5 0  4.800000000000001 -5 0  4.9 -5 0  5 -4.9 0  5 -4.8 0  5 -4.7 0  5 -4.6 0  5 -4.5 0  5 -4.4 0  5 -4.3 0  5 -4.2 0  5 -4.1 0  5 -4 0  5 -3.9 0  5 -3.8 0  5 -3.7 0  5 -3.6 0  5 -3.5 0  5 -3.4 0  5 -3.3 0  5 -3.2 0  5 -3.1 0  5 -3 0  5 -2.9 0  5 -2.8 0  5 -2.7 0  5 -2.6 0  5 -2.5 0  5 -2.4 0  5 -2.3 0  5 -2.2 0  5 -2.1 0  5 -2 0  5 -1.9 0  5 -1.8 0  5 -1.7 0  5 -1.6 0  5 -1.5 0  5 -1.4 0  5 -1.3 0  5 -1.2 0  5 -1.1 0  5 -1 0  5 -0.9000000000000004 0  5 -0.7999999999999998 0  5 -0.7000000000000002 0  5 -0.5999999999999996 0  5 -0.5 0  5 -0.4000000000000004 0  5 -0.2999999999999998 0  5 -0.2000000000000002 0  5 -0.09999999999999964 0  5 0 0  5 0.09999999999999964 0  5 0.2000000000000002 0  5 0.2999999999999998 0  5 0.4000000000000004 0  5 0.5 0  5 0.5999999999999996 0  5 0.7000000000000002 0  5 0.7999999999999998 0  5 0.9000000000000004 0  5 1 0  5 1.1 0  5 1.2 0  5 1.3 0  5 1.4 0  5 1.5 0  5 1.6 0  5 1.7 0  5 1.8 0  5 1.9 0  5 2 0  5 2.1 0  5 2.2 0  5 2.3 0  5 2.4 0  5 2.5 0  5 2.6 0  5 2.7 0  5 2.8 0  5 2.9 0  5 3 0  5 3.1 0  5 3.199999999999999 0  5 3.300000000000001 0  5 3.4 0  5 3.5 0  5 3.6 0  5 3.699999999999999 0  5 3.800000000000001 0  5 3.9 0  5 4 0  5 4.1 0  5 4.199999999999999 0  5 4.300000000000001 0  5 4.4 0  5 4.5 0  5 4.6 0  5 4.699999999999999 0  5 4.800000000000001 0  5 4.9 0  4.9 5 0  4.8 5 0  4.7 5 0  4.6 5 0  4.5 5 0  4.4 5 0  4.3 5 0  4.2 5 0  4.1 5 0  4 5 0  3.9 5 0  3.8 5 0  3.7 5 0  3.6 5 0  3.5 5 0  3.4 5 0  3.3 5 0  3.2 5 0  3.1 5 0  3 5 0  2.9 5 0  2.8 5 0  2.7 5 0  2.6 5 0  2.5 5 0  2.4 5 0  2.3 5 0  2.2 5 0  2.1 5 0  2 5 0  1.9 5 0  1.8 5 0  1.7 5 0  1.6 5 0  1.5 5 0  1.4 5 0  1.3 5 0  1.2 5 0  1.1 5 0  1 5 0  0.9000000000000004 5 0  0.7999999999999998 5 0  0.7000000000000002 5 0  0.5999999999999996 5 0  0.5 5 0  0.4000000000000004 5 0  0.2999999999999998 5 0  0.2000000000000002 5 0  0.09999999999999964 5 0  0 5 0  -0.09999999999999964 5 0  -0.2000000000000002 5 0  -0.2999999999999998 5 0  -0.4000000000000004 5 0  -0.5 5 0  -0.5999999999999996 5 0  -0.7000000000000002 5 0  -0.7999999999999998 5 0  -0.9000000000000004 5 0  -1 5 0  -1.1 5 0  -1.2 5 0  -1.3 5 0  -1.4 5 0  -1.5 5 0  -1.6 5 0  -1.7 5 0  -1.8 5 0  -1.9 5 0  -2 5 0  -2.1 5 0  -2.2 5 0  -2.3 5 0  -2.4 5 0  -2.5 5 0  -2.6 5 0  -2.7 5 0  -2.8 5 0  -2.9 5 0  -3 5 0  -3.1 5 0  -3.199999999999999 5 0  -3.300000000000001 5 0  -3.4 5 0  -3.5 5 0  -3.6 5 0  -3.699999999999999 5 0  -3.800000000000001 5 0  -3.9 5 0  -4 5 0  -4.1 5 0  -4.199999999999999 5 0  -4.300000000000001 5 0  -4.4 5 0  -4.5 5 0  -4.6 5 0  -4.699999999999999 5 0  -4.800000000000001 5 0  -4.9 5 0  -5 4.9 0  -5 4.8 0  -5 4.7 0  -5 4.6 0  -5 4.5 0  -5 4.4 0  -5 4.3 0  -5 4.2 0  -5 4.1 0  -5 4 0  -5 3.9 0  -5 3.8 0  -5 3.7 0  -5 3.6 0  -5 3.5 0  -5 3.4 0  -5 3.3 0  -5 3.2 0  -5 3.1 0  -5 3 0  -5 2.9 0  -5 2.8 0  -5 2.7 0  -5 2.6 0  -5 2.5 0  -5 2.4 0  -5 2.3 0  -5 2.2 0  -5 2.1 0  -5 2 0  -5 1.9 0  -5 1.8 0  -5 1.7 0  -5 1.6 0  -5 1.5 0  -5 1.4 0  -5 1.3 0  -5 1.2 0  -5 1.1 0  -5 1 0  -5 0.9000000000000004 0  -5 0.7999999999999998 0  -5 0.7000000000000002 0  -5 0.5999999999999996 0  -5 0.5 0  -5 0.4000000000000004 0  -5 0.2999999999999998 0  -5 0.2000000000000002 0  -5 0.09999999999999964 0  -5 0 0  -5 -0.09999999999999964 0  -5 -0.2000000000000002 0  -5 -0.2999999999999998 0  -5 -0.4000000000000004 0  -5 -0.5 0  -5 -0.5999999999999996 0  -5 -0.7000000000000002 0  -5 -0.7999999999999998 0  -5 -0.9000000000000004 0  -5 -1 0  -5 -1.1 0  -5 -1.2 0  -5 -1.3 0  -5 -1.4 0  -5 -1.5 0  -5 -1.6 0  -5 -1.7 0  -5 -1.8 0  -5 -1.9 0  -5 -2 0  -5 -2.1 0  -5 -2.2 0  -5 -2.3 0  -5 -2.4 0  -5 -2.5 0  -5 -2.6 0  -5 -2.7 0  -5 -2.8 0  -5 -2.9 0  -5 -3 0  -5 -3.1 0  -5 -3.199999999999999 0  -5 -3.300000000000001 0  -5 -3.4 0  -5 -3.5 0  -5 -3.6 0  -5 -3.699999999999999 0  -5 -3.800000000000001 0  -5 -3.9 0  -5 -4 0  -5 -4.1 0  -5 -4.199999999999999 0  -5 -4.300000000000001 0  -5 -4.4 0  -5 -4.5 0  -5 -4.6 0  -5 -4.699999999999999 0  -5 -4.800000000000001 0  -5 -4.9 0  1.222796063879687 0.09768849466409202 0  1.202954849314691 0.1951319957383586 0  1.170411616057586 0.2919407729660563 0  1.128527952901162 0.382319100261663 0  1.07354366405332 0.4728191643611942 0  1.009564788576129 0.5576902157306329 0  0.9340751858391462 0.6374550139015916 0  0.8496221003825292 0.7107276696487463 0  0.7586157322235222 0.7761274536261082 0  0.6582525907580362 0.834163146986997 0  0.5504574961470788 0.885890222693358 0  0.4396762614499346 0.9284798657365356 0  0.32706333992397 0.9613635967128401 0  0.2068377141020056 0.9833994523688004 0  0.08933685096842811 0.9999656211582152 0  -0.02768136049802374 1.00289495515832 0  -0.1451837026052813 0.9913814763484708 0  -0.2670797998154637 0.9732761070851446 0  -0.3840471843420455 0.947854548151864 0  -0.4946577019254415 0.9114717672300243 0  -0.6015679795751108 0.8654301484404916 0  -0.7029438507731706 0.8108717846415205 0  -0.7967476139150547 0.7471358152023744 0  -0.8851555007479949 0.6755238762139009 0  -0.9669679484016859 0.5969238139085394 0  -1.037852999112827 0.5151773657019568 0  -1.098414428747725 0.4287836623132074 0  -1.147981442237605 0.3371478068847468 0  -1.184887550110658 0.2444783653251763 0  -1.209276964850873 0.1490942505359693 0  -1.221453897101492 0.05071460053170282 0  -1.221419850242878 -0.04868477995873488 0  -1.209144282759951 -0.1465769828194246 0  -1.185089681498921 -0.2417538621577336 0  -1.146751563698341 -0.3370339614671041 0  -1.098669293017182 -0.4279846251335503 0  -1.039061746884913 -0.5145628706911569 0  -0.9689126146588312 -0.5957395233530662 0  -0.8876430729463406 -0.6730611772822275 0  -0.7992040454775849 -0.7433190798392009 0  -0.7037938278140742 -0.8043558049753317 0  -0.6014160754359831 -0.8582000354243488 0  -0.4911788428908874 -0.9062995537158344 0  -0.3793684153968861 -0.9448828677417799 0  -0.2638236673528974 -0.9723572679165098 0  -0.1438224028449318 -0.9907348751071259 0  -0.02779176428383663 -1.001976345708135 0  0.0897646838175713 -0.9962775663850527 0  0.2107381814240921 -0.9807061031549233 0  0.3291583757180388 -0.9597238998789621 0  0.4435566054597824 -0.9270919180162808 0  0.5525032708463895 -0.8849722432530549 0  0.6590786834421822 -0.8340257345978376 0  0.7587072550817571 -0.7772713536882074 0  0.8496725111971548 -0.711605562711209 0  0.9335033474030872 -0.6370992609912429 0  1.007610338413536 -0.5570463332747241 0  1.073421830751886 -0.4720596877422251 0  1.129493378445826 -0.3823718511545456 0  1.172013033578393 -0.2901304408594386 0  1.203381007462331 -0.1942411821520476 0  1.22289700440743 -0.09724929696413012 0  -2.448663000049212 4.918299949732384 0  -2.448546310370337 -4.910695222938231 0  4.910624035878968 2.448036902895174 0  4.918731659882967 -2.449485520344081 0  2.446294104311849 -4.895961732227992 0  2.440723401378182 4.899716711610567 0  -4.910649561085989 -2.448061818121953 0  -4.910647217479961 2.448065683152871 0  -1.748620971730438 4.911270957961811 0  -1.744403152136384 -4.91470191871718 0  4.920854229248773 1.744198339835922 0  4.909419326735647 -1.747978166098139 0  -4.909710515805275 -1.74771036544649 0  -4.910530877057175 1.747453717045371 0  1.745900421297001 4.905146446970277 0  1.747326929050496 -4.89332466156376 0  -1.148910689575226 4.909109646512676 0  -1.129760205862013 -4.917000372659097 0  -4.909493842136698 -1.148013346732985 0  -4.90931311548228 1.147813648795388 0  1.143900968688932 -4.913196787326373 0  1.14891978465527 4.909097186987782 0  4.909636254527391 1.146289480809613 0  4.920430772001703 -1.152061427090741 0  -0.5467050405407938 -4.910325945195122 0  -0.546484147306624 4.918982355761472 0  -4.908279298900085 -0.5487560644402102 0  -4.908303418240334 0.5473132263625703 0  4.907604400879794 -0.5490753738558848 0  4.919217570771159 0.54582622445068 0  0.5424909889843662 -4.897247758172892 0  0.5512135013251759 4.915815801865442 0  -4.912012817658493 -3.048395627915296 0  4.918575747501319 3.046405169508605 0  4.911521904534571 -3.04837292911295 0  -4.912859974973911 3.045486360819982 0  3.055377948118336 -4.917504906766373 0  -3.048714609839419 -4.911448969508767 0  3.0522800578978 4.913524575963075 0  -3.048159662567073 4.912337749519935 0  -4.907407186593512 -0.049912459315367 0  0.04512211938406643 -4.912278586854367 0  0.0495700138877478 4.919282821879971 0  4.914438077191919 -0.0512942467305851 0  3.54568029622763 -4.919112111832165 0  -3.548966087310895 4.91201
[...]
<PointData  Scalars="f_30"> 
<DataArray  type="Float64"  Name="f_30"  format="ascii">0.0000000000000000e+00  0.0000000000000000e+00  0.0000000000000000e+00  0.0000000000000000e+00  1.5283339084078157e-01  0.0000000000000000e+00  0.0000000000000000e+00  0.0000000000000000e+00  0.0000000000000000e+00  0.0000000000000000e+00  0.0000000000000000e+00  0.0000000000000000e+00  0.0000000000000000e+00  0.0000000000000000e+00  0.0000000000000000e+00  0.0000000000000000e+00  0.0000000000000000e+00  0.0000000000000000e+00  0.0000000000000000e+00  0.0000000000000000e+00  0.0000000000000000e+00  0.0000000000000000e+00  0.0000000000000000e+00  0.0000000000000000e+00  0.0000000000000000e+00  0.0000000000000000e+00  0.0000000000000000e+00  0.0000000000000000e+00  0.0000000000000000e+00  0.0000000000000000e+00  0.0000000000000000e+00  0.0000000000000000e+00  0.0000000000000000e+00  0.0000000000000000e+00  0.0000000000000000e+00  0.0000000000000000e+00  0.0000000000000000e+00  0.0000000000000000e+00  0.0000000000000000e+00  0.0000000000000000e+00  0.0000000000000000e+00  0.0000000000000000e+00  0.0000000000000000e+00  0.0000000000000000e+00  0.0000000000000000e+00  0.0000000000000000e+00  0.0000000000000000e+00  0.0000000000000000e+00  0.0000000000000000e+00  0.0000000000000000e+00  0.0000000000000000e+00  0.0000000000000000e+00  0.0000000000000000e+00  0.0000000000000000e+00  0.0000000000000000e+00  0.0000000000000000e+00  0.0000000000000000e+00  0.0000000000000000e+00  0.0000000000000000e+00  0.0000000000000000e+00  0.0000000000000000e+00  0.0000000000000000e+00  0.0000000000000000e+00  0.0000000000000000e+00  0.0000000000000000e+00  0.0000000000000000e+00  0.0000000000000000e+00  0.0000000000000000e+00  0.0000000000000000e+00  0.0000000000000000e+00  0.0000000000000000e+00  0.0000000000000000e+00  0.0000000000000000e+00  0.0000000000000000e+00  0.0000000000000000e+00  0.0000000000000000e+00  0.0000000000000000e+00  0.0000000000000000e+00  0.0000000000000000e+00  0.0000000000000000e+00  0.0000000000000000e+00  0.0000000000000000e+00  0.0000000000000000e+00  0.0000000000000000e+00  0.0000000000000000e+00  0.0000000000000000e+00  0.0000000000000000e+00  0.0000000000000000e+00  0.0000000000000000e+00  0.0000000000000000e+00  0.0000000000000000e+00  0.0000000000000000e+00  0.0000000000000000e+00  0.0000000000000000e+00  0.0000000000000000e+00  0.0000000000000000e+00  0.0000000000000000e+00  0.0000000000000000e+00  0.0000000000000000e+00  0.0000000000000000e+00  0.0000000000000000e+00  0.0000000000000000e+00  0.0000000000000000e+00  0.0000000000000000e+00  0.0000000000000000e+00  0.0000000000000000e+00  0.0000000000000000e+00  0.0000000000000000e+00  0.0000000000000000e+00  0.0000000000000000e+00  0.0000000000000000e+00  0.0000000000000000e+00  0.0000000000000000e+00  0.0000000000000000e+00  0.0000000000000000e+00  0.0000000000000000e+00  0.0000000000000000e+00  0.0000000000000000e+00  0.0000000000000000e+00  0.0000000000000000e+00  0.0000000000000000e+00  0.0000000000000000e+00  0.0000000000000000e+00  0.0000000000000000e+00  0.0000000000000000e+00  0.0000000000000000e+00  0.0000000000000000e+00  0.0000000000000000e+00  0.0000000000000000e+00  0.0000000000000000e+00  0.0000000000000000e+00  0.0000000000000000e+00  0.0000000000000000e+00  0.0000000000000000e+00  0.0000000000000000e+00  0.0000000000000000e+00  0.0000000000000000e+00  0.0000000000000000e+00  0.0000000000000000e+00  0.0000000000000000e+00  0.0000000000000000e+00  0.0000000000000000e+00  0.0000000000000000e+00  0.0000000000000000e+00  0.0000000000000000e+00  0.0000000000000000e+00  0.0000000000000000e+00  0.0000000000000000e+00  0.0000000000000000e+00  0.0000000000000000e+00  0.0000000000000000e+00  0.0000000000000000e+00  0.0000000000000000e+00  0.0000000000000000e+00  0.0000000000000000e+00  0.0000000000000000e+00  0.0000000000000000e+00  0.0000000000000000e+00  0.0000000000000000e+00  0.0000000000000000e+00  0.0000000000000000e+00  0.0000000000000000e+00  0.0000000000000000e+00  0.0000000000000000e+00  0.0000000000000000e+00  0.0000000000000000e+00  0.0000000000000000e+00  0.0000000000000000e+00  0.0000000000000000e+00  0.0000000000000000e+00  0.0000000000000000e+00  0.0000000000000000e+00  0.0000000000000000e+00  0.0000000000000000e+00  0.0000000000000000e+00  0.0000000000000000e+00  0.0000000000000000e+00  0.0000000000000000e+00  0.0000000000000000e+00  0.0000000000000000e+00  0.0000000000000000e+00  0.0000000000000000e+00  0.0000000000000000e+00  0.0000000000000000e+00  0.0000000000000000e+00  0.0000000000000000e+00  0.0000000000000000e+00  0.0000000000000000e+00  0.0000000000000000e+00  0.0000000000000000e+00  0.0000000000000000e+00  0.0000000000000000e+00  0.0000000000000000e+00  0.0000000000000000e+00  0.0000000000000000e+00  0.0000000000000000e+00  0.0000000000000000e+00  0.0000000000000000e+00  0.0000000000000000e+00  0.0000000000000000e+00  0.0000000000000000e+00  0.0000000000000000e+00  0.0000000000000000e+00  0.0000000000000000e+00  0.0000000000000000e+00  0.0000000000000000e+00  0.0000000000000000e+00  0.0000000000000000e+00  0.0000000000000000e+00  0.0000000000000000e+00  0.0000000000000000e+00  0.0000000000000000e+00  0.0000000000000000e+00  0.0000000000000000e+00  0.0000000000000000e+00  0.0000000000000000e+00  0.0000000000000000e+00  0.0000000000000000e+00  0.0000000000000000e+00  0.0000000000000000e+00  0.0000000000000000e+00  0.0000000000000000e+00  0.0000000000000000e+00  0.0000000000000000e+00  0.0000000000000000e+00  0.0000000000000000e+00  0.0000000000000000e+00  0.0000000000000000e+00  0.0000000000000000e+00  0.0000000000000000e+00  0.0000000000000000e+00  0.0000000000000000e+00  0.0000000000000000e+00  0.0000000000000000e+00  0.0000000000000000e+00  0.0000000000000000e+00  0.0000000000000000e+00  0.0000000000000000e+00  0.0000000000000000e+00  0.0000000000000000e+00  0.0000000000000000e+00  0.0000000000000000e+00  0.0000000000000000e+00  0.0000000000000000e+00  0.0000000000000000e+00  0.0000000000000000e+00  0.0000000000000000e+00  0.0000000000000000e+00  0.0000000000000000e+00  0.0000000000000000e+00  0.0000000000000000e+00  0.0000000000000000e+00  0.0000000000000000e+00  0.0000000000000000e+00  0.0000000000000000e+00  0.0000000000000000e+00  0.0000000000000000e+00  0.0000000000000000e+00  0.0000000000000000e+00  0.0000000000000000e+00  0.0000000000000000e+00  0.0000000000000000e+00  0.0000000000000000e+00  0.0000000000000000e+00  0.0000000000000000e+00  0.0000000000000000e+00  0.0000000000000000e+00  0.0000000000000000e+00  0.0000000000000000e+00  0.0000000000000000e+00  0.0000000000000000e+00  0.0000000000000000e+00  0.0000000000000000e+00  0.0000000000000000e+00  0.0000000000000000e+00  0.0000000000000000e+00  0.0000000000000000e+00  0.0000000000000000e+00  0.0000000000000000e+00  0.0000000000000000e+00  0.0000000000000000e+00  0.0000000000000000e+00  0.0000000000000000e+00  0.0000000000000000e+00  0.0000000000000000e+00  0.0000000000000000e+00  0.0000000000000000e+00  0.0000000000000000e+00  0.0000000000000000e+00  0.0000000000000000e+00  0.0000000000000000e+00  0.0000000000000000e+00  0.0000000000000000e+00  0.0000000000000000e+00  0.0000000000000000e+00  0.0000000000000000e+00  0.0000000000000000e+00  0.0000000000000000e+00  0.0000000000000000e+00  0.0000000000000000e+00  0.0000000000000000e+00  0.0000000000000000e+00  0.0000000000000000e+00  0.0000000000000000e+00  0.0000000000000000e+00  0.0000000000000000e+00  0.0000000000000000e+00  0.0000000000000000e+00  0.0000000000000000e+00  0.0000000000000000e+00  0.0000000000000000e+00  0.0000000000000000e+00  0.0000000000000000e+00  0.0000000000000000e+00  0.0000000000000000e+00  0.0000000000000000e+00  0.0000000000000000e+00  0.0000000000000000e+00  0.0000000000000000e+00  0.0000000000000000e+00  0.0000000000000000e+00  0.0000000000000000e+00  0.0000000000000000e+00  0.0000000000000000e+00  0.0000000000000000e+00  0.0000000000000000e+00  0.0000000000000000e+00  0.0000000000000000e+00  0.0000000000000000e+00  0.0000000000000000e+00  0.0000000000000000e+00  0.0000000000000000e+00  0.0000000000000000e+00  0.0000000000000000e+00  0.0000000000000000e+00  0.0000000000000000e+00  0.0000000000000000e+00  0.0000000000000000e+00  0.0000000000000000e+00  0.0000000000000000e+00  0.0000000000000000e+00  0.0000000000000000e+00  0.0000000000000000e+00  0.0000000000000000e+00  0.0000000000000000e+00  0.0000000000000000e+00  0.0000000000000000e+00  0.0000000000000000e+00  0.0000000000000000e+00  0.0000000000000000e+00  0.0000000000000000e+00  0.0000000000000000e+00  0.0000000000000000e+00  0.0000000000000000e+00  0.0000000000000000e+00  0.0000000000000000e+00  0.0000000000000000e+00  0.0000000000000000e+00  0.0000000000000000e+00  0.0000000000000000e+00  0.0000000000000000e+00  0.0000000000000000e+00  0.0000000000000000e+00  0.0000000000000000e+00  0.0000000000000000e+00  0.0000000000000000e+00  0.0000000000000000e+00  0.0000000000000000e+00  0.0000000000000000e+00  0.0000000000000000e+00  0.0000000000000000e+00  0.0000000000000000e+00  0.0000000000000000e+00  0.0000000000000000e+00  0.0000000000000000e+00  0.0000000000000000e+00  0.0000000000000000e+00  0.0000000000000000e+00  0.0000000000000000e+00  0.0000000000000000e+00  0.0000000000000000e+00  0.0000000000000000e+00  0.0000000000000000e+00  0.0000000000000000e+00  0.0000000000000000e+00  0.0000000000000000e+00  0.0000000000000000e+00  0.0000000000000000e+00  0.0000000000000000e+00  0.0000000000000000e+00  0.0000000000000000e+00  0.0000000000000000e+00  0.0000000000000000e+00  0.0000000000000000e+00  0.0000000000000000e+00  0.0000000000000000e+00  0.0000000000000000e+00  0.0000000000000000e+00  0.0000000000000000e+00  0.0000000000000000e+00  0.0000000000000000e+00  1.5812999041133302e-01  1.4621185344225901e-01  1.1579786024533639e-01  1.1325697767062176e-01  1.3340873751071183e-01  1.7491495650940389e-01  1.6465436608184425e-01  1.2855869342828360e-01  1.4318393686374861e-01  1.7486334112476140e-01  1.5801259364884129e-01  1.5756606167492321e-01  1.7723854937017169e-01  1.3896400603580686e-01  1.3956709224108446e-01  1.4067701590863554e-01  1.2024167430833853e-01  1.4007924123367413e-01  1.5903388479414329e-01  1.4088512242720988e-01  1.4623396335892955e-01  1.4115578271433460e-01  1.5032310422057860e-01  1.6248925171105172e-01  1.4785354564207157e-01  1.3306739018268457e-01  1.5257099341489960e-01  1.4345246215717081e-01  1.2175849820812118e-01  1.3278078301083973e-01  1.4187619543343330e-01  1.4723325601843240e-01  1.4248226976396206e-01  1.9535528006870753e-01  1.4082162203856066e-01  1.6000140571429236e-01  1.4550348060331839e-01  1.6496776348786429e-01  1.6113967554374495e-01  1.4280351291835275e-01  1.1255336380573774e-01  1.7627732281450736e-01  1.3632836135494397e-01  1.6450144495644184e-01  1.4947239237317303e-01  1.4338635696970078e-01  2.0864570835399268e-01  1.7674989908378172e-01  1.4609197172108071e-01  1.5191863573224704e-01  1.4372489635925870e-01  1.2736620498665502e-01  1.4214804202416223e-01  1.7224621527203984e-01  1.5202917652915043e-01  1.4519623677809149e-01  1.3092357356938220e-01  1.4436669579140951e-01  1.9026106556859718e-01  1.6058793235424446e-01  1.5510790763244731e-01  1.6280449174728681e-01  3.6121736003144058e-27  -1.3177354526391444e-27  -2.6372988214575722e-27  -2.9362110821377395e-27  -1.2754846204083539e-27  -5.3188803172141046e-28  -2.0321713519342607e-28  1.8085996591996484e-27  7.1908186316702152e-27  4.1261582970324447e-27  -7.0167489051973506e-25  -6.6245820650868568e-25  5.4015519355509574e-25  1.1894523519545293e-24  3.7091246514255349e-26  3.0577191221377373e-26  -4.7813854465930490e-26  -3.0032466633313292e-26  -1.1242594026117111e-22  -1.6505400548975330e-22  -4.3274894984547050e-26  -4.9234307222711030e-26  4.7612437925695763e-23  4.7758641406313609e-23  -4.7370221331767761e-27  -3.9750271068075698e-26  -7.5369922642727301e-21  -7.1236227239839870e-21  -4.5758827813401206e-21  -4.8274273895883615e-21  8.3201211656016169e-26  -2.6524335055604345e-26  7.1703396396838762e-30  -8.8439277467183123e-30  -9.0742317299639805e-30  1.6282536062565720e-29  1.9759861951543036e-28  3.9844564704022643e-28  2.8927743929875889e-28  3.1818258234519962e-28  3.5536295720824427e-20  6.3548751838358749e-26  1.2229620807573623e-26  3.8447620663913769e-20  -9.0965185869658921e-30  -9.9263747267795587e-30  -6.2620447389425743e-30  2.3186071739684591e-31  2.4329242395472989e-31  2.3940965032841752e-31  1.4562222069282353e-31  -9.9633757941530505e-30  -6.1356143296876542e-33  -2.3068945633883202e-32  1.1371220591919321e-31  -4.0599782653652754e-33  2.5154761354803042e-32  -6.0625817560438258e-33  1.3756198789442508e-31  -9.9017405822962381e-34  -1.2942974491361803e-33  -4.6819458842116810e-34  -1.9574389983790381e-34  1.4856514210941999e-34  1.3409178710625147e-34  7.7341111285613382e-35  7.3736067951133694e-36  -1.6096913211614866e-33  2.7758150041477773e-20  4.6289695882039893e-26  -1.3626560819895975e-26  1.3821897596388642e-20  1.1675371772260929e-25  -3.4725233061803678e-24  1.3394908208881840e-21  8.8430431441823794e-22  -3.2579691354601572e-24  2.7352506928920489e-26  7.8783828745903672e-26  -5.2871478917530745e-26  -3.8570492941937357e-26  -1.1547888653029294e-23  3.9597120951577783e-22  4.1482010634370403e-22  -1.1338401703210521e-23  -2.5515988450598429e-27  8.8214405630885502e-26  -4.0405052274304147e-27  5.5581624769412191e-27  -6.5549818581925455e-27  8.9115006613238356e-26  1.1270769673021226e-25  -4.0129049290957946e-27  -2.4125521278477907e-27  3.0464785781788627e-26  2.8830730736872190e-26  -1.5704726225008827e-28  -7.7609533177017594e-28  -1.2224815376802408e-27  2.0590622092725259e-28  6.3879061363526445e-28  6.7275910279072296e-29  -1.5133887203350928e-28  -9.2254443018287108e-28  1.2567465069378445e-35  1.8952174464408755e-35  7.5316866798379632e-36  -1.6946020563073913e-36  6.4699465333892225e-36  1.5368879709246509e-36  1.0557456585479080e-35  5.2340073463671162e-37  2.7877468571610585e-20  1.2035660748742031e-25  1.1446551351252495e-25  1.3760367543760973e-20  -1.7863304568211233e-27  4.4955687492614496e-27  4.7956986705012394e-27  -7.1560476813696268e-27  -1.1865850939652272e-26  -6.9921064261644770e-29  -8.1944383937728523e-27  -2.0294423964010051e-26  3.5252786737584857e-30  -1.1192054728594937e-28  -7.3960955346145115e-29  2.8341013064567693e-30  3.4754378235705231e-30  -9.6395371256890773e-29  -1.2779688387023642e-28  1.1569376319444090e-30  -3.7499954334066911e-33  3.6441410448000536e-34  1.2052985986641387e-30  -1.2997729554756018e-32  2.7360681664583934e-31  -1.5412840265025029e-32  -3.6562403611159572e-32  1.2126588066124639e-33  8.1374444263060004e-31  -1.3325623123632284e-32  -1.3655502766015194e-33  2.9198307769144275e-34  -4.4317821762738478e-32  1.2637524736042140e-33  5.2319074178924794e-31  -1.7094966874061337e-32  -3.7014099205031989e-36  -1.7453801478537101e-36  -2.9595978816285224e-36  -3.4662513061868131e-36  3.4840952506738216e-20  -1.2995853856230714e-19  -8.5771484080823628e-20  4.2076950550217685e-19  2.0515162445507276e-19  -1.2097206070390943e-18  -3.1622075837492074e-19  2.8705393748059919e-18  -2.7975275162892357e-19  -4.3099802888874709e-18  4.7474873867610188e-18  -4.6496831185809602e-18  -2.3363936260048411e-17  6.8991207257162968e-17  8.0970996500364957e-17  -3.3342387676567886e-16  -2.1158946804400585e-16  1.1328876200975454e-15  3.8162537100565990e-16  -2.8846907472853835e-15  -2.0353343666077042e-16  -4.7525366068724603e-15  4.9165519006422719e-15  -1.6200971744610346e-15  -1.5863601470009143e-15  7.3808898996904714e-15  -2.5145867475160119e-14  -1.5924052253841387e-14  9.9126086197654515e-14  9.7169934689951162e-15  -1.8521731588748735e-13  5.6053602102611089e-14  -3.7650739120647625e-13  2.9176658613623669e-14  -1.9703582123849272e-13  8.8654761013115973e-13  1.5536380933374521e-13  -2.2293419521042592e-12  7.7802401504415548e-13  -1.2244234450821695e-13  -2.4767514385516244e-12  1.3240153182962471e-11  -1.0637125990343370e-13  -2.1326471656168457e-11  -2.3720651108483022e-11  1.5576243260992830e-11  -4.0435938300258335e-11  -2.6197007236332967e-11  -3.0475895626093925e-13  1.7310819111667651e-11  -4.9867781768240520e-11  -2.3475127810859574e-11  -1.2717078000259261e-12  1.8382144870415646e-11  -2.7278778487630599e-12  -3.2804597699062882e-12  -1.3737047576451070e-11  1.8262693437003997e-11  -1.8308166429343627e-12  -6.7099889840797762e-12  1.4874962067967978e-12  3.6898621084627800e-13  1.1085113445734767e-11  -8.5790472747287667e-12  9.5890399778521277e-13  3.5615960082105719e-12  -1.4405373922050508e-11  2.2790834340241261e-12  -9.7888628185539983e-13  2.8368200416281425e-13  -4.9727533119707362e-12  2.1933218870888739e-12  -8.9153991908167476e-12  1.4121261149207914e-13  1.4211342296588006e-12  2.1923232909555753e-12  -3.5655697427497433e-12  2.5691762324844169e-11  -9.9231819178063386e-12  4.6010848725013735e-11  -1.3699274386193525e-11  5.3262985632351987e-11  3.2758517140381506e-12  -1.4243344695418989e-11  5.2221860664961605e-11  -1.3903434338910922e-11  5.2099167980083737e-11  -1.4170506741506457e-11  5.2925937889320151e-11  -1.3636810031939934e-11  4.6053777803343324e-11  -1.0050847906625660e-11  2.6443220506054069e-11  -3.7217543254479321e-12  1.9325931944738359e-12  3.2816373208242725e-12  -1.3958260102546330e-10  2.5458279695395181e+00  1.9658280422448946e-12  -1.3155763489760320e-11  3.9195733848688701e-12  -1.2890494227360344e-11  2.5743247499964745e+00  2.4092654153821086e-12  -4.4102657368989252e-12  2.5213401903395725e+00  1.7718541230393104e-13  1.8655258890073138e-12  1.7138327238861590e-12  -1.0303449765579025e-11  2.3502315429352312e-12  -4.7668649492307291e-12  -1.9087849979217243e-10  -3.2981137633491519e-13  1.8423963688415015e-13  2.4649338625724703e-12  1.3476114911226799e-12  -1.3791328275831565e-11  3.1900344966573887e-12  -6.8565837594850668e-12  4.4373947387066412e-11  5.1244386586668688e-12  1.7259315549232915e-12  -1.0570216718537151e-11  2.9625049628224020e-11  2.7853582035218245e-11  -3.0701417845561457e-12  -2.6886010883492426e-12  -2.9985705952486436e-11  2.4131988064371278e-11  -4.4953121502402667e-12  2.5563960916710240e-12  -4.7095531023699005e-11  1.4857239493253557e-11  -3.5625107327014016e-12  2.0493985986325304e-12  -3.4325970456013278e-11  1.3012733620085403e-11  -1.6567496076411171e-11  -2.7053795762756122e-11  7.5583127212375150e-13  1.4721432496339841e-11  -2.5686451962479518e-11  -3.4306630497425509e-11  1.0564156030515304e-12  1.9257040417236251e-11  -3.8098565840913822e-11  -4.0371510607113222e-11  3.3821502748817599e-10  -1.0484814880849929e-10  3.4650887554687750e-11  2.7917563339694559e-10  -1.0160849866014772e-11  -1.5824583264517921e-10  7.0787875221804403e-10  -9.7371049625572541e-11  -3.1623771839920416e-10  3.3495966649013155e-10  -1.7629673439067187e-09  3.1757276119818209e-10  5.2659038651156793e-10  -9.3927524110531015e-10  5.5423781405142924e-11  4.6162833601179390e-10  -2.0805005079602739e-09  4.1344490736350798e-10  4.8467147258314446e-11  -7.7771779342045621e-10  6.2575158146653812e-09  -2.5230408905231041e-09  1.1102380646269401e-08  -2.6966219644691168e-09  6.0762146855467467e-09  3.0397579466144335e-10  -1.0068671232377596e-08  5.1678634603642230e-09  -2.7534639978882710e-08  8.9690420302799465e-09  -3.7318125739262921e-08  1.0594671605237864e-08  -4.0077978077232374e-08  1.0586076224113862e-08  -3.7174755925083392e-08  8.7248371277999222e-09  -2.6310897319254487e-08  5.0685680342439111e-09  -1.1416171275299374e-08  -1.8825329231657930e-09  -8.3021161593464319e-10  3.6490851960925540e-10  9.5299065233300159e-11  -6.0274814635433790e-11  2.9172539002461029e-12  6.9892999643099836e-12  -6.6547285988049464e-12  1.9364515218699470e-13  2.8335947717940182e-12  -1.2437675803838833e-11  -4.7751708536428116e-13  4.5645282620515193e-10  3.2651058396430230e-12  -1.0225752488038841e-11  1.8589516743012392e-12  -3.3190779547173339e-12  1.0211872789007890e-13  1.5019757499938386e-12  -5.0334253899431895e-13  1.3507408