<?xml version="1.0"?>
<VTKFile type="UnstructuredGrid"  version="0.1"  >
<UnstructuredGrid>
<Piece  NumberOfPoints="11902" NumberOfCells="23402">
<Points>
<DataArray  type="Float64"  NumberOfComponents="3"  format="ascii">-5 -5 0  5 -5 0  5 5 0  -5 5 0  1.265516203417656 0.001282805862426787 0  -4.9 -5 0  -4.8 -5 0  -4.7 -5 0  -4.6 -5 0  -4.5 -5 0  -4.4 -5 0  -4.3 -5 0  -4.2 -5 0  -4.1 -5 0  -4 -5 0  -3.9 -5 0  -3.8 -5 0  -3.7 -5 0  -3.6 -5 0  -3.5 -5 0  -3.4 -5 0  -3.3 -5 0  -3.2 -5 0  -3.1 -5 0  -3 -5 0  -2.9 -5 0  -2.8 -5 0  -2.7 -5 0  -2.6 -5 0  -2.5 -5 0  -2.4 -5 0  -2.3 -5 0  -2.2 -5 0  -2.1 -5 0  -2 -5 0  -1.9 -5 0  -1.8 -5 0  -1.7 -5 0  -1.6 -5 0  -1.5 -5 0  -1.4 -5 0  -1.3 -5 0  -1.2 -5 0  -1.1 -5 0  -1 -5 0  -0.9000000000000004 -5 0  -0.7999999999999998 -5 0  -0.7000000000000002 -5 0  -0.5999999999999996 -5 0  -0.5 -5 0  -0.4000000000000004 -5 0  -0.2999999999999998 -5 0  -0.2000000000000002 -5 0  -0.09999999999999964 -5 0  0 -5 0  0.09999999999999964 -5 0  0.2000000000000002 -5 0  0.2999999999999998 -5 0  0.4000000000000004 -5 0  0.5 -5 0  0.5999999999999996 -5 0  0.7000000000000002 -5 0  0.7999999999999998 -5 0  0.9000000000000004 -5 0  1 -5 0  1.1 -5 0  1.2 -5 0  1.3 -5 0  1.4 -5 0  1.5 -5 0  1.6 -5 0  1.7 -5 0  1.8 -5 0  1.9 -5 0  2 -5 0  2.1 -5 0  2.2 -5 0  2.3 -5 0  2.4 -5 0  2.5 -5 0  2.6 -5 0  2.7 -5 0  2.8 -5 0  2.9 -5 0  3 -5 0  3.1 -5 0  3.199999999999999 -5 0  3.300000000000001 -5 0  3.4 -5 0  3.5 -5 0  3.6 -5 0  3.699999999999999 -5 0  3.800000000000001 -5 0  3.9 -5 0  4 -5 0  4.1 -5 0  4.199999999999999 -5 0  4.300000000000001 -5 0  4.4 -5 0  4.5 -5 0  4.6 -5 0  4.699999999999999 -5 0  4.800000000000001 -5 0  4.9 -5 0  5 -4.9 0  5 -4.8 0  5 -4.7 0  5 -4.6 0  5 -4.5 0  5 -4.4 0  5 -4.3 0  5 -4.2 0  5 -4.1 0  5 -4 0  5 -3.9 0  5 -3.8 0  5 -3.7 0  5 -3.6 0  5 -3.5 0  5 -3.4 0  5 -3.3 0  5 -3.2 0  5 -3.1 0  5 -3 0  5 -2.9 0  5 -2.8 0  5 -2.7 0  5 -2.6 0  5 -2.5 0  5 -2.4 0  5 -2.3 0  5 -2.2 0  5 -2.1 0  5 -2 0  5 -1.9 0  5 -1.8 0  5 -1.7 0  5 -1.6 0  5 -1.5 0  5 -1.4 0  5 -1.3 0  5 -1.2 0  5 -1.1 0  5 -1 0  5 -0.9000000000000004 0  5 -0.7999999999999998 0  5 -0.7000000000000002 0  5 -0.5999999999999996 0  5 -0.5 0  5 -0.4000000000000004 0  5 -0.2999999999999998 0  5 -0.2000000000000002 0  5 -0.09999999999999964 0  5 0 0  5 0.09999999999999964 0  5 0.2000000000000002 0  5 0.2999999999999998 0  5 0.4000000000000004 0  5 0.5 0  5 0.5999999999999996 0  5 0.7000000000000002 0  5 0.7999999999999998 0  5 0.9000000000000004 0  5 1 0  5 1.1 0  5 1.2 0  5 1.3 0  5 1.4 0  5 1.5 0  5 1.6 0  5 1.7 0  5 1.8 0  5 1.9 0  5 2 0  5 2.1 0  5 2.2 0  5 2.3 0  5 2.4 0  5 2.5 0  5 2.6 0  5 2.7 0  5 2.8 0  5 2.9 0  5 3 0  5 3.1 0  5 3.199999999999999 0  5 3.300000000000001 0  5 3.4 0  5 3.5 0  5 3.6 0  5 3.699999999999999 0  5 3.800000000000001 0  5 3.9 0  5 4 0  5 4.1 0  5 4.199999999999999 0  5 4.300000000000001 0  5 4.4 0  5 4.5 0  5 4.6 0  5 4.699999999999999 0  5 4.800000000000001 0  5 4.9 0  4.9 5 0  4.8 5 0  4.7 5 0  4.6 5 0  4.5 5 0  4.4 5 0  4.3 5 0  4.2 5 0  4.1 5 0  4 5 0  3.9 5 0  3.8 5 0  3.7 5 0  3.6 5 0  3.5 5 0  3.4 5 0  3.3 5 0  3.2 5 0  3.1 5 0  3 5 0  2.9 5 0  2.8 5 0  2.7 5 0  2.6 5 0  2.5 5 0  2.4 5 0  2.3 5 0  2.2 5 0  2.1 5 0  2 5 0  1.9 5 0  1.8 5 0  1.7 5 0  1.6 5 0  1.5 5 0  1.4 5 0  1.3 5 0  1.2 5 0  1.1 5 0  1 5 0  0.9000000000000004 5 0  0.7999999999999998 5 0  0.7000000000000002 5 0  0.5999999999999996 5 0  0.5 5 0  0.4000000000000004 5 0  0.2999999999999998 5 0  0.2000000000000002 5 0  0.09999999999999964 5 0  0 5 0  -0.09999999999999964 5 0  -0.2000000000000002 5 0  -0.2999999999999998 5 0  -0.4000000000000004 5 0  -0.5 5 0  -0.5999999999999996 5 0  -0.7000000000000002 5 0  -0.7999999999999998 5 0  -0.9000000000000004 5 0  -1 5 0  -1.1 5 0  -1.2 5 0  -1.3 5 0  -1.4 5 0  -1.5 5 0  -1.6 5 0  -1.7 5 0  -1.8 5 0  -1.9 5 0  -2 5 0  -2.1 5 0  -2.2 5 0  -2.3 5 0  -2.4 5 0  -2.5 5 0  -2.6 5 0  -2.7 5 0  -2.8 5 0  -2.9 5 0  -3 5 0  -3.1 5 0  -3.199999999999999 5 0  -3.300000000000001 5 0  -3.4 5 0  -3.5 5 0  -3.6 5 0  -3.699999999999999 5 0  -3.800000000000001 5 0  -3.9 5 0  -4 5 0  -4.1 5 0  -4.199999999999999 5 0  -4.300000000000001 5 0  -4.4 5 0  -4.5 5 0  -4.6 5 0  -4.699999999999999 5 0  -4.800000000000001 5 0  -4.9 5 0  -5 4.9 0  -5 4.8 0  -5 4.7 0  -5 4.6 0  -5 4.5 0  -5 4.4 0  -5 4.3 0  -5 4.2 0  -5 4.1 0  -5 4 0  -5 3.9 0  -5 3.8 0  -5 3.7 0  -5 3.6 0  -5 3.5 0  -5 3.4 0  -5 3.3 0  -5 3.2 0  -5 3.1 0  -5 3 0  -5 2.9 0  -5 2.8 0  -5 2.7 0  -5 2.6 0  -5 2.5 0  -5 2.4 0  -5 2.3 0  -5 2.2 0  -5 2.1 0  -5 2 0  -5 1.9 0  -5 1.8 0  -5 1.7 0  -5 1.6 0  -5 1.5 0  -5 1.4 0  -5 1.3 0  -5 1.2 0  -5 1.1 0  -5 1 0  -5 0.9000000000000004 0  -5 0.7999999999999998 0  -5 0.7000000000000002 0  -5 0.5999999999999996 0  -5 0.5 0  -5 0.4000000000000004 0  -5 0.2999999999999998 0  -5 0.2000000000000002 0  -5 0.09999999999999964 0  -5 0 0  -5 -0.09999999999999964 0  -5 -0.2000000000000002 0  -5 -0.2999999999999998 0  -5 -0.4000000000000004 0  -5 -0.5 0  -5 -0.5999999999999996 0  -5 -0.7000000000000002 0  -5 -0.7999999999999998 0  -5 -0.9000000000000004 0  -5 -1 0  -5 -1.1 0  -5 -1.2 0  -5 -1.3 0  -5 -1.4 0  -5 -1.5 0  -5 -1.6 0  -5 -1.7 0  -5 -1.8 0  -5 -1.9 0  -5 -2 0  -5 -2.1 0  -5 -2.2 0  -5 -2.3 0  -5 -2.4 0  -5 -2.5 0  -5 -2.6 0  -5 -2.7 0  -5 -2.8 0  -5 -2.9 0  -5 -3 0  -5 -3.1 0  -5 -3.199999999999999 0  -5 -3.300000000000001 0  -5 -3.4 0  -5 -3.5 0  -5 -3.6 0  -5 -3.699999999999999 0  -5 -3.800000000000001 0  -5 -3.9 0  -5 -4 0  -5 -4.1 0  -5 -4.199999999999999 0  -5 -4.300000000000001 0  -5 -4.4 0  -5 -4.5 0  -5 -4.6 0  -5 -4.699999999999999 0  -5 -4.800000000000001 0  -5 -4.9 0  1.25784332921338 0.0914714146816528 0  1.235733350587231 0.1889125660852097 0  1.201520847981848 0.2860617465128591 0  1.158845024212861 0.3751032793427042 0  1.099901229725193 0.4663603108420386 0  1.032602469051591 0.5493814256558287 0  0.9544484192324474 0.6300909086634184 0  0.8674603257081284 0.7046904904950684 0  0.7756388642101034 0.7695331520088856 0  0.6744389858774944 0.827061142570265 0  0.5603222443401564 0.8793590186738715 0  0.4458325279401095 0.9244867875155991 0  0.3367810510347901 0.9556746096566503 0  0.2087827025799896 0.9792300673303805 0  0.08636843147666484 0.9968649494050752 0  -0.02589653172948778 1.000555871936354 0  -0.14352077610724 0.9873895630686762 0  -0.2753302253555248 0.9668235597775937 0  -0.3963009191643657 0.9422771741252379 0  -0.5047097059520611 0.9078889467784949 0  -0.6135697873482244 0.8616263283260697 0  -0.7154318201664301 0.8061637204099196 0  -0.8094763228189835 0.7423917891185143 0  -0.9011728731523747 0.6687984332890869 0  -0.9880162446455172 0.5882720930637564 0  -1.062863726936939 0.5061298304604555 0  -1.125519805903306 0.4223197460671331 0  -1.182347531444886 0.3265221773541374 0  -1.219177548938936 0.2411004802734675 0  -1.243170287036911 0.1481292091569723 0  -1.253065100393845 0.05311576341409755 0  -1.252974860176661 -0.05083789787451538 0  -1.24290453708238 -0.1451036100821901 0  -1.2188172930471 -0.2343398852485355 0  -1.176088476110719 -0.3304925642479992 0  -1.125808494219752 -0.4235705956301219 0  -1.065479663615126 -0.5056493823576228 0  -0.9906868024718269 -0.5872622110564455 0  -0.9044424954937933 -0.6667054832370638 0  -0.81399365835575 -0.7373008364865211 0  -0.7192243793059137 -0.7974760091006317 0  -0.6150741214967443 -0.8511529349794429 0  -0.4978277963884178 -0.9010238555944696 0  -0.3858874197067481 -0.9407570196690317 0  -0.2720542991748515 -0.9666759730305596 0  -0.1415924461931584 -0.9875278277334969 0  -0.02741100709412522 -0.9997486808096689 0  0.08395792696980028 -0.992476141180535 0  0.2162311056544513 -0.974362369980892 0  0.3401528652612121 -0.9535478779640415 0  0.450227520966878 -0.9230964380272354 0  0.5633983200580359 -0.8784954394933195 0  0.6759087200315858 -0.8267601174631096 0  0.775115243246036 -0.7709139986087366 0  0.8655368656692742 -0.7070596432091918 0  0.950536623804844 -0.6316056629351746 0  1.030432758003722 -0.5475245125196996 0  1.10236983326391 -0.4636972035822038 0  1.159930497265077 -0.3750043318942942 0  1.203439558605721 -0.284140803122444 0  1.236488660522923 -0.1884616895353783 0  1.258242457210373 -0.09187475009478431 0  -2.44850008227206 4.918006266727082 0  -2.448368278070563 -4.910374458404417 0  4.910293578498468 2.44780943810327 0  4.918431749726345 -2.449279139676761 0  2.446087273493346 -4.895585500010423 0  2.440523073204404 4.899352400823822 0  -4.910320812613444 -2.447836846529007 0  -4.910318133341071 2.447841138434066 0  -1.748451739002683 4.910845297264938 0  -1.744240462000868 -4.914292747125534 0  4.92043711217426 1.74399245664189 0  4.908943003916387 -1.747742824686206 0  -4.909238022776949 -1.74747796830784 0  -4.910062276720823 1.747224157353481 0  1.745719517084163 4.904688713641084 0  1.74712471461762 -4.89281112408574 0  -1.148775699306352 4.908591604015604 0  -1.129637965616505 -4.916526199663011 0  -4.908902578173084 -1.147822117967505 0  -4.908720341780547 1.14762301100409 0  1.143773740382168 -4.912700961978991 0  1.148784683862793 4.908577383867335 0  4.909041959576088 1.146096547065352 0  4.919908639083527 -1.151891450339882 0  -0.5466340869861643 -4.909760881685085 0  -0.5464209896206249 4.918470741624262 0  -4.907592518009517 -0.5486497080724342 0  -4.90761651031769 0.5472082742826618 0  4.906908202482304 -0.5489675655202623 0  4.918608570926609 0.5457320777376086 0  0.542412921956212 -4.896598922645933 0  0.5511471948966826 4.915283622415046 0  -4.91179089665938 -3.048209632965026 0  4.918369211453759 3.046231156290177 0  4.911298103664568 -3.048184307659887 0  -4.912639498632458 3.045302174815609 0  3.055233152762974 -4.917290836168937 0  -3.048558643772448 -4.91121971529334 0  3.052127604584116 4.913299327567654 0  -3.0480050941897 4.912110628050387 0  -4.906684712141761 -0.04990175108901136 0  0.0451175401745737 -4.911708737211146 0  0.04956405232595169 4.918757317860837 0  4.913766204865805 -0.05128474010299319 0  3.545566002886836 -4.918962790852859 0  -3.548841844416828 4.911857859
[...]
<PointData  Scalars="f_30"> 
<DataArray  type="Float64"  Name="f_30"  format="ascii">0.0000000000000000e+00  0.0000000000000000e+00  0.0000000000000000e+00  0.0000000000000000e+00  2.9204514334716339e-02  0.0000000000000000e+00  0.0000000000000000e+00  0.0000000000000000e+00  0.0000000000000000e+00  0.0000000000000000e+00  0.0000000000000000e+00  0.0000000000000000e+00  0.0000000000000000e+00  0.0000000000000000e+00  0.0000000000000000e+00  0.0000000000000000e+00  0.0000000000000000e+00  0.0000000000000000e+00  0.0000000000000000e+00  0.0000000000000000e+00  0.0000000000000000e+00  0.0000000000000000e+00  0.0000000000000000e+00  0.0000000000000000e+00  0.0000000000000000e+00  0.0000000000000000e+00  0.0000000000000000e+00  0.0000000000000000e+00  0.0000000000000000e+00  0.0000000000000000e+00  0.0000000000000000e+00  0.0000000000000000e+00  0.0000000000000000e+00  0.0000000000000000e+00  0.0000000000000000e+00  0.0000000000000000e+00  0.0000000000000000e+00  0.0000000000000000e+00  0.0000000000000000e+00  0.0000000000000000e+00  0.0000000000000000e+00  0.0000000000000000e+00  0.0000000000000000e+00  0.0000000000000000e+00  0.0000000000000000e+00  0.0000000000000000e+00  0.0000000000000000e+00  0.0000000000000000e+00  0.0000000000000000e+00  0.0000000000000000e+00  0.0000000000000000e+00  0.0000000000000000e+00  0.0000000000000000e+00  0.0000000000000000e+00  0.0000000000000000e+00  0.0000000000000000e+00  0.0000000000000000e+00  0.0000000000000000e+00  0.0000000000000000e+00  0.0000000000000000e+00  0.0000000000000000e+00  0.0000000000000000e+00  0.0000000000000000e+00  0.0000000000000000e+00  0.0000000000000000e+00  0.0000000000000000e+00  0.0000000000000000e+00  0.0000000000000000e+00  0.0000000000000000e+00  0.0000000000000000e+00  0.0000000000000000e+00  0.0000000000000000e+00  0.0000000000000000e+00  0.0000000000000000e+00  0.0000000000000000e+00  0.0000000000000000e+00  0.0000000000000000e+00  0.0000000000000000e+00  0.0000000000000000e+00  0.0000000000000000e+00  0.0000000000000000e+00  0.0000000000000000e+00  0.0000000000000000e+00  0.0000000000000000e+00  0.0000000000000000e+00  0.0000000000000000e+00  0.0000000000000000e+00  0.0000000000000000e+00  0.0000000000000000e+00  0.0000000000000000e+00  0.0000000000000000e+00  0.0000000000000000e+00  0.0000000000000000e+00  0.0000000000000000e+00  0.0000000000000000e+00  0.0000000000000000e+00  0.0000000000000000e+00  0.0000000000000000e+00  0.0000000000000000e+00  0.0000000000000000e+00  0.0000000000000000e+00  0.0000000000000000e+00  0.0000000000000000e+00  0.0000000000000000e+00  0.0000000000000000e+00  0.0000000000000000e+00  0.0000000000000000e+00  0.0000000000000000e+00  0.0000000000000000e+00  0.0000000000000000e+00  0.0000000000000000e+00  0.0000000000000000e+00  0.0000000000000000e+00  0.0000000000000000e+00  0.0000000000000000e+00  0.0000000000000000e+00  0.0000000000000000e+00  0.0000000000000000e+00  0.0000000000000000e+00  0.0000000000000000e+00  0.0000000000000000e+00  0.0000000000000000e+00  0.0000000000000000e+00  0.0000000000000000e+00  0.0000000000000000e+00  0.0000000000000000e+00  0.0000000000000000e+00  0.0000000000000000e+00  0.0000000000000000e+00  0.0000000000000000e+00  0.0000000000000000e+00  0.0000000000000000e+00  0.0000000000000000e+00  0.0000000000000000e+00  0.0000000000000000e+00  0.0000000000000000e+00  0.0000000000000000e+00  0.0000000000000000e+00  0.0000000000000000e+00  0.0000000000000000e+00  0.0000000000000000e+00  0.0000000000000000e+00  0.0000000000000000e+00  0.0000000000000000e+00  0.0000000000000000e+00  0.0000000000000000e+00  0.0000000000000000e+00  0.0000000000000000e+00  0.0000000000000000e+00  0.0000000000000000e+00  0.0000000000000000e+00  0.0000000000000000e+00  0.0000000000000000e+00  0.0000000000000000e+00  0.0000000000000000e+00  0.0000000000000000e+00  0.0000000000000000e+00  0.0000000000000000e+00  0.0000000000000000e+00  0.0000000000000000e+00  0.0000000000000000e+00  0.0000000000000000e+00  0.0000000000000000e+00  0.0000000000000000e+00  0.0000000000000000e+00  0.0000000000000000e+00  0.0000000000000000e+00  0.0000000000000000e+00  0.0000000000000000e+00  0.0000000000000000e+00  0.0000000000000000e+00  0.0000000000000000e+00  0.0000000000000000e+00  0.0000000000000000e+00  0.0000000000000000e+00  0.0000000000000000e+00  0.0000000000000000e+00  0.0000000000000000e+00  0.0000000000000000e+00  0.0000000000000000e+00  0.0000000000000000e+00  0.0000000000000000e+00  0.0000000000000000e+00  0.0000000000000000e+00  0.0000000000000000e+00  0.0000000000000000e+00  0.0000000000000000e+00  0.0000000000000000e+00  0.0000000000000000e+00  0.0000000000000000e+00  0.0000000000000000e+00  0.0000000000000000e+00  0.0000000000000000e+00  0.0000000000000000e+00  0.0000000000000000e+00  0.0000000000000000e+00  0.0000000000000000e+00  0.0000000000000000e+00  0.0000000000000000e+00  0.0000000000000000e+00  0.0000000000000000e+00  0.0000000000000000e+00  0.0000000000000000e+00  0.0000000000000000e+00  0.0000000000000000e+00  0.0000000000000000e+00  0.0000000000000000e+00  0.0000000000000000e+00  0.0000000000000000e+00  0.0000000000000000e+00  0.0000000000000000e+00  0.0000000000000000e+00  0.0000000000000000e+00  0.0000000000000000e+00  0.0000000000000000e+00  0.0000000000000000e+00  0.0000000000000000e+00  0.0000000000000000e+00  0.0000000000000000e+00  0.0000000000000000e+00  0.0000000000000000e+00  0.0000000000000000e+00  0.0000000000000000e+00  0.0000000000000000e+00  0.0000000000000000e+00  0.0000000000000000e+00  0.0000000000000000e+00  0.0000000000000000e+00  0.0000000000000000e+00  0.0000000000000000e+00  0.0000000000000000e+00  0.0000000000000000e+00  0.0000000000000000e+00  0.0000000000000000e+00  0.0000000000000000e+00  0.0000000000000000e+00  0.0000000000000000e+00  0.0000000000000000e+00  0.0000000000000000e+00  0.0000000000000000e+00  0.0000000000000000e+00  0.0000000000000000e+00  0.0000000000000000e+00  0.0000000000000000e+00  0.0000000000000000e+00  0.0000000000000000e+00  0.0000000000000000e+00  0.0000000000000000e+00  0.0000000000000000e+00  0.0000000000000000e+00  0.0000000000000000e+00  0.0000000000000000e+00  0.0000000000000000e+00  0.0000000000000000e+00  0.0000000000000000e+00  0.0000000000000000e+00  0.0000000000000000e+00  0.0000000000000000e+00  0.0000000000000000e+00  0.0000000000000000e+00  0.0000000000000000e+00  0.0000000000000000e+00  0.0000000000000000e+00  0.0000000000000000e+00  0.0000000000000000e+00  0.0000000000000000e+00  0.0000000000000000e+00  0.0000000000000000e+00  0.0000000000000000e+00  0.0000000000000000e+00  0.0000000000000000e+00  0.0000000000000000e+00  0.0000000000000000e+00  0.0000000000000000e+00  0.0000000000000000e+00  0.0000000000000000e+00  0.0000000000000000e+00  0.0000000000000000e+00  0.0000000000000000e+00  0.0000000000000000e+00  0.0000000000000000e+00  0.0000000000000000e+00  0.0000000000000000e+00  0.0000000000000000e+00  0.0000000000000000e+00  0.0000000000000000e+00  0.0000000000000000e+00  0.0000000000000000e+00  0.0000000000000000e+00  0.0000000000000000e+00  0.0000000000000000e+00  0.0000000000000000e+00  0.0000000000000000e+00  0.0000000000000000e+00  0.0000000000000000e+00  0.0000000000000000e+00  0.0000000000000000e+00  0.0000000000000000e+00  0.0000000000000000e+00  0.0000000000000000e+00  0.0000000000000000e+00  0.0000000000000000e+00  0.0000000000000000e+00  0.0000000000000000e+00  0.0000000000000000e+00  0.0000000000000000e+00  0.0000000000000000e+00  0.0000000000000000e+00  0.0000000000000000e+00  0.0000000000000000e+00  0.0000000000000000e+00  0.0000000000000000e+00  0.0000000000000000e+00  0.0000000000000000e+00  0.0000000000000000e+00  0.0000000000000000e+00  0.0000000000000000e+00  0.0000000000000000e+00  0.0000000000000000e+00  0.0000000000000000e+00  0.0000000000000000e+00  0.0000000000000000e+00  0.0000000000000000e+00  0.0000000000000000e+00  0.0000000000000000e+00  0.0000000000000000e+00  0.0000000000000000e+00  0.0000000000000000e+00  0.0000000000000000e+00  0.0000000000000000e+00  0.0000000000000000e+00  0.0000000000000000e+00  0.0000000000000000e+00  0.0000000000000000e+00  0.0000000000000000e+00  0.0000000000000000e+00  0.0000000000000000e+00  0.0000000000000000e+00  0.0000000000000000e+00  0.0000000000000000e+00  0.0000000000000000e+00  0.0000000000000000e+00  0.0000000000000000e+00  0.0000000000000000e+00  0.0000000000000000e+00  0.0000000000000000e+00  0.0000000000000000e+00  0.0000000000000000e+00  0.0000000000000000e+00  0.0000000000000000e+00  0.0000000000000000e+00  0.0000000000000000e+00  0.0000000000000000e+00  0.0000000000000000e+00  0.0000000000000000e+00  0.0000000000000000e+00  0.0000000000000000e+00  0.0000000000000000e+00  0.0000000000000000e+00  0.0000000000000000e+00  0.0000000000000000e+00  0.0000000000000000e+00  0.0000000000000000e+00  0.0000000000000000e+00  0.0000000000000000e+00  0.0000000000000000e+00  0.0000000000000000e+00  0.0000000000000000e+00  0.0000000000000000e+00  0.0000000000000000e+00  0.0000000000000000e+00  0.0000000000000000e+00  0.0000000000000000e+00  0.0000000000000000e+00  0.0000000000000000e+00  0.0000000000000000e+00  0.0000000000000000e+00  0.0000000000000000e+00  0.0000000000000000e+00  0.0000000000000000e+00  0.0000000000000000e+00  0.0000000000000000e+00  0.0000000000000000e+00  0.0000000000000000e+00  0.0000000000000000e+00  0.0000000000000000e+00  0.0000000000000000e+00  0.0000000000000000e+00  0.0000000000000000e+00  0.0000000000000000e+00  0.0000000000000000e+00  0.0000000000000000e+00  0.0000000000000000e+00  0.0000000000000000e+00  0.0000000000000000e+00  0.0000000000000000e+00  0.0000000000000000e+00  0.0000000000000000e+00  0.0000000000000000e+00  0.0000000000000000e+00  0.0000000000000000e+00  3.0561481434228467e-02  2.4531604733208857e-02  1.8328448529617576e-02  2.1289422267704229e-02  2.2916177396502608e-02  2.4502511820814588e-02  2.7661172088393946e-02  2.0074875797575727e-02  2.3941500488087238e-02  2.7407476159635655e-02  1.6973187816680873e-02  2.9951690681852036e-02  3.7779003039147628e-02  1.0197981141041566e-02  2.9106747068270516e-02  3.3867896982501207e-02  9.9091646653233362e-03  1.5346670409218967e-02  3.0243298982924213e-02  2.7054111761681481e-02  2.9625107817932667e-02  2.5515726647935780e-02  2.3640572301640989e-02  2.2540794382607449e-02  1.8716095254235472e-02  1.9388909542218714e-02  2.2205969173815194e-02  2.2727801084321295e-02  2.6496219365130715e-02  2.2914980012608221e-02  1.9599649802726972e-02  2.1223298683413338e-02  1.8258209155906438e-02  2.7117627321815520e-02  1.6461661184035400e-02  2.8113599998731593e-02  2.2898979676404703e-02  2.1018875723802854e-02  2.6175569600471526e-02  2.6457746710972466e-02  1.5805376575531761e-02  2.2826811073523835e-02  1.5764021720561395e-02  3.8044496917147737e-02  2.2419596727681453e-02  1.3482991482224952e-02  5.6830999415194865e-02  2.7070839643262380e-02  7.8741336967744300e-03  3.2639666891257177e-02  3.0531855543740324e-02  1.6226019450679932e-02  2.7541957304370222e-02  3.3926286789682077e-02  3.0159734164530938e-02  1.9800721025562084e-02  1.1448967174506731e-02  2.7721677223519588e-02  3.5920679068596001e-02  2.6723913577091994e-02  2.3061429020332182e-02  2.8446544184334000e-02  3.6120482032739442e-27  -1.3176445480104708e-27  -2.6372986232750533e-27  -2.9362107330751032e-27  -1.2753398514610727e-27  -5.3165905903504828e-28  -2.0321713104301324e-28  1.8085996420376648e-27  7.1905302790149731e-27  4.1261041414111440e-27  -7.0167484395534286e-25  -6.6245813622439420e-25  5.4015522947126227e-25  1.1894523967004133e-24  3.7093476976077722e-26  3.0578377634375511e-26  -4.7817372892315049e-26  -3.0032643774820680e-26  -1.1242594564197090e-22  -1.6505401299906418e-22  -4.3276115498296210e-26  -4.9235551109326076e-26  4.7612434430806696e-23  4.7758636756903184e-23  -4.7392236337301909e-27  -3.9752183449878272e-26  -7.5369923255195457e-21  -7.1236227147851889e-21  -4.5758828064190628e-21  -4.8274275359931277e-21  8.3206791036635348e-26  -2.6525698857707076e-26  7.1703364706212467e-30  -8.8439255534440432e-30  -9.0742299654344368e-30  1.6282532999039290e-29  1.9760132562389553e-28  3.9844733714481699e-28  2.8927919822003429e-28  3.1818420149654741e-28  3.5536294992604297e-20  6.3555808938894047e-26  1.2229156743731873e-26  3.8447621791636740e-20  -9.0965122127535417e-30  -9.9263711600126548e-30  -6.2620363565301401e-30  2.3186068970693668e-31  2.4329242337972296e-31  2.3940961899915362e-31  1.4562222883726096e-31  -9.9633774601841327e-30  -6.1356137247020295e-33  -2.3069041019358351e-32  1.1371218781957558e-31  -4.0599791760463235e-33  2.5154657235400312e-32  -6.0625809308353907e-33  1.3756192794268884e-31  -9.9017527899915011e-34  -1.2942977208179152e-33  -4.6819490179550570e-34  -1.9574415152822704e-34  1.4856513223359040e-34  1.3409178432211336e-34  7.7341140710088767e-35  7.3736449747338277e-36  -1.6096916308883832e-33  2.7758151105366807e-20  4.6291723827681423e-26  -1.3627620141262364e-26  1.3821898611616175e-20  1.1675545271701759e-25  -3.4725221584705047e-24  1.3394908259509462e-21  8.8430431914354524e-22  -3.2579679047462514e-24  2.7353659457633926e-26  7.8782463044297757e-26  -5.2877841688437391e-26  -3.8571611463142940e-26  -1.1547888998550753e-23  3.9597123422296062e-22  4.1482014482726665e-22  -1.1338401961109595e-23  -2.5503919813650044e-27  8.8214543374286248e-26  -4.0401675139551488e-27  5.5568451601873586e-27  -6.5560544232940292e-27  8.9114994613433072e-26  1.1270768573232289e-25  -4.0131670795096827e-27  -2.4128220745014329e-27  3.0464792157424550e-26  2.8830737153567556e-26  -1.5704723411223581e-28  -7.7610586476114466e-28  -1.2224600824656539e-27  2.0590619414498950e-28  6.3879530703577318e-28  6.7275882758749162e-29  -1.5133884604023222e-28  -9.2252197882506457e-28  1.2567466422525354e-35  1.8952179880210497e-35  7.5316855932277461e-36  -1.6946038182863966e-36  6.4699458850199790e-36  1.5368866286005498e-36  1.0557458804181376e-35  5.2340243537156229e-37  2.7877468770837482e-20  1.2036755481370940e-25  1.1446741908528722e-25  1.3760368741057366e-20  -1.7862907010299917e-27  4.4955673771044172e-27  4.7956970404273241e-27  -7.1561494584902324e-27  -1.1865849358562857e-26  -6.9819096528581792e-29  -8.1942404821498379e-27  -2.0294422555292142e-26  3.5252782469624389e-30  -1.1192112378919346e-28  -7.3961222945535623e-29  2.8341012847315974e-30  3.4754374862026574e-30  -9.6395371450913841e-29  -1.2779727105311680e-28  1.1569377034164119e-30  -3.7499933364950643e-33  3.6441397484013405e-34  1.2052974952754445e-30  -1.2997731645823256e-32  2.7360646250806391e-31  -1.5412842509174896e-32  -3.6562396436834182e-32  1.2126587236230483e-33  8.1374392791965883e-31  -1.3325626070810180e-32  -1.3655503854894330e-33  2.9198296777753022e-34  -4.4317815034989623e-32  1.2637524258561810e-33  5.2319041441595220e-31  -1.7094969319131991e-32  -3.7014104252226557e-36  -1.7453799011278610e-36  -2.9595981766373648e-36  -3.4662520708490160e-36  3.4840952176490559e-20  -1.2995853840587170e-19  -8.5771485478861386e-20  4.2076950867020551e-19  2.0515163019218991e-19  -1.2097206272277460e-18  -3.1622077591297499e-19  2.8705394560567296e-18  -2.7975271362319988e-19  -4.3099805340300162e-18  4.7474873578706668e-18  -4.6496826010426997e-18  -2.3363936490131299e-17  6.8991206919689333e-17  8.0970998064499526e-17  -3.3342388023184030e-16  -2.1158947427266519e-16  1.1328876425665122e-15  3.8162538937829137e-16  -2.8846908350685041e-15  -2.0353347551076963e-16  -4.7525366588494088e-15  4.9165521559318287e-15  -1.6200971398104615e-15  -1.5863606716345506e-15  7.3808900583421077e-15  -2.5145867102811379e-14  -1.5924053241227268e-14  9.9126088738873895e-14  9.7169965068544011e-15  -1.8521733020198015e-13  5.6053597053858053e-14  -3.7650738757414327e-13  2.9176700328680704e-14  -1.9703582454630443e-13  8.8654755107101360e-13  1.5536386029972963e-13  -2.2293420416227932e-12  7.7802385474810351e-13  -1.2244156622232290e-13  -2.4767512573597678e-12  1.3240151117567260e-11  -1.0637072409757804e-13  -2.1326473551418787e-11  -2.3720649857428022e-11  1.5576240453247054e-11  -4.0435927952200302e-11  -2.6197003061252022e-11  -3.0475883122832931e-13  1.7310816199850980e-11  -4.9867774605461518e-11  -2.3475122191871866e-11  -1.2717079372136465e-12  1.8382142012168600e-11  -2.7278772684504020e-12  -3.2804599005041164e-12  -1.3737042122233527e-11  1.8262690665952247e-11  -1.8308161164161762e-12  -6.7099888733192792e-12  1.4874960411412893e-12  3.6898659321700097e-13  1.1085111006917271e-11  -8.5790468886316434e-12  9.5890383424024123e-13  3.5615961972306723e-12  -1.4405375653732243e-11  2.2790839293694865e-12  -9.7888641096394300e-13  2.8368203713615925e-13  -4.9727543268075175e-12  2.1933223957852203e-12  -8.9154009542719075e-12  1.4121263911447028e-13  1.4211341125481237e-12  2.1923267301267862e-12  -3.5655714124460512e-12  2.5691767165844423e-11  -9.9231806648222709e-12  4.6010827068269016e-11  -1.3699262007650935e-11  5.3262919556041255e-11  3.2758500148882312e-12  -1.4243325896072486e-11  5.2221815454911851e-11  -1.3903440337541310e-11  5.2099288464485148e-11  -1.4170570959751050e-11  5.2926277811898051e-11  -1.3636912861656346e-11  4.6054131363655059e-11  -1.0050909757473306e-11  2.6443281038471154e-11  -3.7217237758047807e-12  1.9323551218514094e-12  3.2816619699306756e-12  -1.3958258889290070e-10  2.5161468855248157e+00  1.9658963927052148e-12  -1.3155944064423992e-11  3.9195805465525685e-12  -1.2890349408116172e-11  2.5576272102294482e+00  2.4091924297183763e-12  -4.4099300087568086e-12  2.4609248431803987e+00  1.7710173680394586e-13  1.8657597117688864e-12  1.7126551066222245e-12  -1.0303924466290110e-11  2.3502661328333774e-12  -4.7667389222315627e-12  -1.9087996005231769e-10  -3.2978787782312955e-13  1.8417468484187605e-13  2.4651920028817949e-12  1.3466954098123778e-12  -1.3792096404132010e-11  3.1901672276931849e-12  -6.8568055551869931e-12  4.4375740646661255e-11  5.1245348446607468e-12  1.7259962841243704e-12  -1.0570516883056937e-11  2.9626056172062948e-11  2.7854183112432803e-11  -3.0701605770053575e-12  -2.6888977571946820e-12  -2.9985516507699479e-11  2.4133015976629302e-11  -4.4954093415166765e-12  2.5560711759505431e-12  -4.7096073345063077e-11  1.4858904403230701e-11  -3.5627269406167753e-12  2.0491003176236997e-12  -3.4327660222102407e-11  1.3014940408098487e-11  -1.6575808642197510e-11  -2.7056081346708968e-11  7.5550988655351344e-13  1.4723932317802698e-11  -2.5696535359667590e-11  -3.4308082991205992e-11  1.0559177402268242e-12  1.9259375510507237e-11  -3.8110383974218202e-11  -4.0370744677304431e-11  3.3822975385576579e-10  -1.0485868227178512e-10  3.4696151278217554e-11  2.7917384794947599e-10  -1.0158132437441886e-11  -1.5825059394870993e-10  7.0791284394647190e-10  -9.7380029769710548e-11  -3.1622600381573864e-10  3.3496972078086013e-10  -1.7630496264624306e-09  3.1759755250866004e-10  5.2654156174936348e-10  -9.3929412144600862e-10  5.5420965701536261e-11  4.6164495270008854e-10  -2.0806084264717936e-09  4.1348418087517452e-10  4.8292146048907118e-11  -7.7766659876398073e-10  6.2573158722826203e-09  -2.5229849681898330e-09  1.1102162290129376e-08  -2.6965593304284144e-09  6.0759654881912968e-09  3.0404662493942082e-10  -1.0068941931445430e-08  5.1679342363264961e-09  -2.7534879541635257e-08  8.9690941390134237e-09  -3.7318260890337640e-08  1.0594690621329096e-08  -4.0077991092314988e-08  1.0586069445285642e-08  -3.7174712578105778e-08  8.7248265329957744e-09  -2.6310872995848581e-08  5.0685658252342451e-09  -1.1416175434645643e-08  -1.8825310923879499e-09  -8.3021180997091506e-10  3.6490832808348253e-10  9.5299199460108843e-11  -6.0274821302913463e-11  2.9172222454952092e-12  6.9893086903527443e-12  -6.6547244799616510e-12  1.9364285216781049e-13  2.8335948012721220e-12  -1.2437678731539297e-11  -4.7751674057396098e-13  4.5643838613388380e-10  3.2651066025019242e-12  -1.0225753876334800e-11  1.8589516843592837e-12  -3.3190771058841093e-12  1.0211851254440793e-13  1.5019760950106889e-12  -5.0334253445616488e-13  1.3507405