<?xml version="1.0"?>
<VTKFile type="UnstructuredGrid"  version="0.1"  >
<UnstructuredGrid>
<Piece  NumberOfPoints="11902" NumberOfCells="23402">
<Points>
<DataArray  type="Float64"  NumberOfComponents="3"  format="ascii">-5 -5 0  5 -5 0  5 5 0  -5 5 0  1.226288817375398 0.001374090916059526 0  -4.9 -5 0  -4.8 -5 0  -4.7 -5 0  -4.6 -5 0  -4.5 -5 0  -4.4 -5 0  -4.3 -5 0  -4.2 -5 0  -4.1 -5 0  -4 -5 0  -3.9 -5 0  -3.8 -5 0  -3.7 -5 0  -3.6 -5 0  -3.5 -5 0  -3.4 -5 0  -3.3 -5 0  -3.2 -5 0  -3.1 -5 0  -3 -5 0  -2.9 -5 0  -2.8 -5 0  -2.7 -5 0  -2.6 -5 0  -2.5 -5 0  -2.4 -5 0  -2.3 -5 0  -2.2 -5 0  -2.1 -5 0  -2 -5 0  -1.9 -5 0  -1.8 -5 0  -1.7 -5 0  -1.6 -5 0  -1.5 -5 0  -1.4 -5 0  -1.3 -5 0  -1.2 -5 0  -1.1 -5 0  -1 -5 0  -0.9000000000000004 -5 0  -0.7999999999999998 -5 0  -0.7000000000000002 -5 0  -0.5999999999999996 -5 0  -0.5 -5 0  -0.4000000000000004 -5 0  -0.2999999999999998 -5 0  -0.2000000000000002 -5 0  -0.09999999999999964 -5 0  0 -5 0  0.09999999999999964 -5 0  0.2000000000000002 -5 0  0.2999999999999998 -5 0  0.4000000000000004 -5 0  0.5 -5 0  0.5999999999999996 -5 0  0.7000000000000002 -5 0  0.7999999999999998 -5 0  0.9000000000000004 -5 0  1 -5 0  1.1 -5 0  1.2 -5 0  1.3 -5 0  1.4 -5 0  1.5 -5 0  1.6 -5 0  1.7 -5 0  1.8 -5 0  1.9 -5 0  2 -5 0  2.1 -5 0  2.2 -5 0  2.3 -5 0  2.4 -5 0  2.5 -5 0  2.6 -5 0  2.7 -5 0  2.8 -5 0  2.9 -5 0  3 -5 0  3.1 -5 0  3.199999999999999 -5 0  3.300000000000001 -5 0  3.4 -5 0  3.5 -5 0  3.6 -5 0  3.699999999999999 -5 0  3.800000000000001 -5 0  3.9 -5 0  4 -5 0  4.1 -5 0  4.199999999999999 -5 0  4.300000000000001 -5 0  4.4 -5 0  4.5 -5 0  4.6 -5 0  4.699999999999999 -5 0  4.800000000000001 -5 0  4.9 -5 0  5 -4.9 0  5 -4.8 0  5 -4.7 0  5 -4.6 0  5 -4.5 0  5 -4.4 0  5 -4.3 0  5 -4.2 0  5 -4.1 0  5 -4 0  5 -3.9 0  5 -3.8 0  5 -3.7 0  5 -3.6 0  5 -3.5 0  5 -3.4 0  5 -3.3 0  5 -3.2 0  5 -3.1 0  5 -3 0  5 -2.9 0  5 -2.8 0  5 -2.7 0  5 -2.6 0  5 -2.5 0  5 -2.4 0  5 -2.3 0  5 -2.2 0  5 -2.1 0  5 -2 0  5 -1.9 0  5 -1.8 0  5 -1.7 0  5 -1.6 0  5 -1.5 0  5 -1.4 0  5 -1.3 0  5 -1.2 0  5 -1.1 0  5 -1 0  5 -0.9000000000000004 0  5 -0.7999999999999998 0  5 -0.7000000000000002 0  5 -0.5999999999999996 0  5 -0.5 0  5 -0.4000000000000004 0  5 -0.2999999999999998 0  5 -0.2000000000000002 0  5 -0.09999999999999964 0  5 0 0  5 0.09999999999999964 0  5 0.2000000000000002 0  5 0.2999999999999998 0  5 0.4000000000000004 0  5 0.5 0  5 0.5999999999999996 0  5 0.7000000000000002 0  5 0.7999999999999998 0  5 0.9000000000000004 0  5 1 0  5 1.1 0  5 1.2 0  5 1.3 0  5 1.4 0  5 1.5 0  5 1.6 0  5 1.7 0  5 1.8 0  5 1.9 0  5 2 0  5 2.1 0  5 2.2 0  5 2.3 0  5 2.4 0  5 2.5 0  5 2.6 0  5 2.7 0  5 2.8 0  5 2.9 0  5 3 0  5 3.1 0  5 3.199999999999999 0  5 3.300000000000001 0  5 3.4 0  5 3.5 0  5 3.6 0  5 3.699999999999999 0  5 3.800000000000001 0  5 3.9 0  5 4 0  5 4.1 0  5 4.199999999999999 0  5 4.300000000000001 0  5 4.4 0  5 4.5 0  5 4.6 0  5 4.699999999999999 0  5 4.800000000000001 0  5 4.9 0  4.9 5 0  4.8 5 0  4.7 5 0  4.6 5 0  4.5 5 0  4.4 5 0  4.3 5 0  4.2 5 0  4.1 5 0  4 5 0  3.9 5 0  3.8 5 0  3.7 5 0  3.6 5 0  3.5 5 0  3.4 5 0  3.3 5 0  3.2 5 0  3.1 5 0  3 5 0  2.9 5 0  2.8 5 0  2.7 5 0  2.6 5 0  2.5 5 0  2.4 5 0  2.3 5 0  2.2 5 0  2.1 5 0  2 5 0  1.9 5 0  1.8 5 0  1.7 5 0  1.6 5 0  1.5 5 0  1.4 5 0  1.3 5 0  1.2 5 0  1.1 5 0  1 5 0  0.9000000000000004 5 0  0.7999999999999998 5 0  0.7000000000000002 5 0  0.5999999999999996 5 0  0.5 5 0  0.4000000000000004 5 0  0.2999999999999998 5 0  0.2000000000000002 5 0  0.09999999999999964 5 0  0 5 0  -0.09999999999999964 5 0  -0.2000000000000002 5 0  -0.2999999999999998 5 0  -0.4000000000000004 5 0  -0.5 5 0  -0.5999999999999996 5 0  -0.7000000000000002 5 0  -0.7999999999999998 5 0  -0.9000000000000004 5 0  -1 5 0  -1.1 5 0  -1.2 5 0  -1.3 5 0  -1.4 5 0  -1.5 5 0  -1.6 5 0  -1.7 5 0  -1.8 5 0  -1.9 5 0  -2 5 0  -2.1 5 0  -2.2 5 0  -2.3 5 0  -2.4 5 0  -2.5 5 0  -2.6 5 0  -2.7 5 0  -2.8 5 0  -2.9 5 0  -3 5 0  -3.1 5 0  -3.199999999999999 5 0  -3.300000000000001 5 0  -3.4 5 0  -3.5 5 0  -3.6 5 0  -3.699999999999999 5 0  -3.800000000000001 5 0  -3.9 5 0  -4 5 0  -4.1 5 0  -4.199999999999999 5 0  -4.300000000000001 5 0  -4.4 5 0  -4.5 5 0  -4.6 5 0  -4.699999999999999 5 0  -4.800000000000001 5 0  -4.9 5 0  -5 4.9 0  -5 4.8 0  -5 4.7 0  -5 4.6 0  -5 4.5 0  -5 4.4 0  -5 4.3 0  -5 4.2 0  -5 4.1 0  -5 4 0  -5 3.9 0  -5 3.8 0  -5 3.7 0  -5 3.6 0  -5 3.5 0  -5 3.4 0  -5 3.3 0  -5 3.2 0  -5 3.1 0  -5 3 0  -5 2.9 0  -5 2.8 0  -5 2.7 0  -5 2.6 0  -5 2.5 0  -5 2.4 0  -5 2.3 0  -5 2.2 0  -5 2.1 0  -5 2 0  -5 1.9 0  -5 1.8 0  -5 1.7 0  -5 1.6 0  -5 1.5 0  -5 1.4 0  -5 1.3 0  -5 1.2 0  -5 1.1 0  -5 1 0  -5 0.9000000000000004 0  -5 0.7999999999999998 0  -5 0.7000000000000002 0  -5 0.5999999999999996 0  -5 0.5 0  -5 0.4000000000000004 0  -5 0.2999999999999998 0  -5 0.2000000000000002 0  -5 0.09999999999999964 0  -5 0 0  -5 -0.09999999999999964 0  -5 -0.2000000000000002 0  -5 -0.2999999999999998 0  -5 -0.4000000000000004 0  -5 -0.5 0  -5 -0.5999999999999996 0  -5 -0.7000000000000002 0  -5 -0.7999999999999998 0  -5 -0.9000000000000004 0  -5 -1 0  -5 -1.1 0  -5 -1.2 0  -5 -1.3 0  -5 -1.4 0  -5 -1.5 0  -5 -1.6 0  -5 -1.7 0  -5 -1.8 0  -5 -1.9 0  -5 -2 0  -5 -2.1 0  -5 -2.2 0  -5 -2.3 0  -5 -2.4 0  -5 -2.5 0  -5 -2.6 0  -5 -2.7 0  -5 -2.8 0  -5 -2.9 0  -5 -3 0  -5 -3.1 0  -5 -3.199999999999999 0  -5 -3.300000000000001 0  -5 -3.4 0  -5 -3.5 0  -5 -3.6 0  -5 -3.699999999999999 0  -5 -3.800000000000001 0  -5 -3.9 0  -5 -4 0  -5 -4.1 0  -5 -4.199999999999999 0  -5 -4.300000000000001 0  -5 -4.4 0  -5 -4.5 0  -5 -4.6 0  -5 -4.699999999999999 0  -5 -4.800000000000001 0  -5 -4.9 0  1.219783852486055 0.09787634773323863 0  1.200078488209622 0.1953861561896412 0  1.167654930972895 0.2922391584057644 0  1.125907987774822 0.3827477414651512 0  1.071181893465814 0.47325643308657 0  1.00738613343005 0.5581481468269766 0  0.9321664275144574 0.6379164746368365 0  0.847938634283148 0.7111073031814162 0  0.757066344354167 0.7765274726822919 0  0.6569883204621322 0.834630010621092 0  0.5495388743653887 0.8862565206012233 0  0.4389388258425869 0.9287488953412315 0  0.3264312954626829 0.9616370806117439 0  0.2065927779354587 0.9837367993868245 0  0.08928744230616346 1.000056951051439 0  -0.02769572664972347 1.002966994396451 0  -0.145128545687958 0.9916728742331026 0  -0.2665593878704557 0.973612485271929 0  -0.3832837853689614 0.9480947907285913 0  -0.4938095166104322 0.9117004118964345 0  -0.6004741581389007 0.8657142600405898 0  -0.7016917245520945 0.811128179849148 0  -0.7953794802751666 0.7475017807635995 0  -0.8835249885391935 0.6760318389844325 0  -0.9649804928750766 0.5975032096399914 0  -1.035565187865452 0.5156744000547591 0  -1.095950268086517 0.429224449631431 0  -1.145258655883268 0.3375507691204664 0  -1.18201617319531 0.2446981195819067 0  -1.206367726585977 0.1491785073573384 0  -1.21855934712484 0.05070970111580528 0  -1.218528079207355 -0.04870274631578744 0  -1.206237197882252 -0.1467053603610133 0  -1.182291272856975 -0.2420628749513118 0  -1.144141188763856 -0.3374010372116198 0  -1.09621788320303 -0.4283581992206499 0  -1.036747499647675 -0.5150206991690491 0  -0.9668799275831939 -0.5962978699267117 0  -0.8859479183621222 -0.673552475910061 0  -0.7977201901907588 -0.7436994809560359 0  -0.7024435180831842 -0.8047596524456887 0  -0.60036603346614 -0.8586696962654741 0  -0.4904105293120596 -0.9066167118651183 0  -0.3787699150673223 -0.9451273793136715 0  -0.2633306696612493 -0.9726392798289504 0  -0.1437623586843089 -0.990994899396835 0  -0.02774711734209567 -1.002042798691968 0  0.08975342901223483 -0.9965021910803834 0  0.2103783712348792 -0.9810850376972654 0  0.328479773524178 -0.9599893292259709 0  0.4427766282296806 -0.927353528910814 0  0.5515487974050798 -0.8853350104551095 0  0.6578049498610888 -0.8344659891733334 0  0.7571673018885573 -0.7776601071866021 0  0.8479858310645363 -0.711970179035174 0  0.9316013346875851 -0.6375274269796495 0  1.005499676380584 -0.5575101356595142 0  1.071036294288309 -0.4725251361890551 0  1.126879642655627 -0.38279606550181 0  1.169238926187264 -0.2904620973604984 0  1.20048396825567 -0.1944977795335981 0  1.219871210886493 -0.09742877361473393 0  -2.448674630922977 4.918321338692125 0  -2.448558978852635 -4.910718552557845 0  4.910647895803492 2.448053616403715 0  4.918753316502143 -2.449500718351965 0  2.446308846773638 -4.895989136923102 0  2.440737658065428 4.89974321772702 0  -4.91067323266698 -2.448078352303534 0  -4.910670942164715 2.448082214611367 0  -1.748633026082973 4.911301847150455 0  -1.744414686710797 -4.91473157685976 0  4.92088441394161 1.744213486907891 0  4.909453795739079 -1.747995528698925 0  -4.909744608317149 -1.747727473119613 0  -4.910564719205291 1.747470646675542 0  1.745913223905911 4.905179639773712 0  1.747341279464226 -4.893361930944489 0  -1.148920303497952 4.909147131833728 0  -1.129768849759138 -4.917034650675395 0  -4.909536571983984 -1.148027438960679 0  -4.909355980613258 1.147827726593018 0  1.14390996381516 -4.913232664605653 0  1.148929287956635 4.909134782339784 0  4.909679329041325 1.14630368296857 0  4.920468615406093 -1.15207398787032 0  -0.5467100533798351 -4.910366725473868 0  -0.546488674752576 4.919019299856792 0  -4.908328987001374 -0.548763903402811 0  -4.908353130476727 0.5473209875005184 0  4.907654913028585 -0.5490833613209966 0  4.919261757143588 0.5458331464119632 0  0.5424964889820202 -4.897294604922005 0  0.5512181150261551 4.915854222956345 0  -4.912028770730953 -3.048409278969676 0  4.918590632342786 3.046417940712892 0  4.911538036869134 -3.048386799363881 0  -4.912875847756583 3.045499902045876 0  3.055388303500468 -4.917520544250101 0  -3.048725740585476 -4.911465688020773 0  3.052290950027009 4.913541007931203 0  -3.048170722548349 4.912354336862911 0  -4.907459479865353 -0.04991323780203689 0  0.0451224335401081 -4.912319697083871 0  0.04957036332719311 4.919320741161982 0  4.91448684041444 -0.05129497734685201 0  3.545688488006871 -4.919123039898275 0  -3.548974992482608 4.9120305206480
[...]
<PointData  Scalars="f_30"> 
<DataArray  type="Float64"  Name="f_30"  format="ascii">0.0000000000000000e+00  0.0000000000000000e+00  0.0000000000000000e+00  0.0000000000000000e+00  1.6530768787576758e-01  0.0000000000000000e+00  0.0000000000000000e+00  0.0000000000000000e+00  0.0000000000000000e+00  0.0000000000000000e+00  0.0000000000000000e+00  0.0000000000000000e+00  0.0000000000000000e+00  0.0000000000000000e+00  0.0000000000000000e+00  0.0000000000000000e+00  0.0000000000000000e+00  0.0000000000000000e+00  0.0000000000000000e+00  0.0000000000000000e+00  0.0000000000000000e+00  0.0000000000000000e+00  0.0000000000000000e+00  0.0000000000000000e+00  0.0000000000000000e+00  0.0000000000000000e+00  0.0000000000000000e+00  0.0000000000000000e+00  0.0000000000000000e+00  0.0000000000000000e+00  0.0000000000000000e+00  0.0000000000000000e+00  0.0000000000000000e+00  0.0000000000000000e+00  0.0000000000000000e+00  0.0000000000000000e+00  0.0000000000000000e+00  0.0000000000000000e+00  0.0000000000000000e+00  0.0000000000000000e+00  0.0000000000000000e+00  0.0000000000000000e+00  0.0000000000000000e+00  0.0000000000000000e+00  0.0000000000000000e+00  0.0000000000000000e+00  0.0000000000000000e+00  0.0000000000000000e+00  0.0000000000000000e+00  0.0000000000000000e+00  0.0000000000000000e+00  0.0000000000000000e+00  0.0000000000000000e+00  0.0000000000000000e+00  0.0000000000000000e+00  0.0000000000000000e+00  0.0000000000000000e+00  0.0000000000000000e+00  0.0000000000000000e+00  0.0000000000000000e+00  0.0000000000000000e+00  0.0000000000000000e+00  0.0000000000000000e+00  0.0000000000000000e+00  0.0000000000000000e+00  0.0000000000000000e+00  0.0000000000000000e+00  0.0000000000000000e+00  0.0000000000000000e+00  0.0000000000000000e+00  0.0000000000000000e+00  0.0000000000000000e+00  0.0000000000000000e+00  0.0000000000000000e+00  0.0000000000000000e+00  0.0000000000000000e+00  0.0000000000000000e+00  0.0000000000000000e+00  0.0000000000000000e+00  0.0000000000000000e+00  0.0000000000000000e+00  0.0000000000000000e+00  0.0000000000000000e+00  0.0000000000000000e+00  0.0000000000000000e+00  0.0000000000000000e+00  0.0000000000000000e+00  0.0000000000000000e+00  0.0000000000000000e+00  0.0000000000000000e+00  0.0000000000000000e+00  0.0000000000000000e+00  0.0000000000000000e+00  0.0000000000000000e+00  0.0000000000000000e+00  0.0000000000000000e+00  0.0000000000000000e+00  0.0000000000000000e+00  0.0000000000000000e+00  0.0000000000000000e+00  0.0000000000000000e+00  0.0000000000000000e+00  0.0000000000000000e+00  0.0000000000000000e+00  0.0000000000000000e+00  0.0000000000000000e+00  0.0000000000000000e+00  0.0000000000000000e+00  0.0000000000000000e+00  0.0000000000000000e+00  0.0000000000000000e+00  0.0000000000000000e+00  0.0000000000000000e+00  0.0000000000000000e+00  0.0000000000000000e+00  0.0000000000000000e+00  0.0000000000000000e+00  0.0000000000000000e+00  0.0000000000000000e+00  0.0000000000000000e+00  0.0000000000000000e+00  0.0000000000000000e+00  0.0000000000000000e+00  0.0000000000000000e+00  0.0000000000000000e+00  0.0000000000000000e+00  0.0000000000000000e+00  0.0000000000000000e+00  0.0000000000000000e+00  0.0000000000000000e+00  0.0000000000000000e+00  0.0000000000000000e+00  0.0000000000000000e+00  0.0000000000000000e+00  0.0000000000000000e+00  0.0000000000000000e+00  0.0000000000000000e+00  0.0000000000000000e+00  0.0000000000000000e+00  0.0000000000000000e+00  0.0000000000000000e+00  0.0000000000000000e+00  0.0000000000000000e+00  0.0000000000000000e+00  0.0000000000000000e+00  0.0000000000000000e+00  0.0000000000000000e+00  0.0000000000000000e+00  0.0000000000000000e+00  0.0000000000000000e+00  0.0000000000000000e+00  0.0000000000000000e+00  0.0000000000000000e+00  0.0000000000000000e+00  0.0000000000000000e+00  0.0000000000000000e+00  0.0000000000000000e+00  0.0000000000000000e+00  0.0000000000000000e+00  0.0000000000000000e+00  0.0000000000000000e+00  0.0000000000000000e+00  0.0000000000000000e+00  0.0000000000000000e+00  0.0000000000000000e+00  0.0000000000000000e+00  0.0000000000000000e+00  0.0000000000000000e+00  0.0000000000000000e+00  0.0000000000000000e+00  0.0000000000000000e+00  0.0000000000000000e+00  0.0000000000000000e+00  0.0000000000000000e+00  0.0000000000000000e+00  0.0000000000000000e+00  0.0000000000000000e+00  0.0000000000000000e+00  0.0000000000000000e+00  0.0000000000000000e+00  0.0000000000000000e+00  0.0000000000000000e+00  0.0000000000000000e+00  0.0000000000000000e+00  0.0000000000000000e+00  0.0000000000000000e+00  0.0000000000000000e+00  0.0000000000000000e+00  0.0000000000000000e+00  0.0000000000000000e+00  0.0000000000000000e+00  0.0000000000000000e+00  0.0000000000000000e+00  0.0000000000000000e+00  0.0000000000000000e+00  0.0000000000000000e+00  0.0000000000000000e+00  0.0000000000000000e+00  0.0000000000000000e+00  0.0000000000000000e+00  0.0000000000000000e+00  0.0000000000000000e+00  0.0000000000000000e+00  0.0000000000000000e+00  0.0000000000000000e+00  0.0000000000000000e+00  0.0000000000000000e+00  0.0000000000000000e+00  0.0000000000000000e+00  0.0000000000000000e+00  0.0000000000000000e+00  0.0000000000000000e+00  0.0000000000000000e+00  0.0000000000000000e+00  0.0000000000000000e+00  0.0000000000000000e+00  0.0000000000000000e+00  0.0000000000000000e+00  0.0000000000000000e+00  0.0000000000000000e+00  0.0000000000000000e+00  0.0000000000000000e+00  0.0000000000000000e+00  0.0000000000000000e+00  0.0000000000000000e+00  0.0000000000000000e+00  0.0000000000000000e+00  0.0000000000000000e+00  0.0000000000000000e+00  0.0000000000000000e+00  0.0000000000000000e+00  0.0000000000000000e+00  0.0000000000000000e+00  0.0000000000000000e+00  0.0000000000000000e+00  0.0000000000000000e+00  0.0000000000000000e+00  0.0000000000000000e+00  0.0000000000000000e+00  0.0000000000000000e+00  0.0000000000000000e+00  0.0000000000000000e+00  0.0000000000000000e+00  0.0000000000000000e+00  0.0000000000000000e+00  0.0000000000000000e+00  0.0000000000000000e+00  0.0000000000000000e+00  0.0000000000000000e+00  0.0000000000000000e+00  0.0000000000000000e+00  0.0000000000000000e+00  0.0000000000000000e+00  0.0000000000000000e+00  0.0000000000000000e+00  0.0000000000000000e+00  0.0000000000000000e+00  0.0000000000000000e+00  0.0000000000000000e+00  0.0000000000000000e+00  0.0000000000000000e+00  0.0000000000000000e+00  0.0000000000000000e+00  0.0000000000000000e+00  0.0000000000000000e+00  0.0000000000000000e+00  0.0000000000000000e+00  0.0000000000000000e+00  0.0000000000000000e+00  0.0000000000000000e+00  0.0000000000000000e+00  0.0000000000000000e+00  0.0000000000000000e+00  0.0000000000000000e+00  0.0000000000000000e+00  0.0000000000000000e+00  0.0000000000000000e+00  0.0000000000000000e+00  0.0000000000000000e+00  0.0000000000000000e+00  0.0000000000000000e+00  0.0000000000000000e+00  0.0000000000000000e+00  0.0000000000000000e+00  0.0000000000000000e+00  0.0000000000000000e+00  0.0000000000000000e+00  0.0000000000000000e+00  0.0000000000000000e+00  0.0000000000000000e+00  0.0000000000000000e+00  0.0000000000000000e+00  0.0000000000000000e+00  0.0000000000000000e+00  0.0000000000000000e+00  0.0000000000000000e+00  0.0000000000000000e+00  0.0000000000000000e+00  0.0000000000000000e+00  0.0000000000000000e+00  0.0000000000000000e+00  0.0000000000000000e+00  0.0000000000000000e+00  0.0000000000000000e+00  0.0000000000000000e+00  0.0000000000000000e+00  0.0000000000000000e+00  0.0000000000000000e+00  0.0000000000000000e+00  0.0000000000000000e+00  0.0000000000000000e+00  0.0000000000000000e+00  0.0000000000000000e+00  0.0000000000000000e+00  0.0000000000000000e+00  0.0000000000000000e+00  0.0000000000000000e+00  0.0000000000000000e+00  0.0000000000000000e+00  0.0000000000000000e+00  0.0000000000000000e+00  0.0000000000000000e+00  0.0000000000000000e+00  0.0000000000000000e+00  0.0000000000000000e+00  0.0000000000000000e+00  0.0000000000000000e+00  0.0000000000000000e+00  0.0000000000000000e+00  0.0000000000000000e+00  0.0000000000000000e+00  0.0000000000000000e+00  0.0000000000000000e+00  0.0000000000000000e+00  0.0000000000000000e+00  0.0000000000000000e+00  0.0000000000000000e+00  0.0000000000000000e+00  0.0000000000000000e+00  0.0000000000000000e+00  0.0000000000000000e+00  0.0000000000000000e+00  0.0000000000000000e+00  0.0000000000000000e+00  0.0000000000000000e+00  0.0000000000000000e+00  0.0000000000000000e+00  0.0000000000000000e+00  0.0000000000000000e+00  0.0000000000000000e+00  0.0000000000000000e+00  0.0000000000000000e+00  0.0000000000000000e+00  0.0000000000000000e+00  0.0000000000000000e+00  0.0000000000000000e+00  0.0000000000000000e+00  0.0000000000000000e+00  0.0000000000000000e+00  0.0000000000000000e+00  0.0000000000000000e+00  0.0000000000000000e+00  0.0000000000000000e+00  0.0000000000000000e+00  0.0000000000000000e+00  0.0000000000000000e+00  0.0000000000000000e+00  0.0000000000000000e+00  0.0000000000000000e+00  0.0000000000000000e+00  0.0000000000000000e+00  0.0000000000000000e+00  0.0000000000000000e+00  0.0000000000000000e+00  0.0000000000000000e+00  0.0000000000000000e+00  0.0000000000000000e+00  0.0000000000000000e+00  0.0000000000000000e+00  0.0000000000000000e+00  0.0000000000000000e+00  0.0000000000000000e+00  0.0000000000000000e+00  0.0000000000000000e+00  0.0000000000000000e+00  0.0000000000000000e+00  0.0000000000000000e+00  0.0000000000000000e+00  0.0000000000000000e+00  0.0000000000000000e+00  0.0000000000000000e+00  0.0000000000000000e+00  0.0000000000000000e+00  0.0000000000000000e+00  0.0000000000000000e+00  0.0000000000000000e+00  0.0000000000000000e+00  0.0000000000000000e+00  0.0000000000000000e+00  0.0000000000000000e+00  0.0000000000000000e+00  1.7107537274496995e-01  1.5879715066586317e-01  1.2539016922006646e-01  1.2327397146777810e-01  1.4486437294286184e-01  1.8941783498544787e-01  1.7871497786805193e-01  1.3911120521489581e-01  1.5495404097225246e-01  1.8979121382555936e-01  1.7172825450187115e-01  1.6991244850840984e-01  1.9337988574805107e-01  1.5053678429472495e-01  1.5215169420597380e-01  1.5257481996450648e-01  1.3016967415512595e-01  1.5307838676058158e-01  1.7219508721468701e-01  1.5227727614040015e-01  1.5878328643956283e-01  1.5312396869428307e-01  1.6262718858572578e-01  1.7641985018352513e-01  1.6036213729012677e-01  1.4391830102872918e-01  1.6557252262810801e-01  1.5559505452330338e-01  1.3210579018617383e-01  1.4394653839536678e-01  1.5418718073130971e-01  1.5966033686381295e-01  1.5374541005475847e-01  2.1140448974279724e-01  1.5250451416290314e-01  1.7304013995048712e-01  1.5727711973926381e-01  1.7883293862461111e-01  1.7497528860319203e-01  1.5433687863696072e-01  1.2134847023068515e-01  1.9083345811704194e-01  1.4767342917294329e-01  1.7787620816113101e-01  1.6279078273644479e-01  1.5509671637447525e-01  2.2609208003257136e-01  1.9168103819092711e-01  1.5852136287076884e-01  1.6552409539859841e-01  1.5547466783583397e-01  1.3821387984633621e-01  1.5408949003670336e-01  1.8606457471995344e-01  1.6480137398430950e-01  1.5762720379525563e-01  1.4173491239463556e-01  1.5693085221306635e-01  2.0629179917539678e-01  1.7360676997771565e-01  1.6786041507071259e-01  1.7648335877436236e-01  3.6121850055185268e-27  -1.3177430819818339e-27  -2.6372988373970675e-27  -2.9362111081714923e-27  -1.2754986614372876e-27  -5.3190593714404953e-28  -2.0321713487565436e-28  1.8085996621069385e-27  7.1908350325100762e-27  4.1261642246526159e-27  -7.0167489436409254e-25  -6.6245821156253483e-25  5.4015519084230494e-25  1.1894523486890831e-24  3.7091080562495268e-26  3.0577099563782464e-26  -4.7813590301210539e-26  -3.0032484097387208e-26  -1.1242593986994788e-22  -1.6505400493679117e-22  -4.3274801462456682e-26  -4.9234217627185055e-26  4.7612438206492282e-23  4.7758641738060719e-23  -4.7368040280175831e-27  -3.9750136624075633e-26  -7.5369922605230107e-21  -7.1236227258596336e-21  -4.5758827787962004e-21  -4.8274273775593499e-21  8.3200788203071026e-26  -2.6524263419328046e-26  7.1703398947216554e-30  -8.8439279143285325e-30  -9.0742318597326962e-30  1.6282536313463039e-29  1.9759837702254775e-28  3.9844548454321731e-28  2.8927731352443242e-28  3.1818241950067157e-28  3.5536295776513601e-20  6.3548151430589862e-26  1.2229645791607825e-26  3.8447620571704426e-20  -9.0965191145471829e-30  -9.9263750263752968e-30  -6.2620454503671729e-30  2.3186071971880246e-31  2.4329242376692283e-31  2.3940965281923286e-31  1.4562221970477810e-31  -9.9633756216768074e-30  -6.1356143732037047e-33  -2.3068936920544078e-32  1.1371220824444997e-31  -4.0599781859355552e-33  2.5154770620295983e-32  -6.0625818217312431e-33  1.3756199327485217e-31  -9.9017395173586918e-34  -1.2942974288430949e-33  -4.6819456126610735e-34  -1.9574387853374995e-34  1.4856514278221021e-34  1.3409178711814416e-34  7.7341108784886154e-35  7.3736035593563581e-36  -1.6096912920414501e-33  2.7758149953107062e-20  4.6289585815751431e-26  -1.3626495869696442e-26  1.3821897514675265e-20  1.1675355818362131e-25  -3.4725233913701581e-24  1.3394908206148733e-21  8.8430431412484301e-22  -3.2579692262126715e-24  2.7352419736262120e-26  7.8783870632652493e-26  -5.2870956831184295e-26  -3.8570409946390946e-26  -1.1547888627505253e-23  3.9597120780074554e-22  4.1482010341989077e-22  -1.1338401686351356e-23  -2.5516827175524014e-27  8.8214497999280177e-26  -4.0405460590979145e-27  5.5582795267764239e-27  -6.5548988627966101e-27  8.9115007521688400e-26  1.1270769756138198e-25  -4.0128813872368772e-27  -2.4125251596247234e-27  3.0464785310245824e-26  2.8830730286465963e-26  -1.5704726434583687e-28  -7.7609439006082187e-28  -1.2224828298886157e-27  2.0590622315194292e-28  6.3879008077509308e-28  6.7275912495438490e-29  -1.5133887403908148e-28  -9.2254646284362625e-28  1.2567464946287723e-35  1.8952174033002029e-35  7.5316867670009164e-36  -1.6946018658027083e-36  6.4699465771596536e-36  1.5368881181541255e-36  1.0557456386440814e-35  5.2340058849844786e-37  2.7877468555055593e-20  1.2035573340190620e-25  1.1446540615308680e-25  1.3760367452301232e-20  -1.7863341341933983e-27  4.4955688538406936e-27  4.7956987882952052e-27  -7.1560374747449643e-27  -1.1865851061375417e-26  -6.9930914902434902e-29  -8.1944550351747883e-27  -2.0294424074992944e-26  3.5252787073033618e-30  -1.1192049386693302e-28  -7.3960930894447710e-29  2.8341013055281467e-30  3.4754378515128825e-30  -9.6395369630164965e-29  -1.2779685033660352e-28  1.1569376222777710e-30  -3.7499956352712997e-33  3.6441411555104214e-34  1.2052986962978520e-30  -1.2997729408669988e-32  2.7360685946091346e-31  -1.5412840113478451e-32  -3.6562404170301290e-32  1.2126588123123521e-33  8.1374448952731222e-31  -1.3325622884903878e-32  -1.3655503017203183e-33  2.9198308763888025e-34  -4.4317822277533019e-32  1.2637524759462511e-33  5.2319076736556885e-31  -1.7094966636473148e-32  -3.7014098748995233e-36  -1.7453801663519879e-36  -2.9595978500371351e-36  -3.4662512372718495e-36  3.4840952531602953e-20  -1.2995853857073082e-19  -8.5771483967413486e-20  4.2076950523983193e-19  2.0515162399027665e-19  -1.2097206054035871e-18  -3.1622075693994481e-19  2.8705393682287597e-18  -2.7975275484522778e-19  -4.3099802688362691e-18  4.7474873899199799e-18  -4.6496831624605892e-18  -2.3363936245153456e-17  6.8991207296197137e-17  8.0970996387740074e-17  -3.3342387653812888e-16  -2.1158946758352343e-16  1.1328876184760590e-15  3.8162536962922452e-16  -2.8846907407926327e-15  -2.0353343371374750e-16  -4.7525366034165522e-15  4.9165518815087425e-15  -1.6200971772007477e-15  -1.5863601071987334e-15  7.3808898881506859e-15  -2.5145867505005175e-14  -1.5924052180251558e-14  9.9126086011707883e-14  9.7169932403338936e-15  -1.8521731481917117e-13  5.6053602489081575e-14  -3.7650739150458580e-13  2.9176655470629561e-14  -1.9703582102108634e-13  8.8654761467523119e-13  1.5536380559304281e-13  -2.2293419458192864e-12  7.7802402692733613e-13  -1.2244240179548920e-13  -2.4767514520920169e-12  1.3240153336260481e-11  -1.0637129963134845e-13  -2.1326471520022118e-11  -2.3720651202568064e-11  1.5576243470728665e-11  -4.0435939069958845e-11  -2.6197007551544514e-11  -3.0475896531795859e-13  1.7310819331640163e-11  -4.9867782300369350e-11  -2.3475128246680744e-11  -1.2717077877045137e-12  1.8382145087591476e-11  -2.7278778938360596e-12  -3.2804597557105962e-12  -1.3737048016361147e-11  1.8262693650812190e-11  -1.8308166850814347e-12  -6.7099889871971170e-12  1.4874962192726510e-12  3.6898617841447332e-13  1.1085113642862755e-11  -8.5790473019702089e-12  9.5890401083900495e-13  3.5615959907698654e-12  -1.4405373773079645e-11  2.2790833932659650e-12  -9.7888627086605579e-13  2.8368200086040496e-13  -4.9727532270507007e-12  2.1933218468359748e-12  -8.9153990680580911e-12  1.4121260926649258e-13  1.4211342529244824e-12  2.1923229296216671e-12  -3.5655695803709337e-12  2.5691761852375186e-11  -9.9231820212840952e-12  4.6010850615339862e-11  -1.3699275465424660e-11  5.3262991325872423e-11  3.2758518626098416e-12  -1.4243346268869677e-11  5.2221864087880494e-11  -1.3903433577408239e-11  5.2099156209542476e-11  -1.4170500724509502e-11  5.2925906526822576e-11  -1.3636800610992693e-11  4.6053745430093505e-11  -1.0050842163521505e-11  2.6443214206063061e-11  -3.7217567944442090e-12  1.9326135557577193e-12  3.2816350607119438e-12  -1.3958260198434567e-10  2.5410922393515314e+00  1.9658220887696663e-12  -1.3155747389558908e-11  3.9195725771559436e-12  -1.2890505956688889e-11  2.5679311451400975e+00  2.4092715294853541e-12  -4.4102941931841798e-12  2.5186764377926334e+00  1.7719254590134269e-13  1.8655058423985703e-12  1.7139332209225816e-12  -1.0303408710364227e-11  2.3502283917397785e-12  -4.7668746568142159e-12  -1.9087836606778501e-10  -3.2981336615432361e-13  1.8424475845093470e-13  2.4649138798004478e-12  1.3476839410523060e-12  -1.3791271335354125e-11  3.1900252379229053e-12  -6.8565703608437073e-12  4.4373824064948168e-11  5.1244396476290069e-12  1.7259260671370887e-12  -1.0570197076505590e-11  2.9624967959672007e-11  2.7853555659056289e-11  -3.0701445369492511e-12  -2.6885713810778349e-12  -2.9985776801438935e-11  2.4131911967931019e-11  -4.4953081706305145e-12  2.5564328187866105e-12  -4.7095542956663824e-11  1.4857097847898516e-11  -3.5624952274283703e-12  2.0494328212396750e-12  -3.4325871836638596e-11  1.3012544008854491e-11  -1.6566707014468707e-11  -2.7053640805925955e-11  7.5586612113610029e-13  1.4721221541523267e-11  -2.5685538853295338e-11  -3.4306543356104831e-11  1.0564633609388231e-12  1.9256849298380232e-11  -3.8097547481568728e-11  -4.0371601980689765e-11  3.3821393924699416e-10  -1.0484729424062077e-10  3.4647060660317882e-11  2.7917585797413317e-10  -1.0161079320536117e-11  -1.5824548239935570e-10  7.0787627342398528e-10  -9.7370489741461243e-11  -3.1623756139382040e-10  3.3495839464133064e-10  -1.7629587152489667e-09  3.1757036836715278e-10  5.2659429517238862e-10  -9.3927298663948683e-10  5.5423993212127372e-11  4.6162657886566159e-10  -2.0804895056609300e-09  4.1344100660825831e-10  4.8484142819196527e-11  -7.7772265541054433e-10  6.2575344172843841e-09  -2.5230460140636146e-09  1.1102400422500515e-08  -2.6966275845268700e-09  6.0762368913728374e-09  3.0396952386398498e-10  -1.0068647300578079e-08  5.1678571603834058e-09  -2.7534618332941013e-08  8.9690371934659343e-09  -3.7318112633998741e-08  1.0594669609122985e-08  -4.0077975972876307e-08  1.0586076680456428e-08  -3.7174759673570128e-08  8.7248381211989021e-09  -2.6310899818419510e-08  5.0685683117923293e-09  -1.1416171087655776e-08  -1.8825331088152608e-09  -8.3021161274809408e-10  3.6490854246160223e-10  9.5299054847542212e-11  -6.0274815108514991e-11  2.9172567326969574e-12  6.9892993180218584e-12  -6.6547290252422174e-12  1.9364535434171122e-13  2.8335947867266772e-12  -1.2437675581875140e-11  -4.7751711992825257e-13  4.5645417124475920e-10  3.2651057745219150e-12  -1.0225752353008075e-11  1.8589516688954596e-12  -3.3190780174822063e-12  1.0211874542882955e-13  1.5019757190300016e-12  -5.0334253870524255e-13  1.3507408