<?xml version="1.0"?>
<VTKFile type="UnstructuredGrid"  version="0.1"  >
<UnstructuredGrid>
<Piece  NumberOfPoints="11902" NumberOfCells="23402">
<Points>
<DataArray  type="Float64"  NumberOfComponents="3"  format="ascii">-5 -5 0  5 -5 0  5 5 0  -5 5 0  1.056754949579072 0.0003719919873188072 0  -4.9 -5 0  -4.8 -5 0  -4.7 -5 0  -4.6 -5 0  -4.5 -5 0  -4.4 -5 0  -4.3 -5 0  -4.2 -5 0  -4.1 -5 0  -4 -5 0  -3.9 -5 0  -3.8 -5 0  -3.7 -5 0  -3.6 -5 0  -3.5 -5 0  -3.4 -5 0  -3.3 -5 0  -3.2 -5 0  -3.1 -5 0  -3 -5 0  -2.9 -5 0  -2.8 -5 0  -2.7 -5 0  -2.6 -5 0  -2.5 -5 0  -2.4 -5 0  -2.3 -5 0  -2.2 -5 0  -2.1 -5 0  -2 -5 0  -1.9 -5 0  -1.8 -5 0  -1.7 -5 0  -1.6 -5 0  -1.5 -5 0  -1.4 -5 0  -1.3 -5 0  -1.2 -5 0  -1.1 -5 0  -1 -5 0  -0.9000000000000004 -5 0  -0.7999999999999998 -5 0  -0.7000000000000002 -5 0  -0.5999999999999996 -5 0  -0.5 -5 0  -0.4000000000000004 -5 0  -0.2999999999999998 -5 0  -0.2000000000000002 -5 0  -0.09999999999999964 -5 0  0 -5 0  0.09999999999999964 -5 0  0.2000000000000002 -5 0  0.2999999999999998 -5 0  0.4000000000000004 -5 0  0.5 -5 0  0.5999999999999996 -5 0  0.7000000000000002 -5 0  0.7999999999999998 -5 0  0.9000000000000004 -5 0  1 -5 0  1.1 -5 0  1.2 -5 0  1.3 -5 0  1.4 -5 0  1.5 -5 0  1.6 -5 0  1.7 -5 0  1.8 -5 0  1.9 -5 0  2 -5 0  2.1 -5 0  2.2 -5 0  2.3 -5 0  2.4 -5 0  2.5 -5 0  2.6 -5 0  2.7 -5 0  2.8 -5 0  2.9 -5 0  3 -5 0  3.1 -5 0  3.199999999999999 -5 0  3.300000000000001 -5 0  3.4 -5 0  3.5 -5 0  3.6 -5 0  3.699999999999999 -5 0  3.800000000000001 -5 0  3.9 -5 0  4 -5 0  4.1 -5 0  4.199999999999999 -5 0  4.300000000000001 -5 0  4.4 -5 0  4.5 -5 0  4.6 -5 0  4.699999999999999 -5 0  4.800000000000001 -5 0  4.9 -5 0  5 -4.9 0  5 -4.8 0  5 -4.7 0  5 -4.6 0  5 -4.5 0  5 -4.4 0  5 -4.3 0  5 -4.2 0  5 -4.1 0  5 -4 0  5 -3.9 0  5 -3.8 0  5 -3.7 0  5 -3.6 0  5 -3.5 0  5 -3.4 0  5 -3.3 0  5 -3.2 0  5 -3.1 0  5 -3 0  5 -2.9 0  5 -2.8 0  5 -2.7 0  5 -2.6 0  5 -2.5 0  5 -2.4 0  5 -2.3 0  5 -2.2 0  5 -2.1 0  5 -2 0  5 -1.9 0  5 -1.8 0  5 -1.7 0  5 -1.6 0  5 -1.5 0  5 -1.4 0  5 -1.3 0  5 -1.2 0  5 -1.1 0  5 -1 0  5 -0.9000000000000004 0  5 -0.7999999999999998 0  5 -0.7000000000000002 0  5 -0.5999999999999996 0  5 -0.5 0  5 -0.4000000000000004 0  5 -0.2999999999999998 0  5 -0.2000000000000002 0  5 -0.09999999999999964 0  5 0 0  5 0.09999999999999964 0  5 0.2000000000000002 0  5 0.2999999999999998 0  5 0.4000000000000004 0  5 0.5 0  5 0.5999999999999996 0  5 0.7000000000000002 0  5 0.7999999999999998 0  5 0.9000000000000004 0  5 1 0  5 1.1 0  5 1.2 0  5 1.3 0  5 1.4 0  5 1.5 0  5 1.6 0  5 1.7 0  5 1.8 0  5 1.9 0  5 2 0  5 2.1 0  5 2.2 0  5 2.3 0  5 2.4 0  5 2.5 0  5 2.6 0  5 2.7 0  5 2.8 0  5 2.9 0  5 3 0  5 3.1 0  5 3.199999999999999 0  5 3.300000000000001 0  5 3.4 0  5 3.5 0  5 3.6 0  5 3.699999999999999 0  5 3.800000000000001 0  5 3.9 0  5 4 0  5 4.1 0  5 4.199999999999999 0  5 4.300000000000001 0  5 4.4 0  5 4.5 0  5 4.6 0  5 4.699999999999999 0  5 4.800000000000001 0  5 4.9 0  4.9 5 0  4.8 5 0  4.7 5 0  4.6 5 0  4.5 5 0  4.4 5 0  4.3 5 0  4.2 5 0  4.1 5 0  4 5 0  3.9 5 0  3.8 5 0  3.7 5 0  3.6 5 0  3.5 5 0  3.4 5 0  3.3 5 0  3.2 5 0  3.1 5 0  3 5 0  2.9 5 0  2.8 5 0  2.7 5 0  2.6 5 0  2.5 5 0  2.4 5 0  2.3 5 0  2.2 5 0  2.1 5 0  2 5 0  1.9 5 0  1.8 5 0  1.7 5 0  1.6 5 0  1.5 5 0  1.4 5 0  1.3 5 0  1.2 5 0  1.1 5 0  1 5 0  0.9000000000000004 5 0  0.7999999999999998 5 0  0.7000000000000002 5 0  0.5999999999999996 5 0  0.5 5 0  0.4000000000000004 5 0  0.2999999999999998 5 0  0.2000000000000002 5 0  0.09999999999999964 5 0  0 5 0  -0.09999999999999964 5 0  -0.2000000000000002 5 0  -0.2999999999999998 5 0  -0.4000000000000004 5 0  -0.5 5 0  -0.5999999999999996 5 0  -0.7000000000000002 5 0  -0.7999999999999998 5 0  -0.9000000000000004 5 0  -1 5 0  -1.1 5 0  -1.2 5 0  -1.3 5 0  -1.4 5 0  -1.5 5 0  -1.6 5 0  -1.7 5 0  -1.8 5 0  -1.9 5 0  -2 5 0  -2.1 5 0  -2.2 5 0  -2.3 5 0  -2.4 5 0  -2.5 5 0  -2.6 5 0  -2.7 5 0  -2.8 5 0  -2.9 5 0  -3 5 0  -3.1 5 0  -3.199999999999999 5 0  -3.300000000000001 5 0  -3.4 5 0  -3.5 5 0  -3.6 5 0  -3.699999999999999 5 0  -3.800000000000001 5 0  -3.9 5 0  -4 5 0  -4.1 5 0  -4.199999999999999 5 0  -4.300000000000001 5 0  -4.4 5 0  -4.5 5 0  -4.6 5 0  -4.699999999999999 5 0  -4.800000000000001 5 0  -4.9 5 0  -5 4.9 0  -5 4.8 0  -5 4.7 0  -5 4.6 0  -5 4.5 0  -5 4.4 0  -5 4.3 0  -5 4.2 0  -5 4.1 0  -5 4 0  -5 3.9 0  -5 3.8 0  -5 3.7 0  -5 3.6 0  -5 3.5 0  -5 3.4 0  -5 3.3 0  -5 3.2 0  -5 3.1 0  -5 3 0  -5 2.9 0  -5 2.8 0  -5 2.7 0  -5 2.6 0  -5 2.5 0  -5 2.4 0  -5 2.3 0  -5 2.2 0  -5 2.1 0  -5 2 0  -5 1.9 0  -5 1.8 0  -5 1.7 0  -5 1.6 0  -5 1.5 0  -5 1.4 0  -5 1.3 0  -5 1.2 0  -5 1.1 0  -5 1 0  -5 0.9000000000000004 0  -5 0.7999999999999998 0  -5 0.7000000000000002 0  -5 0.5999999999999996 0  -5 0.5 0  -5 0.4000000000000004 0  -5 0.2999999999999998 0  -5 0.2000000000000002 0  -5 0.09999999999999964 0  -5 0 0  -5 -0.09999999999999964 0  -5 -0.2000000000000002 0  -5 -0.2999999999999998 0  -5 -0.4000000000000004 0  -5 -0.5 0  -5 -0.5999999999999996 0  -5 -0.7000000000000002 0  -5 -0.7999999999999998 0  -5 -0.9000000000000004 0  -5 -1 0  -5 -1.1 0  -5 -1.2 0  -5 -1.3 0  -5 -1.4 0  -5 -1.5 0  -5 -1.6 0  -5 -1.7 0  -5 -1.8 0  -5 -1.9 0  -5 -2 0  -5 -2.1 0  -5 -2.2 0  -5 -2.3 0  -5 -2.4 0  -5 -2.5 0  -5 -2.6 0  -5 -2.7 0  -5 -2.8 0  -5 -2.9 0  -5 -3 0  -5 -3.1 0  -5 -3.199999999999999 0  -5 -3.300000000000001 0  -5 -3.4 0  -5 -3.5 0  -5 -3.6 0  -5 -3.699999999999999 0  -5 -3.800000000000001 0  -5 -3.9 0  -5 -4 0  -5 -4.1 0  -5 -4.199999999999999 0  -5 -4.300000000000001 0  -5 -4.4 0  -5 -4.5 0  -5 -4.6 0  -5 -4.699999999999999 0  -5 -4.800000000000001 0  -5 -4.9 0  1.051576136763864 0.1002384918512416 0  1.035786375691629 0.199426336158492 0  1.009318371768915 0.2968089933714131 0  0.973506215821814 0.3906711750156753 0  0.9278981381153124 0.4812772507968367 0  0.8732899931546203 0.5668869297078724 0  0.8097071191323038 0.6466498943283672 0  0.7376840684819888 0.7199089982948877 0  0.6587801134749161 0.7862354088892965 0  0.5733491009412804 0.8449065028196324 0  0.4819924868565851 0.8948765497714399 0  0.3857363135478653 0.9360527756093669 0  0.2862904687522633 0.9681656234399912 0  0.1835381467234548 0.9902479797968029 0  0.07932409372650585 1.002812864487995 0  -0.02587917377589996 1.005348575227086 0  -0.1308397848907276 0.9976687956571818 0  -0.2345275677690417 0.98053127580081 0  -0.3358384440734284 0.9535372223171411 0  -0.4337479910451665 0.9168523505870829 0  -0.5272623670346853 0.8713427610116695 0  -0.6156379056821004 0.8169618879763119 0  -0.6979132994122311 0.7545747576152031 0  -0.7732750561831319 0.6848002554791754 0  -0.8410503511690477 0.6077357229214335 0  -0.9002543422327529 0.5247528748117484 0  -0.9508781316582106 0.4368252313699514 0  -0.9917368351634778 0.3442873688221199 0  -1.022633665757034 0.2485271392452565 0  -1.04356929115863 0.150327841165134 0  -1.054162561879244 0.05044117239185218 0  -1.054176348789809 -0.0499837590650068 0  -1.043600293017734 -0.1498016118364293 0  -1.023334417219504 -0.247964908041914 0  -0.9917361299853287 -0.3439614002441879 0  -0.9509864211222432 -0.4362334077795315 0  -0.9004803861034882 -0.5242697983041715 0  -0.8413105721492553 -0.6071045581580116 0  -0.7735060182821737 -0.6838636506272899 0  -0.6979103865255479 -0.7535604098209571 0  -0.6153856286832482 -0.815660865061971 0  -0.5274387353857202 -0.8703197499960624 0  -0.4332516733779661 -0.9158076488742927 0  -0.3352940964933589 -0.9526763427823507 0  -0.2338473852170448 -0.9797944654055908 0  -0.1302775603326502 -0.9971447750971968 0  -0.02549258684478422 -1.005128345469668 0  0.07945726011097376 -1.002408068296368 0  0.1840111187024811 -0.9896742980967603 0  0.286463784868542 -0.9675228341929737 0  0.3865556771240803 -0.9354387580308314 0  0.4822493609228651 -0.8943029454521959 0  0.5735674991502923 -0.8443668853502475 0  0.6589337431090815 -0.7863486860314561 0  0.7378172065155908 -0.7200431547783326 0  0.809535841018085 -0.6464148734044592 0  0.8729798665597617 -0.5664450593734686 0  0.9280580838962872 -0.4809924186825944 0  0.9741042656499097 -0.3906882396911351 0  1.009809968180054 -0.2966053320644159 0  1.035822733354124 -0.1991924085597385 0  1.051610405265635 -0.1001377723139524 0  -2.449568111134675 4.919976297874913 0  -2.449531495318792 -4.912522951185403 0  4.912495081698796 2.449356159681475 0  4.920429529677896 -2.450685218872379 0  2.447440443714544 -4.898109252461484 0  2.441832524670579 4.901794217780663 0  -4.91250490700912 -2.449366494886394 0  -4.912507428892135 2.449370092796554 0  -1.749553868338646 4.913679210952686 0  -1.74529519808639 -4.917013139927124 0  4.923215060218966 1.745390623017117 0  4.912114617267086 -1.749345106879121 0  -4.912375786390586 -1.749056748449119 0  -4.913177323441364 1.748785782483354 0  1.746890811780495 4.90773447784427 0  1.748436325739747 -4.896229714698037 0  -1.149651635505964 4.912020611233658 0  -1.130425944881526 -4.919660777246245 0  -4.912826881540209 -1.14911995516848 0  -4.91265734005062 1.148918547963415 0  1.144593116510064 -4.91598208218784 0  1.149651716390488 4.912016861202599 0  4.912997351948811 1.147404688313901 0  4.923383421336156 -1.153048119772112 0  -0.547090338075735 -4.913482779457145 0  -0.5468321680913972 4.9218435553248 0  -4.91214857171506 -0.5493707799413385 0  -4.91217491985472 0.5479210286963748 0  4.911538714211013 -0.5497019190979419 0  4.922659432353355 0.5463686404282561 0  0.5429125806890781 -4.900874491443595 0  0.5515676577011451 4.918791492306478 0  -4.913265513907456 -3.049474882781766 0  4.919745239366963 3.047415290200142 0  4.91278896674046 -3.049469918969642 0  -4.914106923266336 3.046556996379334 0  3.056187011537092 -4.918735846757778 0  -3.049584151691086 -4.912764483970963 0  3.05313143931029 4.914818260297581 0  -3.049024230902557 4.91364335057369 0  -4.911477137981383 -0.0499738811908616 0  0.04514565426681929 -4.915458406991944 0  0.04959658143825188 4.922217076561748 0  4.918234133441517 -0.05135179373080127 0  3.546322455933887 -4.919975071313327 0  -3.5496645133666
[...]
<PointData  Scalars="f_30"> 
<DataArray  type="Float64"  Name="f_30"  format="ascii">0.0000000000000000e+00  0.0000000000000000e+00  0.0000000000000000e+00  0.0000000000000000e+00  8.3949276825525398e-01  0.0000000000000000e+00  0.0000000000000000e+00  0.0000000000000000e+00  0.0000000000000000e+00  0.0000000000000000e+00  0.0000000000000000e+00  0.0000000000000000e+00  0.0000000000000000e+00  0.0000000000000000e+00  0.0000000000000000e+00  0.0000000000000000e+00  0.0000000000000000e+00  0.0000000000000000e+00  0.0000000000000000e+00  0.0000000000000000e+00  0.0000000000000000e+00  0.0000000000000000e+00  0.0000000000000000e+00  0.0000000000000000e+00  0.0000000000000000e+00  0.0000000000000000e+00  0.0000000000000000e+00  0.0000000000000000e+00  0.0000000000000000e+00  0.0000000000000000e+00  0.0000000000000000e+00  0.0000000000000000e+00  0.0000000000000000e+00  0.0000000000000000e+00  0.0000000000000000e+00  0.0000000000000000e+00  0.0000000000000000e+00  0.0000000000000000e+00  0.0000000000000000e+00  0.0000000000000000e+00  0.0000000000000000e+00  0.0000000000000000e+00  0.0000000000000000e+00  0.0000000000000000e+00  0.0000000000000000e+00  0.0000000000000000e+00  0.0000000000000000e+00  0.0000000000000000e+00  0.0000000000000000e+00  0.0000000000000000e+00  0.0000000000000000e+00  0.0000000000000000e+00  0.0000000000000000e+00  0.0000000000000000e+00  0.0000000000000000e+00  0.0000000000000000e+00  0.0000000000000000e+00  0.0000000000000000e+00  0.0000000000000000e+00  0.0000000000000000e+00  0.0000000000000000e+00  0.0000000000000000e+00  0.0000000000000000e+00  0.0000000000000000e+00  0.0000000000000000e+00  0.0000000000000000e+00  0.0000000000000000e+00  0.0000000000000000e+00  0.0000000000000000e+00  0.0000000000000000e+00  0.0000000000000000e+00  0.0000000000000000e+00  0.0000000000000000e+00  0.0000000000000000e+00  0.0000000000000000e+00  0.0000000000000000e+00  0.0000000000000000e+00  0.0000000000000000e+00  0.0000000000000000e+00  0.0000000000000000e+00  0.0000000000000000e+00  0.0000000000000000e+00  0.0000000000000000e+00  0.0000000000000000e+00  0.0000000000000000e+00  0.0000000000000000e+00  0.0000000000000000e+00  0.0000000000000000e+00  0.0000000000000000e+00  0.0000000000000000e+00  0.0000000000000000e+00  0.0000000000000000e+00  0.0000000000000000e+00  0.0000000000000000e+00  0.0000000000000000e+00  0.0000000000000000e+00  0.0000000000000000e+00  0.0000000000000000e+00  0.0000000000000000e+00  0.0000000000000000e+00  0.0000000000000000e+00  0.0000000000000000e+00  0.0000000000000000e+00  0.0000000000000000e+00  0.0000000000000000e+00  0.0000000000000000e+00  0.0000000000000000e+00  0.0000000000000000e+00  0.0000000000000000e+00  0.0000000000000000e+00  0.0000000000000000e+00  0.0000000000000000e+00  0.0000000000000000e+00  0.0000000000000000e+00  0.0000000000000000e+00  0.0000000000000000e+00  0.0000000000000000e+00  0.0000000000000000e+00  0.0000000000000000e+00  0.0000000000000000e+00  0.0000000000000000e+00  0.0000000000000000e+00  0.0000000000000000e+00  0.0000000000000000e+00  0.0000000000000000e+00  0.0000000000000000e+00  0.0000000000000000e+00  0.0000000000000000e+00  0.0000000000000000e+00  0.0000000000000000e+00  0.0000000000000000e+00  0.0000000000000000e+00  0.0000000000000000e+00  0.0000000000000000e+00  0.0000000000000000e+00  0.0000000000000000e+00  0.0000000000000000e+00  0.0000000000000000e+00  0.0000000000000000e+00  0.0000000000000000e+00  0.0000000000000000e+00  0.0000000000000000e+00  0.0000000000000000e+00  0.0000000000000000e+00  0.0000000000000000e+00  0.0000000000000000e+00  0.0000000000000000e+00  0.0000000000000000e+00  0.0000000000000000e+00  0.0000000000000000e+00  0.0000000000000000e+00  0.0000000000000000e+00  0.0000000000000000e+00  0.0000000000000000e+00  0.0000000000000000e+00  0.0000000000000000e+00  0.0000000000000000e+00  0.0000000000000000e+00  0.0000000000000000e+00  0.0000000000000000e+00  0.0000000000000000e+00  0.0000000000000000e+00  0.0000000000000000e+00  0.0000000000000000e+00  0.0000000000000000e+00  0.0000000000000000e+00  0.0000000000000000e+00  0.0000000000000000e+00  0.0000000000000000e+00  0.0000000000000000e+00  0.0000000000000000e+00  0.0000000000000000e+00  0.0000000000000000e+00  0.0000000000000000e+00  0.0000000000000000e+00  0.0000000000000000e+00  0.0000000000000000e+00  0.0000000000000000e+00  0.0000000000000000e+00  0.0000000000000000e+00  0.0000000000000000e+00  0.0000000000000000e+00  0.0000000000000000e+00  0.0000000000000000e+00  0.0000000000000000e+00  0.0000000000000000e+00  0.0000000000000000e+00  0.0000000000000000e+00  0.0000000000000000e+00  0.0000000000000000e+00  0.0000000000000000e+00  0.0000000000000000e+00  0.0000000000000000e+00  0.0000000000000000e+00  0.0000000000000000e+00  0.0000000000000000e+00  0.0000000000000000e+00  0.0000000000000000e+00  0.0000000000000000e+00  0.0000000000000000e+00  0.0000000000000000e+00  0.0000000000000000e+00  0.0000000000000000e+00  0.0000000000000000e+00  0.0000000000000000e+00  0.0000000000000000e+00  0.0000000000000000e+00  0.0000000000000000e+00  0.0000000000000000e+00  0.0000000000000000e+00  0.0000000000000000e+00  0.0000000000000000e+00  0.0000000000000000e+00  0.0000000000000000e+00  0.0000000000000000e+00  0.0000000000000000e+00  0.0000000000000000e+00  0.0000000000000000e+00  0.0000000000000000e+00  0.0000000000000000e+00  0.0000000000000000e+00  0.0000000000000000e+00  0.0000000000000000e+00  0.0000000000000000e+00  0.0000000000000000e+00  0.0000000000000000e+00  0.0000000000000000e+00  0.0000000000000000e+00  0.0000000000000000e+00  0.0000000000000000e+00  0.0000000000000000e+00  0.0000000000000000e+00  0.0000000000000000e+00  0.0000000000000000e+00  0.0000000000000000e+00  0.0000000000000000e+00  0.0000000000000000e+00  0.0000000000000000e+00  0.0000000000000000e+00  0.0000000000000000e+00  0.0000000000000000e+00  0.0000000000000000e+00  0.0000000000000000e+00  0.0000000000000000e+00  0.0000000000000000e+00  0.0000000000000000e+00  0.0000000000000000e+00  0.0000000000000000e+00  0.0000000000000000e+00  0.0000000000000000e+00  0.0000000000000000e+00  0.0000000000000000e+00  0.0000000000000000e+00  0.0000000000000000e+00  0.0000000000000000e+00  0.0000000000000000e+00  0.0000000000000000e+00  0.0000000000000000e+00  0.0000000000000000e+00  0.0000000000000000e+00  0.0000000000000000e+00  0.0000000000000000e+00  0.0000000000000000e+00  0.0000000000000000e+00  0.0000000000000000e+00  0.0000000000000000e+00  0.0000000000000000e+00  0.0000000000000000e+00  0.0000000000000000e+00  0.0000000000000000e+00  0.0000000000000000e+00  0.0000000000000000e+00  0.0000000000000000e+00  0.0000000000000000e+00  0.0000000000000000e+00  0.0000000000000000e+00  0.0000000000000000e+00  0.0000000000000000e+00  0.0000000000000000e+00  0.0000000000000000e+00  0.0000000000000000e+00  0.0000000000000000e+00  0.0000000000000000e+00  0.0000000000000000e+00  0.0000000000000000e+00  0.0000000000000000e+00  0.0000000000000000e+00  0.0000000000000000e+00  0.0000000000000000e+00  0.0000000000000000e+00  0.0000000000000000e+00  0.0000000000000000e+00  0.0000000000000000e+00  0.0000000000000000e+00  0.0000000000000000e+00  0.0000000000000000e+00  0.0000000000000000e+00  0.0000000000000000e+00  0.0000000000000000e+00  0.0000000000000000e+00  0.0000000000000000e+00  0.0000000000000000e+00  0.0000000000000000e+00  0.0000000000000000e+00  0.0000000000000000e+00  0.0000000000000000e+00  0.0000000000000000e+00  0.0000000000000000e+00  0.0000000000000000e+00  0.0000000000000000e+00  0.0000000000000000e+00  0.0000000000000000e+00  0.0000000000000000e+00  0.0000000000000000e+00  0.0000000000000000e+00  0.0000000000000000e+00  0.0000000000000000e+00  0.0000000000000000e+00  0.0000000000000000e+00  0.0000000000000000e+00  0.0000000000000000e+00  0.0000000000000000e+00  0.0000000000000000e+00  0.0000000000000000e+00  0.0000000000000000e+00  0.0000000000000000e+00  0.0000000000000000e+00  0.0000000000000000e+00  0.0000000000000000e+00  0.0000000000000000e+00  0.0000000000000000e+00  0.0000000000000000e+00  0.0000000000000000e+00  0.0000000000000000e+00  0.0000000000000000e+00  0.0000000000000000e+00  0.0000000000000000e+00  0.0000000000000000e+00  0.0000000000000000e+00  0.0000000000000000e+00  0.0000000000000000e+00  0.0000000000000000e+00  0.0000000000000000e+00  0.0000000000000000e+00  0.0000000000000000e+00  0.0000000000000000e+00  0.0000000000000000e+00  0.0000000000000000e+00  0.0000000000000000e+00  0.0000000000000000e+00  0.0000000000000000e+00  0.0000000000000000e+00  0.0000000000000000e+00  0.0000000000000000e+00  0.0000000000000000e+00  0.0000000000000000e+00  0.0000000000000000e+00  0.0000000000000000e+00  0.0000000000000000e+00  0.0000000000000000e+00  0.0000000000000000e+00  0.0000000000000000e+00  0.0000000000000000e+00  0.0000000000000000e+00  0.0000000000000000e+00  0.0000000000000000e+00  0.0000000000000000e+00  0.0000000000000000e+00  0.0000000000000000e+00  0.0000000000000000e+00  0.0000000000000000e+00  0.0000000000000000e+00  0.0000000000000000e+00  0.0000000000000000e+00  0.0000000000000000e+00  0.0000000000000000e+00  0.0000000000000000e+00  0.0000000000000000e+00  0.0000000000000000e+00  0.0000000000000000e+00  0.0000000000000000e+00  0.0000000000000000e+00  0.0000000000000000e+00  0.0000000000000000e+00  0.0000000000000000e+00  0.0000000000000000e+00  0.0000000000000000e+00  0.0000000000000000e+00  0.0000000000000000e+00  0.0000000000000000e+00  0.0000000000000000e+00  0.0000000000000000e+00  0.0000000000000000e+00  0.0000000000000000e+00  0.0000000000000000e+00  0.0000000000000000e+00  0.0000000000000000e+00  0.0000000000000000e+00  0.0000000000000000e+00  0.0000000000000000e+00  0.0000000000000000e+00  8.6081757568785200e-01  8.3360138088032953e-01  6.7441673833135563e-01  6.8452320408206546e-01  7.8493545223053274e-01  9.3826811017597134e-01  9.1242173360108048e-01  7.4496223597768896e-01  8.1115527519608077e-01  9.5577048401741060e-01  9.0099485695051884e-01  8.6056456096060896e-01  9.9667639695751264e-01  8.1180121904196489e-01  8.2695063693278825e-01  8.0858463508916978e-01  7.1910778613783888e-01  8.4832065203138396e-01  8.8291175506766573e-01  8.0020071684872884e-01  8.4308509135322174e-01  8.1867058145499061e-01  8.4312540517681933e-01  9.0954106544352165e-01  8.3893863551615577e-01  7.5693961001580268e-01  8.5801778084879232e-01  8.0738539075210847e-01  7.1685137815523337e-01  7.6380173656778083e-01  8.1447874104889673e-01  8.2433718194684891e-01  7.8277814166041348e-01  1.0023657047578440e+00  8.0144884759561985e-01  8.6716313183926463e-01  8.1018343765573997e-01  9.0562258672499463e-01  9.0372518173168326e-01  8.0502314293289290e-01  6.5959313439518419e-01  9.4547291122350918e-01  7.9162732444246342e-01  9.0129605662113677e-01  8.7396584599650007e-01  8.2108705560922479e-01  1.0682807263755039e+00  9.6099485403275875e-01  8.4639288475292584e-01  8.8697160585023604e-01  8.1785731764937508e-01  7.5839421264617146e-01  8.1952284298327571e-01  9.2270150051254773e-01  8.5836214389876386e-01  8.2944399102345578e-01  7.5619762757690945e-01  8.3468618138762107e-01  9.9878291742794589e-01  8.7062833578754462e-01  8.4918992770798929e-01  8.9048784343157328e-01  3.6124820360653972e-27  -1.3179341559517038e-27  -2.6372992545364091e-27  -2.9362117788387542e-27  -1.2758685790860802e-27  -5.3233101428786420e-28  -2.0321711692889180e-28  1.8085997713420204e-27  7.1911470520978132e-27  4.1262708837424934e-27  -7.0167499259352216e-25  -6.6245833434514192e-25  5.4015512313443103e-25  1.1894522744891981e-24  3.7087238393990034e-26  3.0575039738511990e-26  -4.7806711401223757e-26  -3.0033066401981530e-26  -1.1242592976894265e-22  -1.6505399109679469e-22  -4.3272424280238043e-26  -4.9231704469521123e-26  4.7612445608695801e-23  4.7758649269473485e-23  -4.7318380938522634e-27  -3.9746018248310112e-26  -7.5369920839376087e-21  -7.1236227181445147e-21  -4.5758827210026494e-21  -4.8274270355179992e-21  8.3190418547645916e-26  -2.6521467336862310e-26  7.1703461714477162e-30  -8.8439322880585654e-30  -9.0742351425072461e-30  1.6282542875685134e-29  1.9759205363284552e-28  3.9844043167017590e-28  2.8927346513729670e-28  3.1817829975309797e-28  3.5536297280752770e-20  6.3534066869479181e-26  1.2229806027010967e-26  3.8447618223616729e-20  -9.0965335949979720e-30  -9.9263834535111580e-30  -6.2620643100834055e-30  2.3186077967404766e-31  2.4329241368337592e-31  2.3940971466324206e-31  1.4562219052853381e-31  -9.9633709075353347e-30  -6.1356154114167407e-33  -2.3068701704069130e-32  1.1371227406525709e-31  -4.0599761648776422e-33  2.5155018199589820e-32  -6.0625835485181755e-33  1.3756213547971731e-31  -9.9017112985247890e-34  -1.2942969196764825e-33  -4.6819383978314399e-34  -1.9574333077052163e-34  1.4856516122493219e-34  1.3409178553262791e-34  7.7341046760347041e-35  7.3735192028773396e-36  -1.6096905356351604e-33  2.7758147562800608e-20  4.6287122721858474e-26  -1.3624736586230290e-26  1.3821895431333586e-20  1.1674847038131437e-25  -3.4725254116059853e-24  1.3394908091208037e-21  8.8430429969081660e-22  -3.2579714572354229e-24  2.7350370020264834e-26  7.8784957142586271e-26  -5.2858330226049841e-26  -3.8568329792982896e-26  -1.1547888040264263e-23  3.9597116850029169e-22  4.1482002847087257e-22  -1.1338401297596269e-23  -2.5536982525064223e-27  8.8217080401087222e-26  -4.0414707052142331e-27  5.5612138774051708e-27  -6.5531333789078610e-27  8.9115028863815141e-26  1.1270771878460266e-25  -4.0123002534046590e-27  -2.4118508749533797e-27  3.0464773620056666e-26  2.8830719203473333e-26  -1.5704731791977670e-28  -7.7607500754424532e-28  -1.2225155655233639e-27  2.0590628243712564e-28  6.3877677242647370e-28  6.7275967513930499e-29  -1.5133892610826298e-28  -9.2260070074284944e-28  1.2567461786908073e-35  1.8952163199504694e-35  7.5316890771896049e-36  -1.6945963130784426e-36  6.4699475767420925e-36  1.5368916336938306e-36  1.0557450999203164e-35  5.2339680096039485e-37  2.7877468046564810e-20  1.2033470538824974e-25  1.1445936421678723e-25  1.3760365214856393e-20  -1.7864378070130524e-27  4.4955715201765914e-27  4.7957017666349154e-27  -7.1557177223027606e-27  -1.1865853949928971e-26  -7.0187967221046881e-29  -8.1948795697986684e-27  -2.0294427027107419e-26  3.5252795512079869e-30  -1.1191907863996775e-28  -7.3960304791488260e-29  2.8341012171096093e-30  3.4754385743679394e-30  -9.6395331110473601e-29  -1.2779592271195764e-28  1.1569373315850217e-30  -3.7500007749133146e-33  3.6441439257478242e-34  1.2053010855030234e-30  -1.2997725012306867e-32  2.7360801795551583e-31  -1.5412836382168308e-32  -3.6562417122440567e-32  1.2126589287569637e-33  8.1374568770938793e-31  -1.3325616669526458e-32  -1.3655507362008762e-33  2.9198334264953832e-34  -4.4317835043493247e-32  1.2637525103017602e-33  5.2319145690967936e-31  -1.7094960431800742e-32  -3.7014087167874820e-36  -1.7453806625129109e-36  -2.9595969823034769e-36  -3.4662493696522634e-36  3.4840953141983272e-20  -1.2995853850377158e-19  -8.5771480781676178e-20  4.2076949720836187e-19  2.0515161161663311e-19  -1.2097205594979911e-18  -3.1622072118586708e-19  2.8705391933728032e-18  -2.7975282462983773e-19  -4.3099797710290785e-18  4.7474874055944843e-18  -4.6496841016278258e-18  -2.3363935619518396e-17  6.8991207357896191e-17  8.0970992788554996e-17  -3.3342386725921159e-16  -2.1158945420101574e-16  1.1328875670698927e-15  3.8162533214175460e-16  -2.8846905531859669e-15  -2.0353335874704913e-16  -4.7525364662628531e-15  4.9165513639339148e-15  -1.6200972338573075e-15  -1.5863591020703394e-15  7.3808895529196152e-15  -2.5145868077100461e-14  -1.5924050258514672e-14  9.9126080772580610e-14  9.7169875115472463e-15  -1.8521728726335823e-13  5.6053611897804810e-14  -3.7650739650925292e-13  2.9176577255618915e-14  -1.9703581551676628e-13  8.8654772511023029e-13  1.5536371552061738e-13  -2.2293417931855804e-12  7.7802431056569096e-13  -1.2244377375615557e-13  -2.4767517748765749e-12  1.3240156992463021e-11  -1.0637223603177771e-13  -2.1326468260440616e-11  -2.3720653469187899e-11  1.5576248425890736e-11  -4.0435957242166227e-11  -2.6197014996703662e-11  -3.0475918825914944e-13  1.7310824583248714e-11  -4.9867795004766724e-11  -2.3475138776809211e-11  -1.2717074723485442e-12  1.8382150283249802e-11  -2.7278789886039651e-12  -3.2804593239825040e-12  -1.3737059044473567e-11  1.8262698773365289e-11  -1.8308177327644693e-12  -6.7099889088057604e-12  1.4874965069883254e-12  3.6898532922156205e-13  1.1085118546011899e-11  -8.5790478569682671e-12  9.5890432826773718e-13  3.5615954983719885e-12  -1.4405369828663725e-11  2.2790823574565039e-12  -9.7888598473866047e-13  2.8368191554896467e-13  -4.9727511121723505e-12  2.1933208749217142e-12  -8.9153962925226185e-12  1.4121255311503440e-13  1.4211349611562514e-12  2.1923131769214115e-12  -3.5655652384893147e-12  2.5691748557349985e-11  -9.9231840820349482e-12  4.6010896328914339e-11  -1.3699302591153319e-11  5.3263138119958244e-11  3.2758554654010568e-12  -1.4243388208676372e-11  5.2221962384558971e-11  -1.3903416947764522e-11  5.2098857849010179e-11  -1.4170342606936150e-11  5.2925062655341128e-11  -1.3636541482638506e-11  4.6052827054839072e-11  -1.0050668964721671e-11  2.6442957014692853e-11  -3.7217974632344600e-12  1.9330665269383527e-12  3.2815710108467579e-12  -1.3958261936662006e-10  2.3132599818301283e+00  1.9656847761224947e-12  -1.3155380768660828e-11  3.9195620767909837e-12  -1.2890836213373997e-11  2.3518535824140625e+00  2.4094329848278418e-12  -4.4110306018682775e-12  2.3137978137560076e+00  1.7737476023694552e-13  1.8649970687701532e-12  1.7165027300064935e-12  -1.0302359883118344e-11  2.3501389239472900e-12  -4.7670503993791381e-12  -1.9087468218957954e-10  -3.2986476620699522e-13  1.8434949491638626e-13  2.4645063200019706e-12  1.3491607124286200e-12  -1.3790133664672605e-11  3.1898427482338931e-12  -6.8563063484983043e-12  4.4371398022559397e-11  5.1244257013556179e-12  1.7258301706795618e-12  -1.0569855184780865e-11  2.9623532658568595e-11  2.7853170998065523e-11  -3.0702294990317128e-12  -2.6878966406323116e-12  -2.9987625802797781e-11  2.4130235350166121e-11  -4.4952313165961422e-12  2.5572894390060014e-12  -4.7095931077954297e-11  1.4853819931538778e-11  -3.5621394731580939e-12  2.0502327367194850e-12  -3.4323569389170813e-11  1.3008082446626200e-11  -1.6548146792907379e-11  -2.7049936061253550e-11  7.5668928585181504e-13  1.4716169558240030e-11  -2.5663701486315156e-11  -3.4304371768510078e-11  1.0576049306538902e-12  1.9252185290652697e-11  -3.8072743139866229e-11  -4.0373766106977015e-11  3.3818683556430123e-10  -1.0482619477751056e-10  3.4552284277561992e-11  2.7918164270408333e-10  -1.0166708527179078e-11  -1.5823724605789017e-10  7.0781941157296841e-10  -9.7359272214189896e-11  -3.1621887792302087e-10  3.3492234697183141e-10  -1.7627318099415005e-09  3.1751144173343052e-10  5.2666989529497111e-10  -9.3920544169341807e-10  5.5427682990912332e-11  4.6157868438874083e-10  -2.0801961611957799e-09  4.1333783458161149e-10  4.8935524997768257e-11  -7.7785329549644532e-10  6.2580427393220687e-09  -2.5231873539766131e-09  1.1102947985042305e-08  -2.6967813176480901e-09  6.0768364259286723e-09  3.0380243603161067e-10  -1.0068012696180869e-08  5.1676900203313078e-09  -2.7534039938045237e-08  8.9689074135947409e-09  -3.7317758847810033e-08  1.0594615954832631e-08  -4.0077921467899684e-08  1.0586089921903619e-08  -3.7174864862184636e-08  8.7248658089645192e-09  -2.6310969628232551e-08  5.0685761863659818e-09  -1.1416166749473975e-08  -1.8825382849870432e-09  -8.3021157766304983e-10  3.6490918660605597e-10  9.5298777633072195e-11  -6.0274831547594334e-11  2.9173343362437935e-12  6.9892821158911783e-12  -6.6547411354204928e-12  1.9365088402143130e-13  2.8335953646021940e-12  -1.2437670112179815e-11  -4.7751809302061802e-13  4.5649080680698836e-10  3.2651040881295416e-12  -1.0225748701300617e-11  1.8589514847077455e-12  -3.3190795380510034e-12  1.0211918859515397e-13  1.5019749055456722e-12  -5.0334252493780302e-13  1.3507412