<?xml version="1.0"?>
<VTKFile type="UnstructuredGrid"  version="0.1"  >
<UnstructuredGrid>
<Piece  NumberOfPoints="11902" NumberOfCells="23402">
<Points>
<DataArray  type="Float64"  NumberOfComponents="3"  format="ascii">-5 -5 0  5 -5 0  5 5 0  -5 5 0  1.250644270111807 0.001363865970397424 0  -4.9 -5 0  -4.8 -5 0  -4.7 -5 0  -4.6 -5 0  -4.5 -5 0  -4.4 -5 0  -4.3 -5 0  -4.2 -5 0  -4.1 -5 0  -4 -5 0  -3.9 -5 0  -3.8 -5 0  -3.7 -5 0  -3.6 -5 0  -3.5 -5 0  -3.4 -5 0  -3.3 -5 0  -3.2 -5 0  -3.1 -5 0  -3 -5 0  -2.9 -5 0  -2.8 -5 0  -2.7 -5 0  -2.6 -5 0  -2.5 -5 0  -2.4 -5 0  -2.3 -5 0  -2.2 -5 0  -2.1 -5 0  -2 -5 0  -1.9 -5 0  -1.8 -5 0  -1.7 -5 0  -1.6 -5 0  -1.5 -5 0  -1.4 -5 0  -1.3 -5 0  -1.2 -5 0  -1.1 -5 0  -1 -5 0  -0.9000000000000004 -5 0  -0.7999999999999998 -5 0  -0.7000000000000002 -5 0  -0.5999999999999996 -5 0  -0.5 -5 0  -0.4000000000000004 -5 0  -0.2999999999999998 -5 0  -0.2000000000000002 -5 0  -0.09999999999999964 -5 0  0 -5 0  0.09999999999999964 -5 0  0.2000000000000002 -5 0  0.2999999999999998 -5 0  0.4000000000000004 -5 0  0.5 -5 0  0.5999999999999996 -5 0  0.7000000000000002 -5 0  0.7999999999999998 -5 0  0.9000000000000004 -5 0  1 -5 0  1.1 -5 0  1.2 -5 0  1.3 -5 0  1.4 -5 0  1.5 -5 0  1.6 -5 0  1.7 -5 0  1.8 -5 0  1.9 -5 0  2 -5 0  2.1 -5 0  2.2 -5 0  2.3 -5 0  2.4 -5 0  2.5 -5 0  2.6 -5 0  2.7 -5 0  2.8 -5 0  2.9 -5 0  3 -5 0  3.1 -5 0  3.199999999999999 -5 0  3.300000000000001 -5 0  3.4 -5 0  3.5 -5 0  3.6 -5 0  3.699999999999999 -5 0  3.800000000000001 -5 0  3.9 -5 0  4 -5 0  4.1 -5 0  4.199999999999999 -5 0  4.300000000000001 -5 0  4.4 -5 0  4.5 -5 0  4.6 -5 0  4.699999999999999 -5 0  4.800000000000001 -5 0  4.9 -5 0  5 -4.9 0  5 -4.8 0  5 -4.7 0  5 -4.6 0  5 -4.5 0  5 -4.4 0  5 -4.3 0  5 -4.2 0  5 -4.1 0  5 -4 0  5 -3.9 0  5 -3.8 0  5 -3.7 0  5 -3.6 0  5 -3.5 0  5 -3.4 0  5 -3.3 0  5 -3.2 0  5 -3.1 0  5 -3 0  5 -2.9 0  5 -2.8 0  5 -2.7 0  5 -2.6 0  5 -2.5 0  5 -2.4 0  5 -2.3 0  5 -2.2 0  5 -2.1 0  5 -2 0  5 -1.9 0  5 -1.8 0  5 -1.7 0  5 -1.6 0  5 -1.5 0  5 -1.4 0  5 -1.3 0  5 -1.2 0  5 -1.1 0  5 -1 0  5 -0.9000000000000004 0  5 -0.7999999999999998 0  5 -0.7000000000000002 0  5 -0.5999999999999996 0  5 -0.5 0  5 -0.4000000000000004 0  5 -0.2999999999999998 0  5 -0.2000000000000002 0  5 -0.09999999999999964 0  5 0 0  5 0.09999999999999964 0  5 0.2000000000000002 0  5 0.2999999999999998 0  5 0.4000000000000004 0  5 0.5 0  5 0.5999999999999996 0  5 0.7000000000000002 0  5 0.7999999999999998 0  5 0.9000000000000004 0  5 1 0  5 1.1 0  5 1.2 0  5 1.3 0  5 1.4 0  5 1.5 0  5 1.6 0  5 1.7 0  5 1.8 0  5 1.9 0  5 2 0  5 2.1 0  5 2.2 0  5 2.3 0  5 2.4 0  5 2.5 0  5 2.6 0  5 2.7 0  5 2.8 0  5 2.9 0  5 3 0  5 3.1 0  5 3.199999999999999 0  5 3.300000000000001 0  5 3.4 0  5 3.5 0  5 3.6 0  5 3.699999999999999 0  5 3.800000000000001 0  5 3.9 0  5 4 0  5 4.1 0  5 4.199999999999999 0  5 4.300000000000001 0  5 4.4 0  5 4.5 0  5 4.6 0  5 4.699999999999999 0  5 4.800000000000001 0  5 4.9 0  4.9 5 0  4.8 5 0  4.7 5 0  4.6 5 0  4.5 5 0  4.4 5 0  4.3 5 0  4.2 5 0  4.1 5 0  4 5 0  3.9 5 0  3.8 5 0  3.7 5 0  3.6 5 0  3.5 5 0  3.4 5 0  3.3 5 0  3.2 5 0  3.1 5 0  3 5 0  2.9 5 0  2.8 5 0  2.7 5 0  2.6 5 0  2.5 5 0  2.4 5 0  2.3 5 0  2.2 5 0  2.1 5 0  2 5 0  1.9 5 0  1.8 5 0  1.7 5 0  1.6 5 0  1.5 5 0  1.4 5 0  1.3 5 0  1.2 5 0  1.1 5 0  1 5 0  0.9000000000000004 5 0  0.7999999999999998 5 0  0.7000000000000002 5 0  0.5999999999999996 5 0  0.5 5 0  0.4000000000000004 5 0  0.2999999999999998 5 0  0.2000000000000002 5 0  0.09999999999999964 5 0  0 5 0  -0.09999999999999964 5 0  -0.2000000000000002 5 0  -0.2999999999999998 5 0  -0.4000000000000004 5 0  -0.5 5 0  -0.5999999999999996 5 0  -0.7000000000000002 5 0  -0.7999999999999998 5 0  -0.9000000000000004 5 0  -1 5 0  -1.1 5 0  -1.2 5 0  -1.3 5 0  -1.4 5 0  -1.5 5 0  -1.6 5 0  -1.7 5 0  -1.8 5 0  -1.9 5 0  -2 5 0  -2.1 5 0  -2.2 5 0  -2.3 5 0  -2.4 5 0  -2.5 5 0  -2.6 5 0  -2.7 5 0  -2.8 5 0  -2.9 5 0  -3 5 0  -3.1 5 0  -3.199999999999999 5 0  -3.300000000000001 5 0  -3.4 5 0  -3.5 5 0  -3.6 5 0  -3.699999999999999 5 0  -3.800000000000001 5 0  -3.9 5 0  -4 5 0  -4.1 5 0  -4.199999999999999 5 0  -4.300000000000001 5 0  -4.4 5 0  -4.5 5 0  -4.6 5 0  -4.699999999999999 5 0  -4.800000000000001 5 0  -4.9 5 0  -5 4.9 0  -5 4.8 0  -5 4.7 0  -5 4.6 0  -5 4.5 0  -5 4.4 0  -5 4.3 0  -5 4.2 0  -5 4.1 0  -5 4 0  -5 3.9 0  -5 3.8 0  -5 3.7 0  -5 3.6 0  -5 3.5 0  -5 3.4 0  -5 3.3 0  -5 3.2 0  -5 3.1 0  -5 3 0  -5 2.9 0  -5 2.8 0  -5 2.7 0  -5 2.6 0  -5 2.5 0  -5 2.4 0  -5 2.3 0  -5 2.2 0  -5 2.1 0  -5 2 0  -5 1.9 0  -5 1.8 0  -5 1.7 0  -5 1.6 0  -5 1.5 0  -5 1.4 0  -5 1.3 0  -5 1.2 0  -5 1.1 0  -5 1 0  -5 0.9000000000000004 0  -5 0.7999999999999998 0  -5 0.7000000000000002 0  -5 0.5999999999999996 0  -5 0.5 0  -5 0.4000000000000004 0  -5 0.2999999999999998 0  -5 0.2000000000000002 0  -5 0.09999999999999964 0  -5 0 0  -5 -0.09999999999999964 0  -5 -0.2000000000000002 0  -5 -0.2999999999999998 0  -5 -0.4000000000000004 0  -5 -0.5 0  -5 -0.5999999999999996 0  -5 -0.7000000000000002 0  -5 -0.7999999999999998 0  -5 -0.9000000000000004 0  -5 -1 0  -5 -1.1 0  -5 -1.2 0  -5 -1.3 0  -5 -1.4 0  -5 -1.5 0  -5 -1.6 0  -5 -1.7 0  -5 -1.8 0  -5 -1.9 0  -5 -2 0  -5 -2.1 0  -5 -2.2 0  -5 -2.3 0  -5 -2.4 0  -5 -2.5 0  -5 -2.6 0  -5 -2.7 0  -5 -2.8 0  -5 -2.9 0  -5 -3 0  -5 -3.1 0  -5 -3.199999999999999 0  -5 -3.300000000000001 0  -5 -3.4 0  -5 -3.5 0  -5 -3.6 0  -5 -3.699999999999999 0  -5 -3.800000000000001 0  -5 -3.9 0  -5 -4 0  -5 -4.1 0  -5 -4.199999999999999 0  -5 -4.300000000000001 0  -5 -4.4 0  -5 -4.5 0  -5 -4.6 0  -5 -4.699999999999999 0  -5 -4.800000000000001 0  -5 -4.9 0  1.243035784687355 0.09588517671104667 0  1.222003091336897 0.1932034843258128 0  1.188756399091765 0.2897522391307131 0  1.14606594451743 0.37903965768698 0  1.089034295121354 0.4696736222791724 0  1.023876285742123 0.554286349477823 0  0.9463725917052194 0.6340681322050074 0  0.8603004732669898 0.7082160286668137 0  0.7686839508107165 0.7735966858826246 0  0.6666435519221855 0.8310845081586069 0  0.5561699597688017 0.8833620775161917 0  0.4442659440209523 0.927051880783865 0  0.331443616435001 0.959627794574165 0  0.2083117096979428 0.9811892201296961 0  0.08934603351646296 0.9995959113165335 0  -0.02742880980288672 1.002743308415953 0  -0.1451738182425359 0.9895441435486719 0  -0.2706025433436204 0.9710026645687897 0  -0.3891992304903785 0.9464086517818083 0  -0.5000545809238657 0.9101368261116701 0  -0.6087148925325261 0.8637571631201379 0  -0.7108246028172208 0.8093080503197888 0  -0.8052834984075657 0.7446933416157108 0  -0.8955062793714296 0.6718596644659166 0  -0.979921551075028 0.5925646933401624 0  -1.053134488977106 0.5114075667803101 0  -1.11465043138114 0.4255647147550044 0  -1.166495883741975 0.3338085379644369 0  -1.204356127636831 0.2430848905854695 0  -1.228858182923688 0.1485952246665426 0  -1.240524993708314 0.05106950473799433 0  -1.24047503537411 -0.04895803550561639 0  -1.228786036275997 -0.1458206956039124 0  -1.204111817637878 -0.2393174702302643 0  -1.16385776293006 -0.334193461112763 0  -1.114903828893564 -0.4255006829138559 0  -1.054606817665918 -0.5111129134438845 0  -0.9821983927337101 -0.5915153039429637 0  -0.8984022731464363 -0.6695950298555455 0  -0.808535305439437 -0.7408483765439613 0  -0.7125965010240713 -0.8018219035718749 0  -0.6083419187712495 -0.8550801481007536 0  -0.4958622805294677 -0.9042590177008745 0  -0.3831638133864798 -0.943616957211198 0  -0.267309485630049 -0.9705072272315399 0  -0.1438113564912397 -0.9891606614669664 0  -0.027974913554215 -1.001910499916796 0  0.0892166953037609 -0.9950415824330189 0  0.2131232442504201 -0.9781160406085441 0  0.3338301312915296 -0.9580637727997089 0  0.4483644258983749 -0.9257200981784055 0  0.5584510500335413 -0.882489353466259 0  0.6675348887739366 -0.8311173213659198 0  0.7686883975334864 -0.7747528990505033 0  0.8604033917084234 -0.7091795815413999 0  0.9456951408203261 -0.6340342488388905 0  1.021373469468039 -0.5534697860399004 0  1.089383765664299 -0.4686820733493167 0  1.146965425944899 -0.3792251605871235 0  1.190473409061835 -0.2877583192125813 0  1.222599262850848 -0.19231969876289 0  1.243289966280827 -0.09555975487104873 0  -2.448585709769788 4.918158243674046 0  -2.44846209374654 -4.910540619207361 0  4.910466029496518 2.447926512504615 0  4.918588227231071 -2.449385141575232 0  2.446196096956224 -4.895780186426105 0  2.440628650948984 4.899541131091921 0  -4.910492731088067 -2.447952571136626 0  -4.910490083138467 2.447956457598823 0  -1.748540765928911 4.911066084317238 0  -1.744326379442577 -4.914505154714512 0  4.920654409190265 1.744098317211532 0  4.909191122755461 -1.747863520710957 0  -4.909484725813016 -1.747597363136089 0  -4.910306799808771 1.7473418777748 0  1.745815216902772 4.904926322103018 0  1.747231385506588 -4.893077474829243 0  -1.148846660744124 4.908860807865557 0  -1.129702624043977 -4.916772757668016 0  -4.909210918712106 -1.147920286322673 0  -4.909029345469838 1.147720650604665 0  1.143841000386538 -4.912958608348224 0  1.148856464676354 4.908847639999612 0  4.909351166202875 1.146195707831176 0  4.920180290386496 -1.151978503060931 0  -0.5466716444160672 -4.91005500170187 0  -0.5464539808786508 4.918736962313247 0  -4.907950358267051 -0.5487043187540884 0  -4.90797434652962 0.5472619432711238 0  4.907270116519046 -0.549022652119032 0  4.918925159196773 0.5457805189311569 0  0.5424542685140535 -4.89693654208267 0  0.5511827282167081 4.915560609520877 0  -4.911907092063882 -3.048305408742486 0  4.918477146017716 3.046320800235878 0  4.911415023146223 -3.04828129861255 0  -4.91275481684792 3.045396877002598 0  3.055309183652709 -4.91740141094485 0  -3.048640688391643 -4.911338275311766 0  3.05220774673643 4.913415827861584 0  -3.048086238821956 4.912227949765712 0  -4.90706102530378 -0.04990734717763824 0  0.04511998587650405 -4.912005412420782 0  0.04956766725568517 4.919030906856308 0  4.914115384278734 -0.0512894331114341 0  3.545625939028433 -4.919039829843742 0  -3.548907009117716 4.911940866807
[...]
<PointData  Scalars="f_30"> 
<DataArray  type="Float64"  Name="f_30"  format="ascii">0.0000000000000000e+00  0.0000000000000000e+00  0.0000000000000000e+00  0.0000000000000000e+00  7.1426409690013890e-02  0.0000000000000000e+00  0.0000000000000000e+00  0.0000000000000000e+00  0.0000000000000000e+00  0.0000000000000000e+00  0.0000000000000000e+00  0.0000000000000000e+00  0.0000000000000000e+00  0.0000000000000000e+00  0.0000000000000000e+00  0.0000000000000000e+00  0.0000000000000000e+00  0.0000000000000000e+00  0.0000000000000000e+00  0.0000000000000000e+00  0.0000000000000000e+00  0.0000000000000000e+00  0.0000000000000000e+00  0.0000000000000000e+00  0.0000000000000000e+00  0.0000000000000000e+00  0.0000000000000000e+00  0.0000000000000000e+00  0.0000000000000000e+00  0.0000000000000000e+00  0.0000000000000000e+00  0.0000000000000000e+00  0.0000000000000000e+00  0.0000000000000000e+00  0.0000000000000000e+00  0.0000000000000000e+00  0.0000000000000000e+00  0.0000000000000000e+00  0.0000000000000000e+00  0.0000000000000000e+00  0.0000000000000000e+00  0.0000000000000000e+00  0.0000000000000000e+00  0.0000000000000000e+00  0.0000000000000000e+00  0.0000000000000000e+00  0.0000000000000000e+00  0.0000000000000000e+00  0.0000000000000000e+00  0.0000000000000000e+00  0.0000000000000000e+00  0.0000000000000000e+00  0.0000000000000000e+00  0.0000000000000000e+00  0.0000000000000000e+00  0.0000000000000000e+00  0.0000000000000000e+00  0.0000000000000000e+00  0.0000000000000000e+00  0.0000000000000000e+00  0.0000000000000000e+00  0.0000000000000000e+00  0.0000000000000000e+00  0.0000000000000000e+00  0.0000000000000000e+00  0.0000000000000000e+00  0.0000000000000000e+00  0.0000000000000000e+00  0.0000000000000000e+00  0.0000000000000000e+00  0.0000000000000000e+00  0.0000000000000000e+00  0.0000000000000000e+00  0.0000000000000000e+00  0.0000000000000000e+00  0.0000000000000000e+00  0.0000000000000000e+00  0.0000000000000000e+00  0.0000000000000000e+00  0.0000000000000000e+00  0.0000000000000000e+00  0.0000000000000000e+00  0.0000000000000000e+00  0.0000000000000000e+00  0.0000000000000000e+00  0.0000000000000000e+00  0.0000000000000000e+00  0.0000000000000000e+00  0.0000000000000000e+00  0.0000000000000000e+00  0.0000000000000000e+00  0.0000000000000000e+00  0.0000000000000000e+00  0.0000000000000000e+00  0.0000000000000000e+00  0.0000000000000000e+00  0.0000000000000000e+00  0.0000000000000000e+00  0.0000000000000000e+00  0.0000000000000000e+00  0.0000000000000000e+00  0.0000000000000000e+00  0.0000000000000000e+00  0.0000000000000000e+00  0.0000000000000000e+00  0.0000000000000000e+00  0.0000000000000000e+00  0.0000000000000000e+00  0.0000000000000000e+00  0.0000000000000000e+00  0.0000000000000000e+00  0.0000000000000000e+00  0.0000000000000000e+00  0.0000000000000000e+00  0.0000000000000000e+00  0.0000000000000000e+00  0.0000000000000000e+00  0.0000000000000000e+00  0.0000000000000000e+00  0.0000000000000000e+00  0.0000000000000000e+00  0.0000000000000000e+00  0.0000000000000000e+00  0.0000000000000000e+00  0.0000000000000000e+00  0.0000000000000000e+00  0.0000000000000000e+00  0.0000000000000000e+00  0.0000000000000000e+00  0.0000000000000000e+00  0.0000000000000000e+00  0.0000000000000000e+00  0.0000000000000000e+00  0.0000000000000000e+00  0.0000000000000000e+00  0.0000000000000000e+00  0.0000000000000000e+00  0.0000000000000000e+00  0.0000000000000000e+00  0.0000000000000000e+00  0.0000000000000000e+00  0.0000000000000000e+00  0.0000000000000000e+00  0.0000000000000000e+00  0.0000000000000000e+00  0.0000000000000000e+00  0.0000000000000000e+00  0.0000000000000000e+00  0.0000000000000000e+00  0.0000000000000000e+00  0.0000000000000000e+00  0.0000000000000000e+00  0.0000000000000000e+00  0.0000000000000000e+00  0.0000000000000000e+00  0.0000000000000000e+00  0.0000000000000000e+00  0.0000000000000000e+00  0.0000000000000000e+00  0.0000000000000000e+00  0.0000000000000000e+00  0.0000000000000000e+00  0.0000000000000000e+00  0.0000000000000000e+00  0.0000000000000000e+00  0.0000000000000000e+00  0.0000000000000000e+00  0.0000000000000000e+00  0.0000000000000000e+00  0.0000000000000000e+00  0.0000000000000000e+00  0.0000000000000000e+00  0.0000000000000000e+00  0.0000000000000000e+00  0.0000000000000000e+00  0.0000000000000000e+00  0.0000000000000000e+00  0.0000000000000000e+00  0.0000000000000000e+00  0.0000000000000000e+00  0.0000000000000000e+00  0.0000000000000000e+00  0.0000000000000000e+00  0.0000000000000000e+00  0.0000000000000000e+00  0.0000000000000000e+00  0.0000000000000000e+00  0.0000000000000000e+00  0.0000000000000000e+00  0.0000000000000000e+00  0.0000000000000000e+00  0.0000000000000000e+00  0.0000000000000000e+00  0.0000000000000000e+00  0.0000000000000000e+00  0.0000000000000000e+00  0.0000000000000000e+00  0.0000000000000000e+00  0.0000000000000000e+00  0.0000000000000000e+00  0.0000000000000000e+00  0.0000000000000000e+00  0.0000000000000000e+00  0.0000000000000000e+00  0.0000000000000000e+00  0.0000000000000000e+00  0.0000000000000000e+00  0.0000000000000000e+00  0.0000000000000000e+00  0.0000000000000000e+00  0.0000000000000000e+00  0.0000000000000000e+00  0.0000000000000000e+00  0.0000000000000000e+00  0.0000000000000000e+00  0.0000000000000000e+00  0.0000000000000000e+00  0.0000000000000000e+00  0.0000000000000000e+00  0.0000000000000000e+00  0.0000000000000000e+00  0.0000000000000000e+00  0.0000000000000000e+00  0.0000000000000000e+00  0.0000000000000000e+00  0.0000000000000000e+00  0.0000000000000000e+00  0.0000000000000000e+00  0.0000000000000000e+00  0.0000000000000000e+00  0.0000000000000000e+00  0.0000000000000000e+00  0.0000000000000000e+00  0.0000000000000000e+00  0.0000000000000000e+00  0.0000000000000000e+00  0.0000000000000000e+00  0.0000000000000000e+00  0.0000000000000000e+00  0.0000000000000000e+00  0.0000000000000000e+00  0.0000000000000000e+00  0.0000000000000000e+00  0.0000000000000000e+00  0.0000000000000000e+00  0.0000000000000000e+00  0.0000000000000000e+00  0.0000000000000000e+00  0.0000000000000000e+00  0.0000000000000000e+00  0.0000000000000000e+00  0.0000000000000000e+00  0.0000000000000000e+00  0.0000000000000000e+00  0.0000000000000000e+00  0.0000000000000000e+00  0.0000000000000000e+00  0.0000000000000000e+00  0.0000000000000000e+00  0.0000000000000000e+00  0.0000000000000000e+00  0.0000000000000000e+00  0.0000000000000000e+00  0.0000000000000000e+00  0.0000000000000000e+00  0.0000000000000000e+00  0.0000000000000000e+00  0.0000000000000000e+00  0.0000000000000000e+00  0.0000000000000000e+00  0.0000000000000000e+00  0.0000000000000000e+00  0.0000000000000000e+00  0.0000000000000000e+00  0.0000000000000000e+00  0.0000000000000000e+00  0.0000000000000000e+00  0.0000000000000000e+00  0.0000000000000000e+00  0.0000000000000000e+00  0.0000000000000000e+00  0.0000000000000000e+00  0.0000000000000000e+00  0.0000000000000000e+00  0.0000000000000000e+00  0.0000000000000000e+00  0.0000000000000000e+00  0.0000000000000000e+00  0.0000000000000000e+00  0.0000000000000000e+00  0.0000000000000000e+00  0.0000000000000000e+00  0.0000000000000000e+00  0.0000000000000000e+00  0.0000000000000000e+00  0.0000000000000000e+00  0.0000000000000000e+00  0.0000000000000000e+00  0.0000000000000000e+00  0.0000000000000000e+00  0.0000000000000000e+00  0.0000000000000000e+00  0.0000000000000000e+00  0.0000000000000000e+00  0.0000000000000000e+00  0.0000000000000000e+00  0.0000000000000000e+00  0.0000000000000000e+00  0.0000000000000000e+00  0.0000000000000000e+00  0.0000000000000000e+00  0.0000000000000000e+00  0.0000000000000000e+00  0.0000000000000000e+00  0.0000000000000000e+00  0.0000000000000000e+00  0.0000000000000000e+00  0.0000000000000000e+00  0.0000000000000000e+00  0.0000000000000000e+00  0.0000000000000000e+00  0.0000000000000000e+00  0.0000000000000000e+00  0.0000000000000000e+00  0.0000000000000000e+00  0.0000000000000000e+00  0.0000000000000000e+00  0.0000000000000000e+00  0.0000000000000000e+00  0.0000000000000000e+00  0.0000000000000000e+00  0.0000000000000000e+00  0.0000000000000000e+00  0.0000000000000000e+00  0.0000000000000000e+00  0.0000000000000000e+00  0.0000000000000000e+00  0.0000000000000000e+00  0.0000000000000000e+00  0.0000000000000000e+00  0.0000000000000000e+00  0.0000000000000000e+00  0.0000000000000000e+00  0.0000000000000000e+00  0.0000000000000000e+00  0.0000000000000000e+00  0.0000000000000000e+00  0.0000000000000000e+00  0.0000000000000000e+00  0.0000000000000000e+00  0.0000000000000000e+00  0.0000000000000000e+00  0.0000000000000000e+00  0.0000000000000000e+00  0.0000000000000000e+00  0.0000000000000000e+00  0.0000000000000000e+00  0.0000000000000000e+00  0.0000000000000000e+00  0.0000000000000000e+00  0.0000000000000000e+00  0.0000000000000000e+00  0.0000000000000000e+00  0.0000000000000000e+00  0.0000000000000000e+00  0.0000000000000000e+00  0.0000000000000000e+00  0.0000000000000000e+00  0.0000000000000000e+00  0.0000000000000000e+00  0.0000000000000000e+00  0.0000000000000000e+00  0.0000000000000000e+00  0.0000000000000000e+00  0.0000000000000000e+00  0.0000000000000000e+00  0.0000000000000000e+00  0.0000000000000000e+00  0.0000000000000000e+00  0.0000000000000000e+00  0.0000000000000000e+00  0.0000000000000000e+00  0.0000000000000000e+00  0.0000000000000000e+00  0.0000000000000000e+00  0.0000000000000000e+00  0.0000000000000000e+00  0.0000000000000000e+00  0.0000000000000000e+00  0.0000000000000000e+00  0.0000000000000000e+00  0.0000000000000000e+00  0.0000000000000000e+00  0.0000000000000000e+00  0.0000000000000000e+00  0.0000000000000000e+00  0.0000000000000000e+00  0.0000000000000000e+00  0.0000000000000000e+00  0.0000000000000000e+00  0.0000000000000000e+00  7.2641624202297556e-02  6.2551073256116793e-02  5.3777027182418051e-02  4.6701923970595763e-02  5.8400664171082653e-02  7.9562815883938515e-02  7.1761629624120069e-02  5.9481269824963184e-02  6.6270456170297976e-02  7.6403069531393905e-02  6.8153200216115636e-02  7.6370331696100760e-02  7.3226088739001882e-02  6.3063264439462197e-02  5.9674643561185049e-02  6.4121163693479130e-02  5.5161554007399423e-02  5.6801142360091900e-02  7.1397178770339839e-02  6.6821661753451361e-02  6.4109009415734650e-02  6.3114051339849722e-02  6.9936193371595359e-02  7.0839164705197841e-02  6.5261011177092154e-02  6.2207970443291738e-02  6.6720294803064795e-02  6.2799255768981502e-02  5.3952829256284203e-02  5.9286550880947433e-02  6.0892576511887037e-02  6.5095292345556680e-02  6.8566657665732625e-02  8.6274382172600972e-02  6.4571303206614153e-02  7.4341529345529289e-02  6.8065544262656888e-02  7.3023340092131156e-02  7.0159266776878226e-02  6.7689891214843353e-02  5.5477993042258734e-02  7.9176445473274168e-02  6.2652979299400322e-02  7.5713967654795711e-02  6.3938967518022097e-02  6.5366980330154492e-02  1.0686906739375915e-01  7.6827296719686883e-02  6.4610465560016733e-02  6.4466484719504516e-02  6.6233551715600483e-02  5.6947979577803433e-02  6.4219778685053547e-02  8.1816932832302014e-02  6.8172101455108561e-02  6.3198206696197454e-02  6.0956760961025112e-02  6.1113072185078166e-02  8.2383152689635392e-02  7.5230092075575433e-02  7.0357966647446341e-02  7.1534035702931931e-02  3.6120890561573837e-27  -1.3176797882104727e-27  -2.6372987022376713e-27  -2.9362108889588501e-27  -1.2753838683315393e-27  -5.3175717095811631e-28  -2.0321713834966679e-28  1.8085996407005037e-27  7.1906707223060272e-27  4.1261239976464148e-27  -7.0167486132530871e-25  -6.6245816822232912e-25  5.4015521314045583e-25  1.1894523768006907e-24  3.7092517819626192e-26  3.0577859727376327e-26  -4.7815930390703073e-26  -3.0032419031334528e-26  -1.1242594313157172e-22  -1.6505400961209561e-22  -4.3275570084346090e-26  -4.9234987477958119e-26  4.7612435816548967e-23  4.7758638900007468e-23  -4.7385917435556459e-27  -3.9751350475602567e-26  -7.5369922770105780e-21  -7.1236227069126057e-21  -4.5758828021079732e-21  -4.8274274777342841e-21  8.3204285640665875e-26  -2.6524929639828929e-26  7.1703377554859295e-30  -8.8439265173815595e-30  -9.0742307706196558e-30  1.6282534243282240e-29  1.9760035108313510e-28  3.9844677193556803e-28  2.8927831341191445e-28  3.1818378034964777e-28  3.5536295330894849e-20  6.3553157988929826e-26  1.2229339223185104e-26  3.8447621337847616e-20  -9.0965147843259273e-30  -9.9263725188304408e-30  -6.2620396201884643e-30  2.3186070052978795e-31  2.4329242505201262e-31  2.3940963186706258e-31  1.4562222756426954e-31  -9.9633769750295869e-30  -6.1356140037219441e-33  -2.3069007227367110e-32  1.1371219037437440e-31  -4.0599788434657567e-33  2.5154695480729765e-32  -6.0625812804196320e-33  1.3756195063287780e-31  -9.9017482364688160e-34  -1.2942976027999821e-33  -4.6819478241196257e-34  -1.9574405254096333e-34  1.4856513714622995e-34  1.3409178681648956e-34  7.7341129472564429e-35  7.3736301418876195e-36  -1.6096915307091198e-33  2.7758150702049265e-20  4.6290530553112076e-26  -1.3627170650670343e-26  1.3821898201672989e-20  1.1675476706952923e-25  -3.4725226590238813e-24  1.3394908226268934e-21  8.8430431547791563e-22  -3.2579684552365730e-24  2.7353139650547346e-26  7.8783368262487023e-26  -5.2875273167923335e-26  -3.8571127009225911e-26  -1.1547888856331722e-23  3.9597122283486652e-22  4.1482012856304848e-22  -1.1338401848349372e-23  -2.5509134023727873e-27  8.8213933605052278e-26  -4.0402418026548751e-27  5.5572812801054528e-27  -6.5556240409175296e-27  8.9114999757389395e-26  1.1270769058636933e-25  -4.0130707259471925e-27  -2.4127381920423221e-27  3.0464789419939045e-26  2.8830734235420027e-26  -1.5704724670278382e-28  -7.7610219661094440e-28  -1.2224715830921205e-27  2.0590620484120090e-28  6.3879455121640751e-28  6.7275893858443266e-29  -1.5133885715785396e-28  -9.2252987506739371e-28  1.2567465952247953e-35  1.8952177697525242e-35  7.5316860442246109e-36  -1.6946033300858666e-36  6.4699461928326621e-36  1.5368868889051799e-36  1.0557457999555500e-35  5.2340179743054207e-37  2.7877468689860222e-20  1.2036299442840183e-25  1.1446630698337457e-25  1.3760368220105681e-20  -1.7863035824313688e-27  4.4955679546663653e-27  4.7956977792038303e-27  -7.1561192889487433e-27  -1.1865850021917322e-26  -6.9850324467691609e-29  -8.1943148707313946e-27  -2.0294423155337014e-26  3.5252784260866115e-30  -1.1192092487076022e-28  -7.3961129423893345e-29  2.8341013102053474e-30  3.4754376194723925e-30  -9.6395381104767573e-29  -1.2779711637081339e-28  1.1569376988477009e-30  -3.7499939337172970e-33  3.6441402210014756e-34  1.2052978912022364e-30  -1.2997730559575758e-32  2.7360652541815366e-31  -1.5412841442112045e-32  -3.6562399459938386e-32  1.2126587634655937e-33  8.1374410666796076e-31  -1.3325624877421619e-32  -1.3655500934330893e-33  2.9198300609965886e-34  -4.4317817986415193e-32  1.2637524542888541e-33  5.2319056475936804e-31  -1.7094968576358761e-32  -3.7014102471873662e-36  -1.7453800085270445e-36  -2.9595981039077520e-36  -3.4662517935044688e-36  3.4840952324971013e-20  -1.2995853848501002e-19  -8.5771484917175823e-20  4.2076950737296612e-19  2.0515162797905817e-19  -1.2097206190933818e-18  -3.1622076967816873e-19  2.8705394246969718e-18  -2.7975272434862097e-19  -4.3099804471240168e-18  4.7474873496303236e-18  -4.6496827440547255e-18  -2.3363936325860974e-17  6.8991206773056435e-17  8.0970997217058278e-17  -3.3342387782845185e-16  -2.1158947121658200e-16  1.1328876304988109e-15  3.8162538090628999e-16  -2.8846907922002555e-15  -2.0353345866899907e-16  -4.7525366238001587e-15  4.9165520387766402e-15  -1.6200971520878718e-15  -1.5863604450089196e-15  7.3808899794945972e-15  -2.5145867225594139e-14  -1.5924052793623375e-14  9.9126087508462499e-14  9.7169951787261411e-15  -1.8521732376989331e-13  5.6053599173514261e-14  -3.7650738862358570e-13  2.9176682175536091e-14  -1.9703582281147718e-13  8.8654757565684886e-13  1.5536383754170777e-13  -2.2293419989539952e-12  7.7802392494121696e-13  -1.2244191164958078e-13  -2.4767513348122174e-12  1.3240152020110903e-11  -1.0637096349006828e-13  -2.1326472680381643e-11  -2.3720650379111570e-11  1.5576241682816419e-11  -4.0435932540990669e-11  -2.6197004847458305e-11  -3.0475889387510322e-13  1.7310817473293278e-11  -4.9867777852872010e-11  -2.3475124551855150e-11  -1.2717078951452885e-12  1.8382143258816230e-11  -2.7278775139782768e-12  -3.2804598731375946e-12  -1.3737044322240218e-11  1.8262691849154927e-11  -1.8308163316699244e-12  -6.7099889521710813e-12  1.4874961135468795e-12  3.6898644698462303e-13  1.1085111993221613e-11  -8.5790470649321935e-12  9.5890390126424228e-13  3.5615961310764323e-12  -1.4405374990021815e-11  2.2790837270132632e-12  -9.7888636078580773e-13  2.8368202931428207e-13  -4.9727539355426189e-12  2.1933221821895451e-12  -8.9154000986751545e-12  1.4121262741224344e-13  1.4211340677294691e-12  2.1923258602569704e-12  -3.5655708906435721e-12  2.5691765566199961e-11  -9.9231810982322318e-12  4.6010834761843116e-11  -1.3699266532390360e-11  5.3262944451892729e-11  3.2758506199783585e-12  -1.4243333360394642e-11  5.2221835954996594e-11  -1.3903439664865048e-11  5.2099251161110537e-11  -1.4170549256544899e-11  5.2926159251615312e-11  -1.3636876438722128e-11  4.6054005418610973e-11  -1.0050888025532557e-11  2.6443262615999134e-11  -3.7217360386884683e-12  1.9324457055573728e-12  3.2816532127194889e-12  -1.3958259312419591e-10  2.5665501208237336e+00  1.9658710778222932e-12  -1.3155880124838690e-11  3.9195794219314215e-12  -1.2890410418264151e-11  2.6416621501898092e+00  2.4092213433941579e-12  -4.4100596133788714e-12  2.5232017689979451e+00  1.7713345322539233e-13  1.8656728833392174e-12  1.7131007043665029e-12  -1.0303753744961143e-11  2.3502551494145021e-12  -4.7667921137442462e-12  -1.9087944215472837e-10  -3.2979695697263474e-13  1.8420043495642210e-13  2.4650900755033644e-12  1.3470561633226617e-12  -1.3791785693314776e-11  3.1901111876652272e-12  -6.8567023577186774e-12  4.4374974939883299e-11  5.1244574693217576e-12  1.7259732110481855e-12  -1.0570380798562264e-11  2.9625680013753796e-11  2.7853841785449564e-11  -3.0701319158838722e-12  -2.6888105844166128e-12  -2.9985305991724733e-11  2.4132565219236214e-11  -4.4953480852343619e-12  2.5561380733886648e-12  -4.7095517206520459e-11  1.4858273961210667e-11  -3.5626259935775632e-12  2.0491504879259022e-12  -3.4326701166510153e-11  1.3014119934776212e-11  -1.6573273847218358e-11  -2.7054908304236663e-11  7.5557300506461555e-13  1.4722973239889069e-11  -2.5693162617904920e-11  -3.4307236839022061e-11  1.0560626097587301e-12  1.9258427583939713e-11  -3.8105987523245570e-11  -4.0370835228111018e-11  3.3822286767397454e-10  -1.0485433115739288e-10  3.4678471734128506e-11  2.7917413475428925e-10  -1.0159200451760891e-11  -1.5824843837795494e-10  7.0789711978626480e-10  -9.7375261303418975e-11  -3.1623798662110138e-10  3.3496850771106548e-10  -1.7630277553691009e-09  3.1758930309784136e-10  5.2656556652066213e-10  -9.3929243958958243e-10  5.5422494332704501e-11  4.6164120409447831e-10  -2.0805801601655748e-09  4.1347296992747380e-10  4.8345412092884532e-11  -7.7768305009109232e-10  6.2573830541828951e-09  -2.5230043050815084e-09  1.1102239285478728e-08  -2.6965817424706227e-09  6.0760557005772013e-09  3.0402067581276571e-10  -1.0068842274101456e-08  5.1679083957696545e-09  -2.7534793918259632e-08  8.9690763051265299e-09  -3.7318218100536624e-08  1.0594685541131570e-08  -4.0077992149120899e-08  1.0586072814815221e-08  -3.7174729026133504e-08  8.7248300860676968e-09  -2.6310879865505423e-08  5.0685661621295023e-09  -1.1416172930302011e-08  -1.8825316241685617e-09  -8.3021166151952719e-10  3.6490836413311703e-10  9.5299142819847080e-11  -6.0274812905058454e-11  2.9172334394456928e-12  6.9893048370887641e-12  -6.6547256143091633e-12  1.9364368779315165e-13  2.8335946949014689e-12  -1.2437677490367982e-11  -4.7751684203883873e-13  4.5644322272020759e-10  3.2651063201300334e-12  -1.0225753459026141e-11  1.8589517073004752e-12  -3.3190774771355273e-12  1.0211859704553937e-13  1.5019759774625049e-12  -5.0334254036630886e-13  1.3507406