<?xml version="1.0"?>
<VTKFile type="UnstructuredGrid"  version="0.1"  >
<UnstructuredGrid>
<Piece  NumberOfPoints="11902" NumberOfCells="23402">
<Points>
<DataArray  type="Float64"  NumberOfComponents="3"  format="ascii">-5 -5 0  5 -5 0  5 5 0  -5 5 0  1.249158123461791 0.001367190120957591 0  -4.9 -5 0  -4.8 -5 0  -4.7 -5 0  -4.6 -5 0  -4.5 -5 0  -4.4 -5 0  -4.3 -5 0  -4.2 -5 0  -4.1 -5 0  -4 -5 0  -3.9 -5 0  -3.8 -5 0  -3.7 -5 0  -3.6 -5 0  -3.5 -5 0  -3.4 -5 0  -3.3 -5 0  -3.2 -5 0  -3.1 -5 0  -3 -5 0  -2.9 -5 0  -2.8 -5 0  -2.7 -5 0  -2.6 -5 0  -2.5 -5 0  -2.4 -5 0  -2.3 -5 0  -2.2 -5 0  -2.1 -5 0  -2 -5 0  -1.9 -5 0  -1.8 -5 0  -1.7 -5 0  -1.6 -5 0  -1.5 -5 0  -1.4 -5 0  -1.3 -5 0  -1.2 -5 0  -1.1 -5 0  -1 -5 0  -0.9000000000000004 -5 0  -0.7999999999999998 -5 0  -0.7000000000000002 -5 0  -0.5999999999999996 -5 0  -0.5 -5 0  -0.4000000000000004 -5 0  -0.2999999999999998 -5 0  -0.2000000000000002 -5 0  -0.09999999999999964 -5 0  0 -5 0  0.09999999999999964 -5 0  0.2000000000000002 -5 0  0.2999999999999998 -5 0  0.4000000000000004 -5 0  0.5 -5 0  0.5999999999999996 -5 0  0.7000000000000002 -5 0  0.7999999999999998 -5 0  0.9000000000000004 -5 0  1 -5 0  1.1 -5 0  1.2 -5 0  1.3 -5 0  1.4 -5 0  1.5 -5 0  1.6 -5 0  1.7 -5 0  1.8 -5 0  1.9 -5 0  2 -5 0  2.1 -5 0  2.2 -5 0  2.3 -5 0  2.4 -5 0  2.5 -5 0  2.6 -5 0  2.7 -5 0  2.8 -5 0  2.9 -5 0  3 -5 0  3.1 -5 0  3.199999999999999 -5 0  3.300000000000001 -5 0  3.4 -5 0  3.5 -5 0  3.6 -5 0  3.699999999999999 -5 0  3.800000000000001 -5 0  3.9 -5 0  4 -5 0  4.1 -5 0  4.199999999999999 -5 0  4.300000000000001 -5 0  4.4 -5 0  4.5 -5 0  4.6 -5 0  4.699999999999999 -5 0  4.800000000000001 -5 0  4.9 -5 0  5 -4.9 0  5 -4.8 0  5 -4.7 0  5 -4.6 0  5 -4.5 0  5 -4.4 0  5 -4.3 0  5 -4.2 0  5 -4.1 0  5 -4 0  5 -3.9 0  5 -3.8 0  5 -3.7 0  5 -3.6 0  5 -3.5 0  5 -3.4 0  5 -3.3 0  5 -3.2 0  5 -3.1 0  5 -3 0  5 -2.9 0  5 -2.8 0  5 -2.7 0  5 -2.6 0  5 -2.5 0  5 -2.4 0  5 -2.3 0  5 -2.2 0  5 -2.1 0  5 -2 0  5 -1.9 0  5 -1.8 0  5 -1.7 0  5 -1.6 0  5 -1.5 0  5 -1.4 0  5 -1.3 0  5 -1.2 0  5 -1.1 0  5 -1 0  5 -0.9000000000000004 0  5 -0.7999999999999998 0  5 -0.7000000000000002 0  5 -0.5999999999999996 0  5 -0.5 0  5 -0.4000000000000004 0  5 -0.2999999999999998 0  5 -0.2000000000000002 0  5 -0.09999999999999964 0  5 0 0  5 0.09999999999999964 0  5 0.2000000000000002 0  5 0.2999999999999998 0  5 0.4000000000000004 0  5 0.5 0  5 0.5999999999999996 0  5 0.7000000000000002 0  5 0.7999999999999998 0  5 0.9000000000000004 0  5 1 0  5 1.1 0  5 1.2 0  5 1.3 0  5 1.4 0  5 1.5 0  5 1.6 0  5 1.7 0  5 1.8 0  5 1.9 0  5 2 0  5 2.1 0  5 2.2 0  5 2.3 0  5 2.4 0  5 2.5 0  5 2.6 0  5 2.7 0  5 2.8 0  5 2.9 0  5 3 0  5 3.1 0  5 3.199999999999999 0  5 3.300000000000001 0  5 3.4 0  5 3.5 0  5 3.6 0  5 3.699999999999999 0  5 3.800000000000001 0  5 3.9 0  5 4 0  5 4.1 0  5 4.199999999999999 0  5 4.300000000000001 0  5 4.4 0  5 4.5 0  5 4.6 0  5 4.699999999999999 0  5 4.800000000000001 0  5 4.9 0  4.9 5 0  4.8 5 0  4.7 5 0  4.6 5 0  4.5 5 0  4.4 5 0  4.3 5 0  4.2 5 0  4.1 5 0  4 5 0  3.9 5 0  3.8 5 0  3.7 5 0  3.6 5 0  3.5 5 0  3.4 5 0  3.3 5 0  3.2 5 0  3.1 5 0  3 5 0  2.9 5 0  2.8 5 0  2.7 5 0  2.6 5 0  2.5 5 0  2.4 5 0  2.3 5 0  2.2 5 0  2.1 5 0  2 5 0  1.9 5 0  1.8 5 0  1.7 5 0  1.6 5 0  1.5 5 0  1.4 5 0  1.3 5 0  1.2 5 0  1.1 5 0  1 5 0  0.9000000000000004 5 0  0.7999999999999998 5 0  0.7000000000000002 5 0  0.5999999999999996 5 0  0.5 5 0  0.4000000000000004 5 0  0.2999999999999998 5 0  0.2000000000000002 5 0  0.09999999999999964 5 0  0 5 0  -0.09999999999999964 5 0  -0.2000000000000002 5 0  -0.2999999999999998 5 0  -0.4000000000000004 5 0  -0.5 5 0  -0.5999999999999996 5 0  -0.7000000000000002 5 0  -0.7999999999999998 5 0  -0.9000000000000004 5 0  -1 5 0  -1.1 5 0  -1.2 5 0  -1.3 5 0  -1.4 5 0  -1.5 5 0  -1.6 5 0  -1.7 5 0  -1.8 5 0  -1.9 5 0  -2 5 0  -2.1 5 0  -2.2 5 0  -2.3 5 0  -2.4 5 0  -2.5 5 0  -2.6 5 0  -2.7 5 0  -2.8 5 0  -2.9 5 0  -3 5 0  -3.1 5 0  -3.199999999999999 5 0  -3.300000000000001 5 0  -3.4 5 0  -3.5 5 0  -3.6 5 0  -3.699999999999999 5 0  -3.800000000000001 5 0  -3.9 5 0  -4 5 0  -4.1 5 0  -4.199999999999999 5 0  -4.300000000000001 5 0  -4.4 5 0  -4.5 5 0  -4.6 5 0  -4.699999999999999 5 0  -4.800000000000001 5 0  -4.9 5 0  -5 4.9 0  -5 4.8 0  -5 4.7 0  -5 4.6 0  -5 4.5 0  -5 4.4 0  -5 4.3 0  -5 4.2 0  -5 4.1 0  -5 4 0  -5 3.9 0  -5 3.8 0  -5 3.7 0  -5 3.6 0  -5 3.5 0  -5 3.4 0  -5 3.3 0  -5 3.2 0  -5 3.1 0  -5 3 0  -5 2.9 0  -5 2.8 0  -5 2.7 0  -5 2.6 0  -5 2.5 0  -5 2.4 0  -5 2.3 0  -5 2.2 0  -5 2.1 0  -5 2 0  -5 1.9 0  -5 1.8 0  -5 1.7 0  -5 1.6 0  -5 1.5 0  -5 1.4 0  -5 1.3 0  -5 1.2 0  -5 1.1 0  -5 1 0  -5 0.9000000000000004 0  -5 0.7999999999999998 0  -5 0.7000000000000002 0  -5 0.5999999999999996 0  -5 0.5 0  -5 0.4000000000000004 0  -5 0.2999999999999998 0  -5 0.2000000000000002 0  -5 0.09999999999999964 0  -5 0 0  -5 -0.09999999999999964 0  -5 -0.2000000000000002 0  -5 -0.2999999999999998 0  -5 -0.4000000000000004 0  -5 -0.5 0  -5 -0.5999999999999996 0  -5 -0.7000000000000002 0  -5 -0.7999999999999998 0  -5 -0.9000000000000004 0  -5 -1 0  -5 -1.1 0  -5 -1.2 0  -5 -1.3 0  -5 -1.4 0  -5 -1.5 0  -5 -1.6 0  -5 -1.7 0  -5 -1.8 0  -5 -1.9 0  -5 -2 0  -5 -2.1 0  -5 -2.2 0  -5 -2.3 0  -5 -2.4 0  -5 -2.5 0  -5 -2.6 0  -5 -2.7 0  -5 -2.8 0  -5 -2.9 0  -5 -3 0  -5 -3.1 0  -5 -3.199999999999999 0  -5 -3.300000000000001 0  -5 -3.4 0  -5 -3.5 0  -5 -3.6 0  -5 -3.699999999999999 0  -5 -3.800000000000001 0  -5 -3.9 0  -5 -4 0  -5 -4.1 0  -5 -4.199999999999999 0  -5 -4.300000000000001 0  -5 -4.4 0  -5 -4.5 0  -5 -4.6 0  -5 -4.699999999999999 0  -5 -4.800000000000001 0  -5 -4.9 0  1.241642322287621 0.096051310503718 0  1.220713026014526 0.1933454520805838 0  1.187504174670719 0.2899094017494636 0  1.144856047802527 0.3792891517356057 0  1.08798342520879 0.46989639297408 0  1.022910304431343 0.5545455377082328 0  0.9455559049625476 0.6343147864976423 0  0.8596032355700193 0.7083830536673088 0  0.7680135327632994 0.7737565433222506 0  0.666060564096468 0.8312816791902914 0  0.5558010405830632 0.8835411499960533 0  0.4439752528958652 0.9271185033457507 0  0.331126918656731 0.9597427420001597 0  0.2082176164593022 0.9813249761854743 0  0.08937021450299068 0.9996115813238767 0  -0.02746168032136102 1.002734764712205 0  -0.145197288460426 0.9896527072342526 0  -0.2703571187661127 0.9711590212231398 0  -0.3888378233557009 0.9464992203019068 0  -0.4996941577698403 0.9102090881528608 0  -0.6082325191097679 0.8638461521792808 0  -0.7103161865285262 0.8094071776840646 0  -0.8047322006553889 0.7448545391677671 0  -0.8948273962196136 0.6721219611960343 0  -0.9790521990599427 0.5928899219107211 0  -1.052084678621287 0.5116992775782059 0  -1.113552081217143 0.4257946579038953 0  -1.165193315974273 0.3340890085101803 0  -1.203002971815286 0.2431639942278873 0  -1.227504798677191 0.1486221676693726 0  -1.239246520650313 0.05101240791950806 0  -1.239197333437485 -0.04889966129425902 0  -1.227424044227322 -0.1458603965228678 0  -1.202780786623987 -0.2395093140770714 0  -1.162709679790563 -0.334410647710386 0  -1.113795590532829 -0.4256595608496089 0  -1.053530908957733 -0.5113800721641022 0  -0.9813046476578435 -0.5918329070220452 0  -0.8976977048193019 -0.6698368789338246 0  -0.8079337730064089 -0.7410121319762935 0  -0.7120078426336993 -0.8019802582471102 0  -0.6078604065685459 -0.8552834050027761 0  -0.4955718849649002 -0.9043932747530844 0  -0.3829167505244176 -0.9436753203387005 0  -0.2670582718280047 -0.9706325918764527 0  -0.1438478562882781 -0.9892443520334386 0  -0.02797412730852998 -1.001894677424413 0  0.08931583477391386 -0.9951040117763817 0  0.2129581988512844 -0.978290444033365 0  0.3334965349380022 -0.9581742389867671 0  0.4480654809994561 -0.9257840103504965 0  0.558066454079104 -0.8826610529358835 0  0.6669476039894233 -0.8313040949243227 0  0.7680267103557901 -0.774917187345354 0  0.8597021955379658 -0.7093408710186376 0  0.9448973041896748 -0.6342543279326335 0  1.020444318272826 -0.5537533179427957 0  1.088275777554535 -0.4689220467404168 0  1.145763274020723 -0.3794569835150061 0  1.189212779841161 -0.2879244282257882 0  1.2212956703317 -0.1924600860073688 0  1.241881517532327 -0.09571366794562973 0  -2.448591105799504 4.918168101971027 0  -2.448467977289441 -4.910551377803825 0  4.910477016559416 2.447934164216218 0  4.918598203248292 -2.449392099244062 0  2.446202944405135 -4.895792813826984 0  2.440635266817621 4.89955334308087 0  -4.910503644084654 -2.447960147567978 0  -4.910501011994923 2.447964032273275 0  -1.748546372833522 4.91108035350266 0  -1.744331749792312 -4.91451886313192 0  4.920668295901225 1.744105247298806 0  4.909206984821661 -1.747871463692851 0  -4.909500427970048 -1.747605196024609 0  -4.910322376853622 1.74734963110442 0  1.745821175000788 4.904941650643236 0  1.747238071976453 -4.893094689203692 0  -1.148851141102467 4.908878154798622 0  -1.129706655350874 -4.916788629885423 0  -4.909230585363619 -1.147926734113634 0  -4.909049065632473 1.147727096797815 0  1.143845203617274 -4.912975212065724 0  1.148860898001502 4.90886503401978 0  4.909370971138797 1.146202203061878 0  4.920197693165037 -1.151984246469644 0  -0.5466739821560208 -4.910073906109318 0  -0.5464560925501634 4.918754079722121 0  -4.907973216500358 -0.548707901990092 0  -4.907997210779395 0.5472654986931135 0  4.907293334876778 -0.5490263027837348 0  4.918945468087337 0.545783684329695 0  0.542456847001082 -4.896958253271038 0  0.5511848853641029 4.91557840924553 0  -4.911914452578086 -3.048311668065036 0  4.918484005588076 3.046326650431698 0  4.911422460946065 -3.0482876523133 0  -4.912762133833635 3.045403084555768 0  3.055313982032795 -4.917408602591548 0  -3.04864584734691 -4.911345971276179 0  3.052212790038842 4.913423384266468 0  -3.048091359650702 4.912235581570101 0  -4.90708507693998 -0.04990769895723298 0  0.04512013933841519 -4.912024474970763 0  0.04956783324107882 4.919048482222912 0  4.914137795192372 -0.05128976611265518 0  3.54562972904851 -4.919044849312702 0  -3.548911126535714 4.911946
[...]
<PointData  Scalars="f_30"> 
<DataArray  type="Float64"  Name="f_30"  format="ascii">0.0000000000000000e+00  0.0000000000000000e+00  0.0000000000000000e+00  0.0000000000000000e+00  7.6749037408477397e-02  0.0000000000000000e+00  0.0000000000000000e+00  0.0000000000000000e+00  0.0000000000000000e+00  0.0000000000000000e+00  0.0000000000000000e+00  0.0000000000000000e+00  0.0000000000000000e+00  0.0000000000000000e+00  0.0000000000000000e+00  0.0000000000000000e+00  0.0000000000000000e+00  0.0000000000000000e+00  0.0000000000000000e+00  0.0000000000000000e+00  0.0000000000000000e+00  0.0000000000000000e+00  0.0000000000000000e+00  0.0000000000000000e+00  0.0000000000000000e+00  0.0000000000000000e+00  0.0000000000000000e+00  0.0000000000000000e+00  0.0000000000000000e+00  0.0000000000000000e+00  0.0000000000000000e+00  0.0000000000000000e+00  0.0000000000000000e+00  0.0000000000000000e+00  0.0000000000000000e+00  0.0000000000000000e+00  0.0000000000000000e+00  0.0000000000000000e+00  0.0000000000000000e+00  0.0000000000000000e+00  0.0000000000000000e+00  0.0000000000000000e+00  0.0000000000000000e+00  0.0000000000000000e+00  0.0000000000000000e+00  0.0000000000000000e+00  0.0000000000000000e+00  0.0000000000000000e+00  0.0000000000000000e+00  0.0000000000000000e+00  0.0000000000000000e+00  0.0000000000000000e+00  0.0000000000000000e+00  0.0000000000000000e+00  0.0000000000000000e+00  0.0000000000000000e+00  0.0000000000000000e+00  0.0000000000000000e+00  0.0000000000000000e+00  0.0000000000000000e+00  0.0000000000000000e+00  0.0000000000000000e+00  0.0000000000000000e+00  0.0000000000000000e+00  0.0000000000000000e+00  0.0000000000000000e+00  0.0000000000000000e+00  0.0000000000000000e+00  0.0000000000000000e+00  0.0000000000000000e+00  0.0000000000000000e+00  0.0000000000000000e+00  0.0000000000000000e+00  0.0000000000000000e+00  0.0000000000000000e+00  0.0000000000000000e+00  0.0000000000000000e+00  0.0000000000000000e+00  0.0000000000000000e+00  0.0000000000000000e+00  0.0000000000000000e+00  0.0000000000000000e+00  0.0000000000000000e+00  0.0000000000000000e+00  0.0000000000000000e+00  0.0000000000000000e+00  0.0000000000000000e+00  0.0000000000000000e+00  0.0000000000000000e+00  0.0000000000000000e+00  0.0000000000000000e+00  0.0000000000000000e+00  0.0000000000000000e+00  0.0000000000000000e+00  0.0000000000000000e+00  0.0000000000000000e+00  0.0000000000000000e+00  0.0000000000000000e+00  0.0000000000000000e+00  0.0000000000000000e+00  0.0000000000000000e+00  0.0000000000000000e+00  0.0000000000000000e+00  0.0000000000000000e+00  0.0000000000000000e+00  0.0000000000000000e+00  0.0000000000000000e+00  0.0000000000000000e+00  0.0000000000000000e+00  0.0000000000000000e+00  0.0000000000000000e+00  0.0000000000000000e+00  0.0000000000000000e+00  0.0000000000000000e+00  0.0000000000000000e+00  0.0000000000000000e+00  0.0000000000000000e+00  0.0000000000000000e+00  0.0000000000000000e+00  0.0000000000000000e+00  0.0000000000000000e+00  0.0000000000000000e+00  0.0000000000000000e+00  0.0000000000000000e+00  0.0000000000000000e+00  0.0000000000000000e+00  0.0000000000000000e+00  0.0000000000000000e+00  0.0000000000000000e+00  0.0000000000000000e+00  0.0000000000000000e+00  0.0000000000000000e+00  0.0000000000000000e+00  0.0000000000000000e+00  0.0000000000000000e+00  0.0000000000000000e+00  0.0000000000000000e+00  0.0000000000000000e+00  0.0000000000000000e+00  0.0000000000000000e+00  0.0000000000000000e+00  0.0000000000000000e+00  0.0000000000000000e+00  0.0000000000000000e+00  0.0000000000000000e+00  0.0000000000000000e+00  0.0000000000000000e+00  0.0000000000000000e+00  0.0000000000000000e+00  0.0000000000000000e+00  0.0000000000000000e+00  0.0000000000000000e+00  0.0000000000000000e+00  0.0000000000000000e+00  0.0000000000000000e+00  0.0000000000000000e+00  0.0000000000000000e+00  0.0000000000000000e+00  0.0000000000000000e+00  0.0000000000000000e+00  0.0000000000000000e+00  0.0000000000000000e+00  0.0000000000000000e+00  0.0000000000000000e+00  0.0000000000000000e+00  0.0000000000000000e+00  0.0000000000000000e+00  0.0000000000000000e+00  0.0000000000000000e+00  0.0000000000000000e+00  0.0000000000000000e+00  0.0000000000000000e+00  0.0000000000000000e+00  0.0000000000000000e+00  0.0000000000000000e+00  0.0000000000000000e+00  0.0000000000000000e+00  0.0000000000000000e+00  0.0000000000000000e+00  0.0000000000000000e+00  0.0000000000000000e+00  0.0000000000000000e+00  0.0000000000000000e+00  0.0000000000000000e+00  0.0000000000000000e+00  0.0000000000000000e+00  0.0000000000000000e+00  0.0000000000000000e+00  0.0000000000000000e+00  0.0000000000000000e+00  0.0000000000000000e+00  0.0000000000000000e+00  0.0000000000000000e+00  0.0000000000000000e+00  0.0000000000000000e+00  0.0000000000000000e+00  0.0000000000000000e+00  0.0000000000000000e+00  0.0000000000000000e+00  0.0000000000000000e+00  0.0000000000000000e+00  0.0000000000000000e+00  0.0000000000000000e+00  0.0000000000000000e+00  0.0000000000000000e+00  0.0000000000000000e+00  0.0000000000000000e+00  0.0000000000000000e+00  0.0000000000000000e+00  0.0000000000000000e+00  0.0000000000000000e+00  0.0000000000000000e+00  0.0000000000000000e+00  0.0000000000000000e+00  0.0000000000000000e+00  0.0000000000000000e+00  0.0000000000000000e+00  0.0000000000000000e+00  0.0000000000000000e+00  0.0000000000000000e+00  0.0000000000000000e+00  0.0000000000000000e+00  0.0000000000000000e+00  0.0000000000000000e+00  0.0000000000000000e+00  0.0000000000000000e+00  0.0000000000000000e+00  0.0000000000000000e+00  0.0000000000000000e+00  0.0000000000000000e+00  0.0000000000000000e+00  0.0000000000000000e+00  0.0000000000000000e+00  0.0000000000000000e+00  0.0000000000000000e+00  0.0000000000000000e+00  0.0000000000000000e+00  0.0000000000000000e+00  0.0000000000000000e+00  0.0000000000000000e+00  0.0000000000000000e+00  0.0000000000000000e+00  0.0000000000000000e+00  0.0000000000000000e+00  0.0000000000000000e+00  0.0000000000000000e+00  0.0000000000000000e+00  0.0000000000000000e+00  0.0000000000000000e+00  0.0000000000000000e+00  0.0000000000000000e+00  0.0000000000000000e+00  0.0000000000000000e+00  0.0000000000000000e+00  0.0000000000000000e+00  0.0000000000000000e+00  0.0000000000000000e+00  0.0000000000000000e+00  0.0000000000000000e+00  0.0000000000000000e+00  0.0000000000000000e+00  0.0000000000000000e+00  0.0000000000000000e+00  0.0000000000000000e+00  0.0000000000000000e+00  0.0000000000000000e+00  0.0000000000000000e+00  0.0000000000000000e+00  0.0000000000000000e+00  0.0000000000000000e+00  0.0000000000000000e+00  0.0000000000000000e+00  0.0000000000000000e+00  0.0000000000000000e+00  0.0000000000000000e+00  0.0000000000000000e+00  0.0000000000000000e+00  0.0000000000000000e+00  0.0000000000000000e+00  0.0000000000000000e+00  0.0000000000000000e+00  0.0000000000000000e+00  0.0000000000000000e+00  0.0000000000000000e+00  0.0000000000000000e+00  0.0000000000000000e+00  0.0000000000000000e+00  0.0000000000000000e+00  0.0000000000000000e+00  0.0000000000000000e+00  0.0000000000000000e+00  0.0000000000000000e+00  0.0000000000000000e+00  0.0000000000000000e+00  0.0000000000000000e+00  0.0000000000000000e+00  0.0000000000000000e+00  0.0000000000000000e+00  0.0000000000000000e+00  0.0000000000000000e+00  0.0000000000000000e+00  0.0000000000000000e+00  0.0000000000000000e+00  0.0000000000000000e+00  0.0000000000000000e+00  0.0000000000000000e+00  0.0000000000000000e+00  0.0000000000000000e+00  0.0000000000000000e+00  0.0000000000000000e+00  0.0000000000000000e+00  0.0000000000000000e+00  0.0000000000000000e+00  0.0000000000000000e+00  0.0000000000000000e+00  0.0000000000000000e+00  0.0000000000000000e+00  0.0000000000000000e+00  0.0000000000000000e+00  0.0000000000000000e+00  0.0000000000000000e+00  0.0000000000000000e+00  0.0000000000000000e+00  0.0000000000000000e+00  0.0000000000000000e+00  0.0000000000000000e+00  0.0000000000000000e+00  0.0000000000000000e+00  0.0000000000000000e+00  0.0000000000000000e+00  0.0000000000000000e+00  0.0000000000000000e+00  0.0000000000000000e+00  0.0000000000000000e+00  0.0000000000000000e+00  0.0000000000000000e+00  0.0000000000000000e+00  0.0000000000000000e+00  0.0000000000000000e+00  0.0000000000000000e+00  0.0000000000000000e+00  0.0000000000000000e+00  0.0000000000000000e+00  0.0000000000000000e+00  0.0000000000000000e+00  0.0000000000000000e+00  0.0000000000000000e+00  0.0000000000000000e+00  0.0000000000000000e+00  0.0000000000000000e+00  0.0000000000000000e+00  0.0000000000000000e+00  0.0000000000000000e+00  0.0000000000000000e+00  0.0000000000000000e+00  0.0000000000000000e+00  0.0000000000000000e+00  0.0000000000000000e+00  0.0000000000000000e+00  0.0000000000000000e+00  0.0000000000000000e+00  0.0000000000000000e+00  0.0000000000000000e+00  0.0000000000000000e+00  0.0000000000000000e+00  0.0000000000000000e+00  0.0000000000000000e+00  0.0000000000000000e+00  0.0000000000000000e+00  0.0000000000000000e+00  0.0000000000000000e+00  0.0000000000000000e+00  0.0000000000000000e+00  0.0000000000000000e+00  0.0000000000000000e+00  0.0000000000000000e+00  0.0000000000000000e+00  0.0000000000000000e+00  0.0000000000000000e+00  0.0000000000000000e+00  0.0000000000000000e+00  0.0000000000000000e+00  0.0000000000000000e+00  0.0000000000000000e+00  0.0000000000000000e+00  0.0000000000000000e+00  0.0000000000000000e+00  0.0000000000000000e+00  0.0000000000000000e+00  0.0000000000000000e+00  0.0000000000000000e+00  0.0000000000000000e+00  0.0000000000000000e+00  0.0000000000000000e+00  0.0000000000000000e+00  0.0000000000000000e+00  0.0000000000000000e+00  0.0000000000000000e+00  0.0000000000000000e+00  0.0000000000000000e+00  0.0000000000000000e+00  7.8351244488005359e-02  6.8172694936675701e-02  5.7794116766857258e-02  5.1141803978496214e-02  6.3387723506404092e-02  8.5869140292301804e-02  7.7961589861044803e-02  6.4064774317042258e-02  7.1346056015825554e-02  8.2964361526856212e-02  7.4081379756594568e-02  8.1917666015821386e-02  7.9008622624301292e-02  6.8426316701062126e-02  6.3749946666695548e-02  6.7354667175670513e-02  5.9824731285620304e-02  6.2067842513159013e-02  7.7319091788683333e-02  7.1695640932438923e-02  6.9539227742013612e-02  6.8259101046360626e-02  7.5257551770406453e-02  7.6928122387612999e-02  7.0793722402915649e-02  6.6861816352951908e-02  7.2460750953976610e-02  6.8210918011262042e-02  5.8412791995693929e-02  6.4192415704489997e-02  6.6231531614151365e-02  7.0554042052642096e-02  7.3469337184979777e-02  9.3779385945882338e-02  6.9585627432885711e-02  8.0018567115838241e-02  7.3202937195139539e-02  7.9206896481196012e-02  7.6196227751610002e-02  7.2635951106516591e-02  5.9241943540112293e-02  8.5750338327357623e-02  6.7479981812943873e-02  8.1719897171575934e-02  6.9359462254638043e-02  7.1066454664546891e-02  1.1009582878129556e-01  8.3888699001867961e-02  6.9986080767643621e-02  7.0063395193489725e-02  7.1438878271197298e-02  6.1569022906375365e-02  6.9363139516065514e-02  8.7790868804272684e-02  7.3734233752460757e-02  6.8656143499911892e-02  6.5542715944293631e-02  6.6679919196820800e-02  8.9709341701576198e-02  8.0881498788664713e-02  7.6043509565729958e-02  7.7706882110782305e-02  3.6120953607070763e-27  -1.3176838263961153e-27  -2.6372987111529942e-27  -2.9362109033184280e-27  -1.2753910184453554e-27  -5.3176660840018896e-28  -2.0321713807371740e-28  1.8085996419060914e-27  7.1906829711758116e-27  4.1261250287580632e-27  -7.0167486354239887e-25  -6.6245817112972825e-25  5.4015521173842480e-25  1.1894523749573110e-24  3.7092432544619400e-26  3.0577813628350701e-26  -4.7815777420114326e-26  -3.0032415301313234e-26  -1.1242594292112146e-22  -1.6505400930923601e-22  -4.3275522398238877e-26  -4.9234946997841403e-26  4.7612435975062065e-23  4.7758639088887457e-23  -4.7384860909583164e-27  -3.9751268859360174e-26  -7.5369922773600786e-21  -7.1236227084363608e-21  -4.5758828004247721e-21  -4.8274274712881980e-21  8.3204070314603043e-26  -2.6524884967614851e-26  7.1703378939842161e-30  -8.8439266074542516e-30  -9.0742308423664062e-30  1.6282534374947664e-29  1.9760022854404198e-28  3.9844669540161323e-28  2.8927825273131284e-28  3.1818369207820328e-28  3.5536295357435969e-20  6.3552848906576470e-26  1.2229373318024349e-26  3.8447621288874305e-20  -9.0965150580087982e-30  -9.9263726829402497e-30  -6.2620399866521991e-30  2.3186070174089802e-31  2.4329242499018895e-31  2.3940963322438352e-31  1.4562222709328030e-31  -9.9633768964110846e-30  -6.1356140282970613e-33  -2.3069002905584191e-32  1.1371219135059497e-31  -4.0599788017015058e-33  2.5154700131462575e-32  -6.0625813146589279e-33  1.3756195316702371e-31  -9.9017476902055295e-34  -1.2942975910058335e-33  -4.6819476863255079e-34  -1.9574404162403679e-34  1.4856513751647682e-34  1.3409178686431708e-34  7.7341128164189537e-35  7.3736284714865778e-36  -1.6096915157891208e-33  2.7758150652356830e-20  4.6290470958994852e-26  -1.3627112320109282e-26  1.3821898156943347e-20  1.1675472405194993e-25  -3.4725227084696214e-24  1.3394908225356752e-21  8.8430431550029140e-22  -3.2579685060624861e-24  2.7353096131994304e-26  7.8783428333309055e-26  -5.2875009380544515e-26  -3.8571087377587514e-26  -1.1547888840103864e-23  3.9597122179236854e-22  4.1482012687392511e-22  -1.1338401835536610e-23  -2.5509670853312362e-27  8.8213949799365501e-26  -4.0402555566611757e-27  5.5573443255821464e-27  -6.5555759708836652e-27  8.9115000274411300e-26  1.1270769104163035e-25  -4.0130606476414312e-27  -2.4127258895160345e-27  3.0464789137487928e-26  2.8830733957706335e-26  -1.5704724786466248e-28  -7.7610169820631159e-28  -1.2224723428436028e-27  2.0590620600453602e-28  6.3879426216017335e-28  6.7275895069303879e-29  -1.5133885826115478e-28  -9.2253090663250991e-28  1.2567465889529984e-35  1.8952177454165271e-35  7.5316860904323681e-36  -1.6946032444089802e-36  6.4699462197779992e-36  1.5368869698176045e-36  1.0557457899901697e-35  5.2340172104468166e-37  2.7877468681286662e-20  1.2036254591151262e-25  1.1446626746601521e-25  1.3760368170412081e-20  -1.7863057923573351e-27  4.4955680153100995e-27  4.7956978475406205e-27  -7.1561138679048205e-27  -1.1865850090931818e-26  -6.9855334323539267e-29  -8.1943225238458735e-27  -2.0294423214612227e-26  3.5252784442334448e-30  -1.1192089846996303e-28  -7.3961117144638736e-29  2.8341013101443685e-30  3.4754376342318453e-30  -9.6395380616125527e-29  -1.2779710052691415e-28  1.1569376942908321e-30  -3.7499940418324136e-33  3.6441402816868117e-34  1.2052979420773048e-30  -1.2997730491146734e-32  2.7360654426440233e-31  -1.5412841348256629e-32  -3.6562399765358776e-32  1.2126587666747420e-33  8.1374413057940387e-31  -1.3325624749643236e-32  -1.3655501049624445e-33  2.9198301116644834e-34  -4.4317818262289774e-32  1.2637524558464301e-33  5.2319057660407234e-31  -1.7094968455402041e-32  -3.7014102239680281e-36  -1.7453800190554974e-36  -2.9595980887656823e-36  -3.4662517592879361e-36  3.4840952337964437e-20  -1.2995853849115169e-19  -8.5771484854840621e-20  4.2076950723778582e-19  2.0515162770862000e-19  -1.2097206181958085e-18  -3.1622076877520042e-19  2.8705394208662625e-18  -2.7975272668721155e-19  -4.3099804344577333e-18  4.7474873535985751e-18  -4.6496827763464639e-18  -2.3363936324801134e-17  6.8991206826200120e-17  8.0970997173592030e-17  -3.3342387780300891e-16  -2.1158947099949897e-16  1.1328876298594999e-15  3.8162538018928742e-16  -2.8846907891093467e-15  -2.0353345700096158e-16  -4.7525366232865968e-15  4.9165520287263535e-15  -1.6200971539560717e-15  -1.5863604223562517e-15  7.3808899740412302e-15  -2.5145867246912083e-14  -1.5924052753739189e-14  9.9126087416483262e-14  9.7169950494478905e-15  -1.8521732318349447e-13  5.6053599398919394e-14  -3.7650738885144397e-13  2.9176680389253165e-14  -1.9703582270140892e-13  8.8654757831371482e-13  1.5536383540861968e-13  -2.2293419954928558e-12  7.7802393180519056e-13  -1.2244194445314792e-13  -2.4767513428195059e-12  1.3240152108680655e-11  -1.0637098553464919e-13  -2.1326472603528906e-11  -2.3720650436193624e-11  1.5576241801428575e-11  -4.0435932970940896e-11  -2.6197005028166867e-11  -3.0475889811459520e-13  1.7310817594919311e-11  -4.9867778139913001e-11  -2.3475124794505798e-11  -1.2717078878637323e-12  1.8382143377899187e-11  -2.7278775387328615e-12  -3.2804598656814492e-12  -1.3737044561788728e-11  1.8262691966489036e-11  -1.8308163545413976e-12  -6.7099889551645049e-12  1.4874961204763371e-12  3.6898642990116153e-13  1.1085112099545197e-11  -8.5790470809120822e-12  9.5890390834392484e-13  3.5615961225126157e-12  -1.4405374914435298e-11  2.2790837064228383e-12  -9.7888635519728383e-13  2.8368202727994642e-13  -4.9727538895759709e-12  2.1933221606842556e-12  -8.9154000325240524e-12  1.4121262630776837e-13  1.4211340791904666e-12  2.1923256778010255e-12  -3.5655708101171324e-12  2.5691765347678511e-11  -9.9231811630556380e-12  4.6010835789639992e-11  -1.3699267100847659e-11  5.3262947413539887e-11  3.2758507002006164e-12  -1.4243334173207770e-11  5.2221837740719930e-11  -1.3903439302292184e-11  5.2099245363377861e-11  -1.4170546286367912e-11  5.2926143787543063e-11  -1.3636871803443364e-11  4.6053989571954423e-11  -1.0050885256095845e-11  2.6443259887309368e-11  -3.7217373991075464e-12  1.9324563794938804e-12  3.2816521065077452e-12  -1.3958259377401773e-10  2.5669689941066602e+00  1.9658679753840816e-12  -1.3155871713632319e-11  3.9195789788681901e-12  -1.2890416413846561e-11  2.6340585537922081e+00  2.4092245151418548e-12  -4.4100745061915787e-12  2.5250685513915898e+00  1.7713722775253139e-13  1.8656621200151887e-12  1.7131538737201089e-12  -1.0303731129489218e-11  2.3502532964274682e-12  -4.7667970856953284e-12  -1.9087937638776999e-10  -3.2979799924597264e-13  1.8420328380235213e-13  2.4650784043571728e-12  1.3470965449718910e-12  -1.3791750475857374e-11  3.1901050621476514e-12  -6.8566920809770645e-12  4.4374892381147337e-11  5.1244526020236933e-12  1.7259704800969658e-12  -1.0570368260783312e-11  2.9625637503757821e-11  2.7853818411711501e-11  -3.0701315929792655e-12  -2.6887973800456888e-12  -2.9985321474134187e-11  2.4132524736294131e-11  -4.4953451215750694e-12  2.5561549103164421e-12  -4.7095512751343594e-11  1.4858202985533849e-11  -3.5626179693966265e-12  2.0491677228402800e-12  -3.4326650999700236e-11  1.3014023362034557e-11  -1.6572868690301995e-11  -2.7054833176185575e-11  7.5559151196685289e-13  1.4722865409902465e-11  -2.5692688326401581e-11  -3.4307197069764115e-11  1.0560877211541676e-12  1.9258331040019346e-11  -3.8105468880341849e-11  -4.0370882458036870e-11  3.3822232416030194e-10  -1.0485390385330869e-10  3.4676585314509989e-11  2.7917421849562229e-10  -1.0159311998601513e-11  -1.5824825110195226e-10  7.0789583327159242e-10  -9.7374976516042880e-11  -3.1623790940413888e-10  3.3496788183383564e-10  -1.7630236067829491e-09  3.1758822154312913e-10  5.2656679666949952e-10  -9.3929105578742302e-10  5.5422548229702788e-11  4.6164025267768528e-10  -2.0805744158395514e-09  4.1347097128101630e-10  4.8354020755069728e-11  -7.7768550213644358e-10  6.2573924282080521e-09  -2.5230068943425137e-09  1.1102249312495335e-08  -2.6965845984744101e-09  6.0760669894218290e-09  3.0401748962199029e-10  -1.0068830144052428e-08  5.1679052147355111e-09  -2.7534783056809254e-08  8.9690739010221714e-09  -3.7318211686451106e-08  1.0594684591773299e-08  -4.0077991277703011e-08  1.0586073077380304e-08  -3.7174730952920715e-08  8.7248305783747105e-09  -2.6310881049976186e-08  5.0685662807078002e-09  -1.1416172775760274e-08  -1.8825317127053782e-09  -8.3021165553184694e-10  3.6490837416158553e-10  9.5299136947135904e-11  -6.0274812825878761e-11  2.9172349063177209e-12  6.9893044625798717e-12  -6.6547258169868343e-12  1.9364379339435822e-13  2.8335946968929187e-12  -1.2437677360776934e-11  -4.7751685875321966e-13  4.5644390098887563e-10  3.2651062847992451e-12  -1.0225753390659080e-11  1.8589517056737975e-12  -3.3190775137928286e-12  1.0211860677829347e-13  1.5019759610427258e-12  -5.0334254037988737e-13  1.3507406