<?xml version="1.0"?>
<VTKFile type="UnstructuredGrid"  version="0.1"  >
<UnstructuredGrid>
<Piece  NumberOfPoints="11902" NumberOfCells="23402">
<Points>
<DataArray  type="Float64"  NumberOfComponents="3"  format="ascii">-5 -5 0  5 -5 0  5 5 0  -5 5 0  1.264982214953643 0.00126489560481521 0  -4.9 -5 0  -4.8 -5 0  -4.7 -5 0  -4.6 -5 0  -4.5 -5 0  -4.4 -5 0  -4.3 -5 0  -4.2 -5 0  -4.1 -5 0  -4 -5 0  -3.9 -5 0  -3.8 -5 0  -3.7 -5 0  -3.6 -5 0  -3.5 -5 0  -3.4 -5 0  -3.3 -5 0  -3.2 -5 0  -3.1 -5 0  -3 -5 0  -2.9 -5 0  -2.8 -5 0  -2.7 -5 0  -2.6 -5 0  -2.5 -5 0  -2.4 -5 0  -2.3 -5 0  -2.2 -5 0  -2.1 -5 0  -2 -5 0  -1.9 -5 0  -1.8 -5 0  -1.7 -5 0  -1.6 -5 0  -1.5 -5 0  -1.4 -5 0  -1.3 -5 0  -1.2 -5 0  -1.1 -5 0  -1 -5 0  -0.9000000000000004 -5 0  -0.7999999999999998 -5 0  -0.7000000000000002 -5 0  -0.5999999999999996 -5 0  -0.5 -5 0  -0.4000000000000004 -5 0  -0.2999999999999998 -5 0  -0.2000000000000002 -5 0  -0.09999999999999964 -5 0  0 -5 0  0.09999999999999964 -5 0  0.2000000000000002 -5 0  0.2999999999999998 -5 0  0.4000000000000004 -5 0  0.5 -5 0  0.5999999999999996 -5 0  0.7000000000000002 -5 0  0.7999999999999998 -5 0  0.9000000000000004 -5 0  1 -5 0  1.1 -5 0  1.2 -5 0  1.3 -5 0  1.4 -5 0  1.5 -5 0  1.6 -5 0  1.7 -5 0  1.8 -5 0  1.9 -5 0  2 -5 0  2.1 -5 0  2.2 -5 0  2.3 -5 0  2.4 -5 0  2.5 -5 0  2.6 -5 0  2.7 -5 0  2.8 -5 0  2.9 -5 0  3 -5 0  3.1 -5 0  3.199999999999999 -5 0  3.300000000000001 -5 0  3.4 -5 0  3.5 -5 0  3.6 -5 0  3.699999999999999 -5 0  3.800000000000001 -5 0  3.9 -5 0  4 -5 0  4.1 -5 0  4.199999999999999 -5 0  4.300000000000001 -5 0  4.4 -5 0  4.5 -5 0  4.6 -5 0  4.699999999999999 -5 0  4.800000000000001 -5 0  4.9 -5 0  5 -4.9 0  5 -4.8 0  5 -4.7 0  5 -4.6 0  5 -4.5 0  5 -4.4 0  5 -4.3 0  5 -4.2 0  5 -4.1 0  5 -4 0  5 -3.9 0  5 -3.8 0  5 -3.7 0  5 -3.6 0  5 -3.5 0  5 -3.4 0  5 -3.3 0  5 -3.2 0  5 -3.1 0  5 -3 0  5 -2.9 0  5 -2.8 0  5 -2.7 0  5 -2.6 0  5 -2.5 0  5 -2.4 0  5 -2.3 0  5 -2.2 0  5 -2.1 0  5 -2 0  5 -1.9 0  5 -1.8 0  5 -1.7 0  5 -1.6 0  5 -1.5 0  5 -1.4 0  5 -1.3 0  5 -1.2 0  5 -1.1 0  5 -1 0  5 -0.9000000000000004 0  5 -0.7999999999999998 0  5 -0.7000000000000002 0  5 -0.5999999999999996 0  5 -0.5 0  5 -0.4000000000000004 0  5 -0.2999999999999998 0  5 -0.2000000000000002 0  5 -0.09999999999999964 0  5 0 0  5 0.09999999999999964 0  5 0.2000000000000002 0  5 0.2999999999999998 0  5 0.4000000000000004 0  5 0.5 0  5 0.5999999999999996 0  5 0.7000000000000002 0  5 0.7999999999999998 0  5 0.9000000000000004 0  5 1 0  5 1.1 0  5 1.2 0  5 1.3 0  5 1.4 0  5 1.5 0  5 1.6 0  5 1.7 0  5 1.8 0  5 1.9 0  5 2 0  5 2.1 0  5 2.2 0  5 2.3 0  5 2.4 0  5 2.5 0  5 2.6 0  5 2.7 0  5 2.8 0  5 2.9 0  5 3 0  5 3.1 0  5 3.199999999999999 0  5 3.300000000000001 0  5 3.4 0  5 3.5 0  5 3.6 0  5 3.699999999999999 0  5 3.800000000000001 0  5 3.9 0  5 4 0  5 4.1 0  5 4.199999999999999 0  5 4.300000000000001 0  5 4.4 0  5 4.5 0  5 4.6 0  5 4.699999999999999 0  5 4.800000000000001 0  5 4.9 0  4.9 5 0  4.8 5 0  4.7 5 0  4.6 5 0  4.5 5 0  4.4 5 0  4.3 5 0  4.2 5 0  4.1 5 0  4 5 0  3.9 5 0  3.8 5 0  3.7 5 0  3.6 5 0  3.5 5 0  3.4 5 0  3.3 5 0  3.2 5 0  3.1 5 0  3 5 0  2.9 5 0  2.8 5 0  2.7 5 0  2.6 5 0  2.5 5 0  2.4 5 0  2.3 5 0  2.2 5 0  2.1 5 0  2 5 0  1.9 5 0  1.8 5 0  1.7 5 0  1.6 5 0  1.5 5 0  1.4 5 0  1.3 5 0  1.2 5 0  1.1 5 0  1 5 0  0.9000000000000004 5 0  0.7999999999999998 5 0  0.7000000000000002 5 0  0.5999999999999996 5 0  0.5 5 0  0.4000000000000004 5 0  0.2999999999999998 5 0  0.2000000000000002 5 0  0.09999999999999964 5 0  0 5 0  -0.09999999999999964 5 0  -0.2000000000000002 5 0  -0.2999999999999998 5 0  -0.4000000000000004 5 0  -0.5 5 0  -0.5999999999999996 5 0  -0.7000000000000002 5 0  -0.7999999999999998 5 0  -0.9000000000000004 5 0  -1 5 0  -1.1 5 0  -1.2 5 0  -1.3 5 0  -1.4 5 0  -1.5 5 0  -1.6 5 0  -1.7 5 0  -1.8 5 0  -1.9 5 0  -2 5 0  -2.1 5 0  -2.2 5 0  -2.3 5 0  -2.4 5 0  -2.5 5 0  -2.6 5 0  -2.7 5 0  -2.8 5 0  -2.9 5 0  -3 5 0  -3.1 5 0  -3.199999999999999 5 0  -3.300000000000001 5 0  -3.4 5 0  -3.5 5 0  -3.6 5 0  -3.699999999999999 5 0  -3.800000000000001 5 0  -3.9 5 0  -4 5 0  -4.1 5 0  -4.199999999999999 5 0  -4.300000000000001 5 0  -4.4 5 0  -4.5 5 0  -4.6 5 0  -4.699999999999999 5 0  -4.800000000000001 5 0  -4.9 5 0  -5 4.9 0  -5 4.8 0  -5 4.7 0  -5 4.6 0  -5 4.5 0  -5 4.4 0  -5 4.3 0  -5 4.2 0  -5 4.1 0  -5 4 0  -5 3.9 0  -5 3.8 0  -5 3.7 0  -5 3.6 0  -5 3.5 0  -5 3.4 0  -5 3.3 0  -5 3.2 0  -5 3.1 0  -5 3 0  -5 2.9 0  -5 2.8 0  -5 2.7 0  -5 2.6 0  -5 2.5 0  -5 2.4 0  -5 2.3 0  -5 2.2 0  -5 2.1 0  -5 2 0  -5 1.9 0  -5 1.8 0  -5 1.7 0  -5 1.6 0  -5 1.5 0  -5 1.4 0  -5 1.3 0  -5 1.2 0  -5 1.1 0  -5 1 0  -5 0.9000000000000004 0  -5 0.7999999999999998 0  -5 0.7000000000000002 0  -5 0.5999999999999996 0  -5 0.5 0  -5 0.4000000000000004 0  -5 0.2999999999999998 0  -5 0.2000000000000002 0  -5 0.09999999999999964 0  -5 0 0  -5 -0.09999999999999964 0  -5 -0.2000000000000002 0  -5 -0.2999999999999998 0  -5 -0.4000000000000004 0  -5 -0.5 0  -5 -0.5999999999999996 0  -5 -0.7000000000000002 0  -5 -0.7999999999999998 0  -5 -0.9000000000000004 0  -5 -1 0  -5 -1.1 0  -5 -1.2 0  -5 -1.3 0  -5 -1.4 0  -5 -1.5 0  -5 -1.6 0  -5 -1.7 0  -5 -1.8 0  -5 -1.9 0  -5 -2 0  -5 -2.1 0  -5 -2.2 0  -5 -2.3 0  -5 -2.4 0  -5 -2.5 0  -5 -2.6 0  -5 -2.7 0  -5 -2.8 0  -5 -2.9 0  -5 -3 0  -5 -3.1 0  -5 -3.199999999999999 0  -5 -3.300000000000001 0  -5 -3.4 0  -5 -3.5 0  -5 -3.6 0  -5 -3.699999999999999 0  -5 -3.800000000000001 0  -5 -3.9 0  -5 -4 0  -5 -4.1 0  -5 -4.199999999999999 0  -5 -4.300000000000001 0  -5 -4.4 0  -5 -4.5 0  -5 -4.6 0  -5 -4.699999999999999 0  -5 -4.800000000000001 0  -5 -4.9 0  1.256961294285478 0.09283782477045721 0  1.234779107505269 0.19063940297957 0  1.200919272551697 0.2874621780685861 0  1.158232742887608 0.3759001724062315 0  1.099493723542221 0.46707863453369 0  1.03277154356318 0.5504371639008363 0  0.9541984191181629 0.6309832570692082 0  0.8669035401799844 0.7058929313661576 0  0.775075017978356 0.7710609235857542 0  0.6732906540292046 0.8285254465256469 0  0.559726628068989 0.8807622305498505 0  0.4460334053301217 0.9257998470658453 0  0.3355850284330548 0.9573180055750543 0  0.208811698744986 0.979954335242341 0  0.08738878726095492 0.9983271528173699 0  -0.02622247263412852 1.001908263131153 0  -0.1438974443184316 0.9883003601607442 0  -0.274199118603401 0.9683037149956003 0  -0.39448256890855 0.9440866588643975 0  -0.5037962504310227 0.9090707049069701 0  -0.6132965812067568 0.8626739720857513 0  -0.7152181431846005 0.8074934485687575 0  -0.8096127205750034 0.7431326201907269 0  -0.901296327322644 0.6693415855932905 0  -0.9880178283127433 0.5889369958536771 0  -1.063037333816931 0.5071552720337441 0  -1.12529604191627 0.4229279004932347 0  -1.180776357337413 0.3287893980602339 0  -1.218062260197839 0.2422221537367467 0  -1.242363265549276 0.1486077062475774 0  -1.252549949903552 0.05274035768897122 0  -1.252491299464271 -0.05043009395608311 0  -1.242227280529291 -0.1455650515849159 0  -1.217698156883554 -0.2360763384125876 0  -1.175342863569113 -0.3314916490738934 0  -1.125592919892878 -0.4240299519879727 0  -1.065240924994298 -0.5069645674626432 0  -0.9905969145390261 -0.5879573882711954 0  -0.904476786967322 -0.667319080364948 0  -0.8137537605027688 -0.7385731313520071 0  -0.7185721187607376 -0.7991227305599575 0  -0.6140045292044297 -0.8525422351376756 0  -0.4978337493430994 -0.9023137172625361 0  -0.385516757649623 -0.9422148840176624 0  -0.2708768646218037 -0.9681691055991806 0  -0.1421280532503056 -0.9883728949113452 0  -0.02747124393909327 -1.001143723886577 0  0.08568586036127647 -0.9937414551851633 0  0.2155287007176893 -0.9756996045158068 0  0.3385924996440668 -0.9554358939665776 0  0.450273352877489 -0.9244667750863268 0  0.5625351358848951 -0.8799766405526106 0  0.6746131852676889 -0.8283329798003768 0  0.7748100134362432 -0.7722948253626259 0  0.8659428890052648 -0.7076466985868548 0  0.9516671684485809 -0.6318367120312837 0  1.030403689991329 -0.5489772153493546 0  1.101301633366988 -0.4652292136558394 0  1.159127163947248 -0.3761550166657085 0  1.202758179137636 -0.2855468143913616 0  1.235517776423666 -0.1900385915364665 0  1.257378487780878 -0.09299875838350001 0  -2.448517162233796 4.918035665504264 0  -2.44838704001704 -4.91040663345751 0  4.9103276477246 2.447831853069349 0  4.91846266253653 -2.449299373046212 0  2.446109045176752 -4.895623100240662 0  2.440544227122938 4.899388957093528 0  -4.910354980257156 -2.447858984494164 0  -4.910352294675771 2.447863170983171 0  -1.748469471818975 4.910888160180749 0  -1.74425765132286 -4.914334008721664 0  4.920479922100374 1.744012674191374 0  4.908991886388218 -1.747765810658419 0  -4.909286959511501 -1.747500742336727 0  -4.910110770651301 1.747246594087822 0  1.745738802014986 4.904734885337258 0  1.747146146190616 -4.892862749445416 0  -1.148789766464882 4.908644014865557 0  -1.129650881860695 -4.916574210270007 0  -4.908963642769262 -1.14784079769538 0  -4.90878152982964 1.147641591360863 0  1.143787319981319 -4.912751048410292 0  1.148799260671991 4.90863003086551 0  4.909102747977473 1.146115450842395 0  4.919962044010065 -1.15190800168526 0  -0.5466415344716513 -4.909818233586314 0  -0.5464274143449404 4.918522676735693 0  -4.907663301695712 -0.5486600749503138 0  -4.907687288745035 0.5472184842437978 0  4.906979246991423 -0.5489780236378056 0  4.918670718710579 0.5457413048718428 0  0.5424213533622732 -4.896664703306054 0  0.5511545428204946 4.91533767227946 0  -4.91181402104113 -3.048227995240642 0  4.918390581671443 3.046248353519743 0  4.911321251175021 -3.048202855977319 0  -4.91266243570448 3.045320305471588 0  3.055248319381885 -4.917312133391528 0  -3.048575035833705 -4.911242614667202 0  3.05214360477278 4.913321835125928 0  -3.048021277573344 4.912133260447548 0  -4.906759119789504 -0.04990279892953182 0  0.04511814299835919 -4.911766595389758 0  0.04956499699051271 4.918810729826392 0  4.91383471788836 -0.05128561905054543 0  3.545577936979552 -4.918977602917542 0  -3.548854834853417 4.911873842746
[...]
<PointData  Scalars="f_30"> 
<DataArray  type="Float64"  Name="f_30"  format="ascii">0.0000000000000000e+00  0.0000000000000000e+00  0.0000000000000000e+00  0.0000000000000000e+00  3.4220694197049636e-02  0.0000000000000000e+00  0.0000000000000000e+00  0.0000000000000000e+00  0.0000000000000000e+00  0.0000000000000000e+00  0.0000000000000000e+00  0.0000000000000000e+00  0.0000000000000000e+00  0.0000000000000000e+00  0.0000000000000000e+00  0.0000000000000000e+00  0.0000000000000000e+00  0.0000000000000000e+00  0.0000000000000000e+00  0.0000000000000000e+00  0.0000000000000000e+00  0.0000000000000000e+00  0.0000000000000000e+00  0.0000000000000000e+00  0.0000000000000000e+00  0.0000000000000000e+00  0.0000000000000000e+00  0.0000000000000000e+00  0.0000000000000000e+00  0.0000000000000000e+00  0.0000000000000000e+00  0.0000000000000000e+00  0.0000000000000000e+00  0.0000000000000000e+00  0.0000000000000000e+00  0.0000000000000000e+00  0.0000000000000000e+00  0.0000000000000000e+00  0.0000000000000000e+00  0.0000000000000000e+00  0.0000000000000000e+00  0.0000000000000000e+00  0.0000000000000000e+00  0.0000000000000000e+00  0.0000000000000000e+00  0.0000000000000000e+00  0.0000000000000000e+00  0.0000000000000000e+00  0.0000000000000000e+00  0.0000000000000000e+00  0.0000000000000000e+00  0.0000000000000000e+00  0.0000000000000000e+00  0.0000000000000000e+00  0.0000000000000000e+00  0.0000000000000000e+00  0.0000000000000000e+00  0.0000000000000000e+00  0.0000000000000000e+00  0.0000000000000000e+00  0.0000000000000000e+00  0.0000000000000000e+00  0.0000000000000000e+00  0.0000000000000000e+00  0.0000000000000000e+00  0.0000000000000000e+00  0.0000000000000000e+00  0.0000000000000000e+00  0.0000000000000000e+00  0.0000000000000000e+00  0.0000000000000000e+00  0.0000000000000000e+00  0.0000000000000000e+00  0.0000000000000000e+00  0.0000000000000000e+00  0.0000000000000000e+00  0.0000000000000000e+00  0.0000000000000000e+00  0.0000000000000000e+00  0.0000000000000000e+00  0.0000000000000000e+00  0.0000000000000000e+00  0.0000000000000000e+00  0.0000000000000000e+00  0.0000000000000000e+00  0.0000000000000000e+00  0.0000000000000000e+00  0.0000000000000000e+00  0.0000000000000000e+00  0.0000000000000000e+00  0.0000000000000000e+00  0.0000000000000000e+00  0.0000000000000000e+00  0.0000000000000000e+00  0.0000000000000000e+00  0.0000000000000000e+00  0.0000000000000000e+00  0.0000000000000000e+00  0.0000000000000000e+00  0.0000000000000000e+00  0.0000000000000000e+00  0.0000000000000000e+00  0.0000000000000000e+00  0.0000000000000000e+00  0.0000000000000000e+00  0.0000000000000000e+00  0.0000000000000000e+00  0.0000000000000000e+00  0.0000000000000000e+00  0.0000000000000000e+00  0.0000000000000000e+00  0.0000000000000000e+00  0.0000000000000000e+00  0.0000000000000000e+00  0.0000000000000000e+00  0.0000000000000000e+00  0.0000000000000000e+00  0.0000000000000000e+00  0.0000000000000000e+00  0.0000000000000000e+00  0.0000000000000000e+00  0.0000000000000000e+00  0.0000000000000000e+00  0.0000000000000000e+00  0.0000000000000000e+00  0.0000000000000000e+00  0.0000000000000000e+00  0.0000000000000000e+00  0.0000000000000000e+00  0.0000000000000000e+00  0.0000000000000000e+00  0.0000000000000000e+00  0.0000000000000000e+00  0.0000000000000000e+00  0.0000000000000000e+00  0.0000000000000000e+00  0.0000000000000000e+00  0.0000000000000000e+00  0.0000000000000000e+00  0.0000000000000000e+00  0.0000000000000000e+00  0.0000000000000000e+00  0.0000000000000000e+00  0.0000000000000000e+00  0.0000000000000000e+00  0.0000000000000000e+00  0.0000000000000000e+00  0.0000000000000000e+00  0.0000000000000000e+00  0.0000000000000000e+00  0.0000000000000000e+00  0.0000000000000000e+00  0.0000000000000000e+00  0.0000000000000000e+00  0.0000000000000000e+00  0.0000000000000000e+00  0.0000000000000000e+00  0.0000000000000000e+00  0.0000000000000000e+00  0.0000000000000000e+00  0.0000000000000000e+00  0.0000000000000000e+00  0.0000000000000000e+00  0.0000000000000000e+00  0.0000000000000000e+00  0.0000000000000000e+00  0.0000000000000000e+00  0.0000000000000000e+00  0.0000000000000000e+00  0.0000000000000000e+00  0.0000000000000000e+00  0.0000000000000000e+00  0.0000000000000000e+00  0.0000000000000000e+00  0.0000000000000000e+00  0.0000000000000000e+00  0.0000000000000000e+00  0.0000000000000000e+00  0.0000000000000000e+00  0.0000000000000000e+00  0.0000000000000000e+00  0.0000000000000000e+00  0.0000000000000000e+00  0.0000000000000000e+00  0.0000000000000000e+00  0.0000000000000000e+00  0.0000000000000000e+00  0.0000000000000000e+00  0.0000000000000000e+00  0.0000000000000000e+00  0.0000000000000000e+00  0.0000000000000000e+00  0.0000000000000000e+00  0.0000000000000000e+00  0.0000000000000000e+00  0.0000000000000000e+00  0.0000000000000000e+00  0.0000000000000000e+00  0.0000000000000000e+00  0.0000000000000000e+00  0.0000000000000000e+00  0.0000000000000000e+00  0.0000000000000000e+00  0.0000000000000000e+00  0.0000000000000000e+00  0.0000000000000000e+00  0.0000000000000000e+00  0.0000000000000000e+00  0.0000000000000000e+00  0.0000000000000000e+00  0.0000000000000000e+00  0.0000000000000000e+00  0.0000000000000000e+00  0.0000000000000000e+00  0.0000000000000000e+00  0.0000000000000000e+00  0.0000000000000000e+00  0.0000000000000000e+00  0.0000000000000000e+00  0.0000000000000000e+00  0.0000000000000000e+00  0.0000000000000000e+00  0.0000000000000000e+00  0.0000000000000000e+00  0.0000000000000000e+00  0.0000000000000000e+00  0.0000000000000000e+00  0.0000000000000000e+00  0.0000000000000000e+00  0.0000000000000000e+00  0.0000000000000000e+00  0.0000000000000000e+00  0.0000000000000000e+00  0.0000000000000000e+00  0.0000000000000000e+00  0.0000000000000000e+00  0.0000000000000000e+00  0.0000000000000000e+00  0.0000000000000000e+00  0.0000000000000000e+00  0.0000000000000000e+00  0.0000000000000000e+00  0.0000000000000000e+00  0.0000000000000000e+00  0.0000000000000000e+00  0.0000000000000000e+00  0.0000000000000000e+00  0.0000000000000000e+00  0.0000000000000000e+00  0.0000000000000000e+00  0.0000000000000000e+00  0.0000000000000000e+00  0.0000000000000000e+00  0.0000000000000000e+00  0.0000000000000000e+00  0.0000000000000000e+00  0.0000000000000000e+00  0.0000000000000000e+00  0.0000000000000000e+00  0.0000000000000000e+00  0.0000000000000000e+00  0.0000000000000000e+00  0.0000000000000000e+00  0.0000000000000000e+00  0.0000000000000000e+00  0.0000000000000000e+00  0.0000000000000000e+00  0.0000000000000000e+00  0.0000000000000000e+00  0.0000000000000000e+00  0.0000000000000000e+00  0.0000000000000000e+00  0.0000000000000000e+00  0.0000000000000000e+00  0.0000000000000000e+00  0.0000000000000000e+00  0.0000000000000000e+00  0.0000000000000000e+00  0.0000000000000000e+00  0.0000000000000000e+00  0.0000000000000000e+00  0.0000000000000000e+00  0.0000000000000000e+00  0.0000000000000000e+00  0.0000000000000000e+00  0.0000000000000000e+00  0.0000000000000000e+00  0.0000000000000000e+00  0.0000000000000000e+00  0.0000000000000000e+00  0.0000000000000000e+00  0.0000000000000000e+00  0.0000000000000000e+00  0.0000000000000000e+00  0.0000000000000000e+00  0.0000000000000000e+00  0.0000000000000000e+00  0.0000000000000000e+00  0.0000000000000000e+00  0.0000000000000000e+00  0.0000000000000000e+00  0.0000000000000000e+00  0.0000000000000000e+00  0.0000000000000000e+00  0.0000000000000000e+00  0.0000000000000000e+00  0.0000000000000000e+00  0.0000000000000000e+00  0.0000000000000000e+00  0.0000000000000000e+00  0.0000000000000000e+00  0.0000000000000000e+00  0.0000000000000000e+00  0.0000000000000000e+00  0.0000000000000000e+00  0.0000000000000000e+00  0.0000000000000000e+00  0.0000000000000000e+00  0.0000000000000000e+00  0.0000000000000000e+00  0.0000000000000000e+00  0.0000000000000000e+00  0.0000000000000000e+00  0.0000000000000000e+00  0.0000000000000000e+00  0.0000000000000000e+00  0.0000000000000000e+00  0.0000000000000000e+00  0.0000000000000000e+00  0.0000000000000000e+00  0.0000000000000000e+00  0.0000000000000000e+00  0.0000000000000000e+00  0.0000000000000000e+00  0.0000000000000000e+00  0.0000000000000000e+00  0.0000000000000000e+00  0.0000000000000000e+00  0.0000000000000000e+00  0.0000000000000000e+00  0.0000000000000000e+00  0.0000000000000000e+00  0.0000000000000000e+00  0.0000000000000000e+00  0.0000000000000000e+00  0.0000000000000000e+00  0.0000000000000000e+00  0.0000000000000000e+00  0.0000000000000000e+00  0.0000000000000000e+00  0.0000000000000000e+00  0.0000000000000000e+00  0.0000000000000000e+00  0.0000000000000000e+00  0.0000000000000000e+00  0.0000000000000000e+00  0.0000000000000000e+00  0.0000000000000000e+00  0.0000000000000000e+00  0.0000000000000000e+00  0.0000000000000000e+00  0.0000000000000000e+00  0.0000000000000000e+00  0.0000000000000000e+00  0.0000000000000000e+00  0.0000000000000000e+00  0.0000000000000000e+00  0.0000000000000000e+00  0.0000000000000000e+00  0.0000000000000000e+00  0.0000000000000000e+00  0.0000000000000000e+00  0.0000000000000000e+00  0.0000000000000000e+00  0.0000000000000000e+00  0.0000000000000000e+00  0.0000000000000000e+00  0.0000000000000000e+00  0.0000000000000000e+00  0.0000000000000000e+00  0.0000000000000000e+00  0.0000000000000000e+00  0.0000000000000000e+00  0.0000000000000000e+00  0.0000000000000000e+00  0.0000000000000000e+00  0.0000000000000000e+00  0.0000000000000000e+00  0.0000000000000000e+00  0.0000000000000000e+00  0.0000000000000000e+00  0.0000000000000000e+00  0.0000000000000000e+00  0.0000000000000000e+00  0.0000000000000000e+00  0.0000000000000000e+00  0.0000000000000000e+00  0.0000000000000000e+00  0.0000000000000000e+00  0.0000000000000000e+00  0.0000000000000000e+00  3.3703158758621607e-02  2.6469776718324449e-02  2.0971057645635525e-02  2.1411955593440595e-02  2.4050007216502758e-02  3.0917422006610955e-02  2.9325554533499956e-02  2.2424219422825614e-02  2.8576129366420535e-02  2.9519515586008089e-02  1.8982131334874714e-02  3.4557348754738648e-02  4.2577676118290879e-02  7.3043483215091687e-03  3.3404217185507679e-02  3.8269276799736060e-02  1.0402197251386226e-02  1.7065600587980904e-02  3.5229685141026354e-02  2.9074360783338901e-02  3.2009659183140832e-02  2.9797676043222907e-02  2.6469811493337995e-02  2.5120268073391076e-02  2.0729692332758235e-02  2.3980236631325411e-02  2.4276789578159264e-02  2.4237897779288378e-02  2.8528625694880082e-02  2.6144730076626856e-02  2.1967526999723846e-02  2.3385874592244803e-02  2.2889392897867025e-02  2.9834933271822416e-02  1.8499346513753664e-02  3.1849378191404452e-02  2.7379036526568031e-02  2.3258637583924668e-02  2.8094529986841237e-02  3.0429217928414548e-02  1.9908307699564656e-02  2.3954713788859081e-02  1.9086570908504789e-02  4.3363207751941912e-02  2.4606543791634020e-02  1.3349370560219760e-02  6.5069619854965136e-02  3.0420658560746810e-02  8.0320494007383152e-03  3.6915222858599106e-02  3.3982235897507297e-02  1.7953024007229278e-02  2.9408474510406825e-02  4.0049638726761184e-02  3.2125457112889264e-02  2.2542466251570761e-02  1.6070356338817586e-02  2.9060846478334339e-02  3.8017676497214138e-02  3.1332559930186826e-02  2.5680798538164105e-02  3.1267369850236752e-02  3.6120510090547823e-27  -1.3176454420218122e-27  -2.6372986280260142e-27  -2.9362107429338553e-27  -1.2753407064677408e-27  -5.3166378664358429e-28  -2.0321714359680355e-28  1.8085996379889330e-27  7.1905508617013726e-27  4.1261073499278404e-27  -7.0167484348896474e-25  -6.6245813711808545e-25  5.4015522595097637e-25  1.1894523951582749e-24  3.7093392972435398e-26  3.0578348269140204e-26  -4.7817226263492319e-26  -3.0032591971394525e-26  -1.1242594538557130e-22  -1.6505401277252484e-22  -4.3276086731507459e-26  -4.9235426251485546e-26  4.7612434461092614e-23  4.7758636841465145e-23  -4.7392449740311226e-27  -3.9752098816616349e-26  -7.5369923145450492e-21  -7.1236227084043753e-21  -4.5758828051027348e-21  -4.8274275357942506e-21  8.3206617335313472e-26  -2.6525568777024446e-26  7.1703364749163736e-30  -8.8439256618525590e-30  -9.0742300453780700e-30  1.6282533048399773e-29  1.9760125056541111e-28  3.9844715169198090e-28  2.8927899168921413e-28  3.1818412767270097e-28  3.5536294992358139e-20  6.3555696865878346e-26  1.2229077799555409e-26  3.8447621773621621e-20  -9.0965124908837079e-30  -9.9263713351709915e-30  -6.2620365554968019e-30  2.3186069097422446e-31  2.4329242479194314e-31  2.3940962002666614e-31  1.4562222954420791e-31  -9.9633773856739992e-30  -6.1356137598602796e-33  -2.3069039110659352e-32  1.1371218821357943e-31  -4.0599791855660850e-33  2.5154660841068659e-32  -6.0625809725572324e-33  1.3756193095225243e-31  -9.9017527007592080e-34  -1.2942977116162535e-33  -4.6819489458087668e-34  -1.9574414513929694e-34  1.4856513280865805e-34  1.3409178495475809e-34  7.7341140402579372e-35  7.3736443960650359e-36  -1.6096916295209044e-33  2.7758151077156351e-20  4.6291634669890195e-26  -1.3627646567331737e-26  1.3821898580892901e-20  1.1675529947103882e-25  -3.4725221713711430e-24  1.3394908250379237e-21  8.8430431835313005e-22  -3.2579679219854035e-24  2.7353615182657891e-26  7.8782443167020109e-26  -5.2877623798737563e-26  -3.8571536025122078e-26  -1.1547889014815936e-23  3.9597123372952881e-22  4.1482014416659397e-22  -1.1338401978753754e-23  -2.5504526172783094e-27  8.8214386275097269e-26  -4.0401575761927949e-27  5.5568688564412120e-27  -6.5560193116364380e-27  8.9114994644164949e-26  1.1270768586226566e-25  -4.0131674759646303e-27  -2.4128334938667510e-27  3.0464792210390224e-26  2.8830737194868700e-26  -1.5704723503957612e-28  -7.7610656025875463e-28  -1.2224616463430205e-27  2.0590619438282456e-28  6.3879521975388414e-28  6.7275882344917912e-29  -1.5133884703249880e-28  -9.2252230574024553e-28  1.2567466429383360e-35  1.8952179780543133e-35  7.5316856248142202e-36  -1.6946038166776418e-36  6.4699459097116810e-36  1.5368865628513818e-36  1.0557458788132923e-35  5.2340239182019822e-37  2.7877468743661972e-20  1.2036725481478690e-25  1.1446705480165771e-25  1.3760368722346129e-20  -1.7862919907461995e-27  4.4955673870063134e-27  4.7956970615227835e-27  -7.1561555042044289e-27  -1.1865849334038627e-26  -6.9819890094147952e-29  -8.1942398530093666e-27  -2.0294422565069942e-26  3.5252782622324822e-30  -1.1192110521645933e-28  -7.3961213535811693e-29  2.8341013035697441e-30  3.4754375025479730e-30  -9.6395372201450061e-29  -1.2779724742123368e-28  1.1569377122776529e-30  -3.7499932587399984e-33  3.6441397567928663e-34  1.2052975101592347e-30  -1.2997731498854624e-32  2.7360646929419907e-31  -1.5412842414023147e-32  -3.6562396678862561e-32  1.2126587303700731e-33  8.1374393852656581e-31  -1.3325625976648282e-32  -1.3655503073371867e-33  2.9198297051650748e-34  -4.4317815269879995e-32  1.2637524306858290e-33  5.2319044545977730e-31  -1.7094969340326639e-32  -3.7014104219304083e-36  -1.7453799036167943e-36  -2.9595981744718688e-36  -3.4662520616254219e-36  3.4840952160266639e-20  -1.2995853831073464e-19  -8.5771485374664267e-20  4.2076950825481411e-19  2.0515162988992534e-19  -1.2097206257429706e-18  -3.1622077529681646e-19  2.8705394517940669e-18  -2.7975271383633903e-19  -4.3099805254933348e-18  4.7474873522044283e-18  -4.6496826029908572e-18  -2.3363936455086556e-17  6.8991206835897932e-17  8.0970997924642351e-17  -3.3342387972711082e-16  -2.1158947384810698e-16  1.1328876405904464e-15  3.8162538840038029e-16  -2.8846908291860567e-15  -2.0353347407766375e-16  -4.7525366515905956e-15  4.9165521427969334e-15  -1.6200971395000588e-15  -1.5863606536777037e-15  7.3808900483864307e-15  -2.5145867092191784e-14  -1.5924053208466821e-14  9.9126088596472574e-14  9.7169964576613333e-15  -1.8521732978198407e-13  5.6053597006006173e-14  -3.7650738734943110e-13  2.9176699811159412e-14  -1.9703582403458289e-13  8.8654754997387151e-13  1.5536385884573299e-13  -2.2293420342105146e-12  7.7802385623113171e-13  -1.2244158445714371e-13  -2.4767512523039838e-12  1.3240151128826318e-11  -1.0637075170454136e-13  -2.1326473446890406e-11  -2.3720649766744441e-11  1.5576240508978901e-11  -4.0435928343353011e-11  -2.6197003038865265e-11  -3.0475885814625375e-13  1.7310816286302315e-11  -4.9867775065854802e-11  -2.3475122212321415e-11  -1.2717079633832470e-12  1.8382142113101812e-11  -2.7278772780154557e-12  -3.2804599330351193e-12  -1.3737042109275888e-11  1.8262690753435159e-11  -1.8308161215728605e-12  -6.7099889117987261e-12  1.4874960486990509e-12  3.6898659631673935e-13  1.1085111044315902e-11  -8.5790469152142992e-12  9.5890383812114224e-13  3.5615962017259167e-12  -1.4405375638827594e-11  2.2790839099512157e-12  -9.7888640889758525e-13  2.8368204283602952e-13  -4.9727543295600822e-12  2.1933223827571644e-12  -8.9154008583957776e-12  1.4121263763402817e-13  1.4211340844216822e-12  2.1923267842437982e-12  -3.5655713898471817e-12  2.5691766968972074e-11  -9.9231806172980968e-12  4.6010827117674692e-11  -1.3699262161548772e-11  5.3262920668375174e-11  3.2758500228685862e-12  -1.4243326273437179e-11  5.2221816497019559e-11  -1.3903440227917979e-11  5.2099285592264059e-11  -1.4170569263949587e-11  5.2926267688364560e-11  -1.3636909194385366e-11  4.6054115010045691e-11  -1.0050905053286961e-11  2.6443263825069807e-11  -3.7217196601233815e-12  1.9323425588465958e-12  3.2816608003281197e-12  -1.3958258810910788e-10  2.5188887278436596e+00  1.9658989435812050e-12  -1.3155950805865061e-11  3.9195818559995527e-12  -1.2890353176996008e-11  2.5859148204413107e+00  2.4091933161157467e-12  -4.4099330270539396e-12  2.4775157963595125e+00  1.7710238951049657e-13  1.8657581740836221e-12  1.7126645528975718e-12  -1.0303923415013841e-11  2.3502671437584398e-12  -4.7667465953972489e-12  -1.9087990889760991e-10  -3.2978808905944509e-13  1.8417724827927243e-13  2.4651823692207923e-12  1.3467316867918102e-12  -1.3792066421493423e-11  3.1901616322945414e-12  -6.8567944904121242e-12  4.4375663720184396e-11  5.1245239834621044e-12  1.7259942837332512e-12  -1.0570501570414813e-11  2.9626023902744948e-11  2.7854132328355587e-11  -3.0701527274010357e-12  -2.6889035555210316e-12  -2.9985419435633723e-11  2.4132990174041947e-11  -4.4954016635773932e-12  2.5560594361996010e-12  -4.7095975151486911e-11  1.4858888451362241e-11  -3.5627206930718781e-12  2.0490923855590747e-12  -3.4327578446105642e-11  1.3014909057158388e-11  -1.6575783012612480e-11  -2.7055998789323346e-11  7.5550831223059349e-13  1.4723876029321847e-11  -2.5696356737121875e-11  -3.4308023927842210e-11  1.0559270370019129e-12  1.9259304097326651e-11  -3.8110029363294011e-11  -4.0370772507277272e-11  3.3822925028086287e-10  -1.0485826891897384e-10  3.4694105154901599e-11  2.7917414025725401e-10  -1.0158273171116110e-11  -1.5825045213574840e-10  7.0791116894142743e-10  -9.7379246393037707e-11  -3.1622984516944871e-10  3.3497079434164567e-10  -1.7630532690146129e-09  3.1759835200275146e-10  5.2653921065316768e-10  -9.3929355197489647e-10  5.5420789982403210e-11  4.6164479704265627e-10  -2.0806077418770124e-09  4.1348394452407714e-10  4.8293339654936739e-11  -7.7766704095258389e-10  6.2573180623844694e-09  -2.5229857102672735e-09  1.1102165686877374e-08  -2.6965604341600523e-09  6.0759704501008215e-09  3.0404500207359565e-10  -1.0068934915393533e-08  5.1679322057199840e-09  -2.7534872184238391e-08  8.9690925230665589e-09  -3.7318256917555149e-08  1.0594690184029573e-08  -4.0077991516445713e-08  1.0586069861712015e-08  -3.7174714439558373e-08  8.7248269123801457e-09  -2.6310873665624797e-08  5.0685658503158344e-09  -1.1416175182684139e-08  -1.8825311459920887e-09  -8.3021179462940386e-10  3.6490833129362516e-10  9.5299194187932899e-11  -6.0274820418241600e-11  2.9172232217337015e-12  6.9893083208512034e-12  -6.6547245730131368e-12  1.9364292854187040e-13  2.8335947928872292e-12  -1.2437678643202875e-11  -4.7751674960047622e-13  4.5643854270392732e-10  3.2651065843268484e-12  -1.0225753857556139e-11  1.8589516865608293e-12  -3.3190771230052063e-12  1.0211851489804618e-13  1.5019760989354664e-12  -5.0334253644808951e-13  1.3507405