<?xml version="1.0"?>
<VTKFile type="UnstructuredGrid"  version="0.1"  >
<UnstructuredGrid>
<Piece  NumberOfPoints="11902" NumberOfCells="23402">
<Points>
<DataArray  type="Float64"  NumberOfComponents="3"  format="ascii">-5 -5 0  5 -5 0  5 5 0  -5 5 0  1.20699349132678 0.001319097839228045 0  -4.9 -5 0  -4.8 -5 0  -4.7 -5 0  -4.6 -5 0  -4.5 -5 0  -4.4 -5 0  -4.3 -5 0  -4.2 -5 0  -4.1 -5 0  -4 -5 0  -3.9 -5 0  -3.8 -5 0  -3.7 -5 0  -3.6 -5 0  -3.5 -5 0  -3.4 -5 0  -3.3 -5 0  -3.2 -5 0  -3.1 -5 0  -3 -5 0  -2.9 -5 0  -2.8 -5 0  -2.7 -5 0  -2.6 -5 0  -2.5 -5 0  -2.4 -5 0  -2.3 -5 0  -2.2 -5 0  -2.1 -5 0  -2 -5 0  -1.9 -5 0  -1.8 -5 0  -1.7 -5 0  -1.6 -5 0  -1.5 -5 0  -1.4 -5 0  -1.3 -5 0  -1.2 -5 0  -1.1 -5 0  -1 -5 0  -0.9000000000000004 -5 0  -0.7999999999999998 -5 0  -0.7000000000000002 -5 0  -0.5999999999999996 -5 0  -0.5 -5 0  -0.4000000000000004 -5 0  -0.2999999999999998 -5 0  -0.2000000000000002 -5 0  -0.09999999999999964 -5 0  0 -5 0  0.09999999999999964 -5 0  0.2000000000000002 -5 0  0.2999999999999998 -5 0  0.4000000000000004 -5 0  0.5 -5 0  0.5999999999999996 -5 0  0.7000000000000002 -5 0  0.7999999999999998 -5 0  0.9000000000000004 -5 0  1 -5 0  1.1 -5 0  1.2 -5 0  1.3 -5 0  1.4 -5 0  1.5 -5 0  1.6 -5 0  1.7 -5 0  1.8 -5 0  1.9 -5 0  2 -5 0  2.1 -5 0  2.2 -5 0  2.3 -5 0  2.4 -5 0  2.5 -5 0  2.6 -5 0  2.7 -5 0  2.8 -5 0  2.9 -5 0  3 -5 0  3.1 -5 0  3.199999999999999 -5 0  3.300000000000001 -5 0  3.4 -5 0  3.5 -5 0  3.6 -5 0  3.699999999999999 -5 0  3.800000000000001 -5 0  3.9 -5 0  4 -5 0  4.1 -5 0  4.199999999999999 -5 0  4.300000000000001 -5 0  4.4 -5 0  4.5 -5 0  4.6 -5 0  4.699999999999999 -5 0  4.800000000000001 -5 0  4.9 -5 0  5 -4.9 0  5 -4.8 0  5 -4.7 0  5 -4.6 0  5 -4.5 0  5 -4.4 0  5 -4.3 0  5 -4.2 0  5 -4.1 0  5 -4 0  5 -3.9 0  5 -3.8 0  5 -3.7 0  5 -3.6 0  5 -3.5 0  5 -3.4 0  5 -3.3 0  5 -3.2 0  5 -3.1 0  5 -3 0  5 -2.9 0  5 -2.8 0  5 -2.7 0  5 -2.6 0  5 -2.5 0  5 -2.4 0  5 -2.3 0  5 -2.2 0  5 -2.1 0  5 -2 0  5 -1.9 0  5 -1.8 0  5 -1.7 0  5 -1.6 0  5 -1.5 0  5 -1.4 0  5 -1.3 0  5 -1.2 0  5 -1.1 0  5 -1 0  5 -0.9000000000000004 0  5 -0.7999999999999998 0  5 -0.7000000000000002 0  5 -0.5999999999999996 0  5 -0.5 0  5 -0.4000000000000004 0  5 -0.2999999999999998 0  5 -0.2000000000000002 0  5 -0.09999999999999964 0  5 0 0  5 0.09999999999999964 0  5 0.2000000000000002 0  5 0.2999999999999998 0  5 0.4000000000000004 0  5 0.5 0  5 0.5999999999999996 0  5 0.7000000000000002 0  5 0.7999999999999998 0  5 0.9000000000000004 0  5 1 0  5 1.1 0  5 1.2 0  5 1.3 0  5 1.4 0  5 1.5 0  5 1.6 0  5 1.7 0  5 1.8 0  5 1.9 0  5 2 0  5 2.1 0  5 2.2 0  5 2.3 0  5 2.4 0  5 2.5 0  5 2.6 0  5 2.7 0  5 2.8 0  5 2.9 0  5 3 0  5 3.1 0  5 3.199999999999999 0  5 3.300000000000001 0  5 3.4 0  5 3.5 0  5 3.6 0  5 3.699999999999999 0  5 3.800000000000001 0  5 3.9 0  5 4 0  5 4.1 0  5 4.199999999999999 0  5 4.300000000000001 0  5 4.4 0  5 4.5 0  5 4.6 0  5 4.699999999999999 0  5 4.800000000000001 0  5 4.9 0  4.9 5 0  4.8 5 0  4.7 5 0  4.6 5 0  4.5 5 0  4.4 5 0  4.3 5 0  4.2 5 0  4.1 5 0  4 5 0  3.9 5 0  3.8 5 0  3.7 5 0  3.6 5 0  3.5 5 0  3.4 5 0  3.3 5 0  3.2 5 0  3.1 5 0  3 5 0  2.9 5 0  2.8 5 0  2.7 5 0  2.6 5 0  2.5 5 0  2.4 5 0  2.3 5 0  2.2 5 0  2.1 5 0  2 5 0  1.9 5 0  1.8 5 0  1.7 5 0  1.6 5 0  1.5 5 0  1.4 5 0  1.3 5 0  1.2 5 0  1.1 5 0  1 5 0  0.9000000000000004 5 0  0.7999999999999998 5 0  0.7000000000000002 5 0  0.5999999999999996 5 0  0.5 5 0  0.4000000000000004 5 0  0.2999999999999998 5 0  0.2000000000000002 5 0  0.09999999999999964 5 0  0 5 0  -0.09999999999999964 5 0  -0.2000000000000002 5 0  -0.2999999999999998 5 0  -0.4000000000000004 5 0  -0.5 5 0  -0.5999999999999996 5 0  -0.7000000000000002 5 0  -0.7999999999999998 5 0  -0.9000000000000004 5 0  -1 5 0  -1.1 5 0  -1.2 5 0  -1.3 5 0  -1.4 5 0  -1.5 5 0  -1.6 5 0  -1.7 5 0  -1.8 5 0  -1.9 5 0  -2 5 0  -2.1 5 0  -2.2 5 0  -2.3 5 0  -2.4 5 0  -2.5 5 0  -2.6 5 0  -2.7 5 0  -2.8 5 0  -2.9 5 0  -3 5 0  -3.1 5 0  -3.199999999999999 5 0  -3.300000000000001 5 0  -3.4 5 0  -3.5 5 0  -3.6 5 0  -3.699999999999999 5 0  -3.800000000000001 5 0  -3.9 5 0  -4 5 0  -4.1 5 0  -4.199999999999999 5 0  -4.300000000000001 5 0  -4.4 5 0  -4.5 5 0  -4.6 5 0  -4.699999999999999 5 0  -4.800000000000001 5 0  -4.9 5 0  -5 4.9 0  -5 4.8 0  -5 4.7 0  -5 4.6 0  -5 4.5 0  -5 4.4 0  -5 4.3 0  -5 4.2 0  -5 4.1 0  -5 4 0  -5 3.9 0  -5 3.8 0  -5 3.7 0  -5 3.6 0  -5 3.5 0  -5 3.4 0  -5 3.3 0  -5 3.2 0  -5 3.1 0  -5 3 0  -5 2.9 0  -5 2.8 0  -5 2.7 0  -5 2.6 0  -5 2.5 0  -5 2.4 0  -5 2.3 0  -5 2.2 0  -5 2.1 0  -5 2 0  -5 1.9 0  -5 1.8 0  -5 1.7 0  -5 1.6 0  -5 1.5 0  -5 1.4 0  -5 1.3 0  -5 1.2 0  -5 1.1 0  -5 1 0  -5 0.9000000000000004 0  -5 0.7999999999999998 0  -5 0.7000000000000002 0  -5 0.5999999999999996 0  -5 0.5 0  -5 0.4000000000000004 0  -5 0.2999999999999998 0  -5 0.2000000000000002 0  -5 0.09999999999999964 0  -5 0 0  -5 -0.09999999999999964 0  -5 -0.2000000000000002 0  -5 -0.2999999999999998 0  -5 -0.4000000000000004 0  -5 -0.5 0  -5 -0.5999999999999996 0  -5 -0.7000000000000002 0  -5 -0.7999999999999998 0  -5 -0.9000000000000004 0  -5 -1 0  -5 -1.1 0  -5 -1.2 0  -5 -1.3 0  -5 -1.4 0  -5 -1.5 0  -5 -1.6 0  -5 -1.7 0  -5 -1.8 0  -5 -1.9 0  -5 -2 0  -5 -2.1 0  -5 -2.2 0  -5 -2.3 0  -5 -2.4 0  -5 -2.5 0  -5 -2.6 0  -5 -2.7 0  -5 -2.8 0  -5 -2.9 0  -5 -3 0  -5 -3.1 0  -5 -3.199999999999999 0  -5 -3.300000000000001 0  -5 -3.4 0  -5 -3.5 0  -5 -3.6 0  -5 -3.699999999999999 0  -5 -3.800000000000001 0  -5 -3.9 0  -5 -4 0  -5 -4.1 0  -5 -4.199999999999999 0  -5 -4.300000000000001 0  -5 -4.4 0  -5 -4.5 0  -5 -4.6 0  -5 -4.699999999999999 0  -5 -4.800000000000001 0  -5 -4.9 0  1.200899488425927 0.09879277996926714 0  1.181906405343538 0.1967659593547592 0  1.150241602491577 0.2938999388960415 0  1.109342015118631 0.3851280628867364 0  1.056052721902494 0.4757433950905594 0  0.9934393177659452 0.5607785888446348 0  0.9197922728822711 0.6405507247150189 0  0.8369326954300866 0.7134310531840714 0  0.7470973476661468 0.7790232099814925 0  0.6488330843877151 0.8374419752874228 0  0.5434064120606956 0.8884972044143884 0  0.434056518004132 0.9305509827453092 0  0.3224641275417485 0.9633998774174932 0  0.2048811836252314 0.9857550049069586 0  0.08879176439363884 1.000807997137349 0  -0.02772158379847277 1.003619442935001 0  -0.1444972626200091 0.9934657171837886 0  -0.2632894116398555 0.9756699425252922 0  -0.3784449459122532 0.9496665879996709 0  -0.4881992306816834 0.9131886981958396 0  -0.5934001184348396 0.8675040455468933 0  -0.6934629276160862 0.8128006935352557 0  -0.7862793685311394 0.7497083941739946 0  -0.8728243410683143 0.6789420220493356 0  -0.9522057987463983 0.6007444002854552 0  -1.021076466513022 0.518483272383124 0  -1.080282792886433 0.4317006442095276 0  -1.128198006608023 0.3397283665288186 0  -1.164079028739084 0.245980374755613 0  -1.188117082013934 0.1497030913772071 0  -1.200271909701804 0.05075161888966177 0  -1.200258974448621 -0.04891225955549924 0  -1.188028398010198 -0.1474995258250884 0  -1.164757556282787 -0.2437532561135484 0  -1.127544387822197 -0.3394186136174214 0  -1.080622812151302 -0.4305599217553908 0  -1.022122434684088 -0.5176365846703269 0  -0.9538393498202058 -0.5994269697616126 0  -0.8748414131910806 -0.6764133585534179 0  -0.7879682549096093 -0.7460748229975174 0  -0.6937498350761137 -0.8072916587119144 0  -0.5935237389270903 -0.8615149369106365 0  -0.485260891825775 -0.9086395144757842 0  -0.3748176331813978 -0.9468017666888332 0  -0.2603036295746846 -0.9744177244756852 0  -0.1431054558777346 -0.9926171878959404 0  -0.02744505476998098 -1.002713235178099 0  0.08938658868616081 -0.9980020486971808 0  0.2080255095070333 -0.9833537460523624 0  0.324216141063474 -0.9617282607166774 0  0.4375934004360427 -0.9291289296911924 0  0.5451846003039251 -0.8875503250525602 0  0.6495876135712423 -0.837112602119728 0  0.7472485019949734 -0.7800563383815126 0  0.8369849001272005 -0.7141924968872524 0  0.9192711424972037 -0.6400248070355187 0  0.9918895694940524 -0.5601339142113331 0  1.055881743669449 -0.4751424330789585 0  1.110354645683762 -0.3851845262535661 0  1.151714284433321 -0.2923449562935868 0  1.182204491760498 -0.1959109150684233 0  1.20093330625364 -0.09832417839695226 0  -2.448750001485847 4.918460173278985 0  -2.44864105681628 -4.910869962518241 0  4.910802802699221 2.448162279535032 0  4.918893907994652 -2.449599529419972 0  2.446404359909817 -4.896167019405004 0  2.440830038642522 4.899915277970534 0  -4.910826884054167 -2.44818583251572 0  -4.910824961221868 2.448189677976719 0  -1.748711074566699 4.911502195876994 0  -1.744489355621099 -4.914923910956991 0  4.921080381468956 1.744311957209165 0  4.909677563583982 -1.748108407442769 0  -4.909965901250576 -1.74783867735094 0  -4.910784413015775 1.747580686047544 0  1.745996107628317 4.905394940616374 0  1.747434164337841 -4.89360365378116 0  -1.148982510772672 4.909390120693506 0  -1.129824771778989 -4.917256810971509 0  -4.909813920934702 -1.148119039324069 0  -4.909634230710616 1.147919215771746 0  1.14396813843699 -4.91346521371615 0  1.148990766716492 4.909378493173883 0  4.909958965993087 1.146395999783905 0  4.920714282664554 -1.152155644173608 0  -0.5467424780001962 -4.910630925670421 0  -0.5465179593821816 4.919258683011304 0  -4.908651489706617 -0.5488148612946497 0  -4.908675803136311 0.5473714134023321 0  4.907982808520823 -0.54913528765093 0  4.919548595721026 0.5458781329219512 0  0.5425320310404632 -4.897598120630757 0  0.5512479433523508 4.916103181199832 0  -4.912132319264472 -3.048498018730151 0  4.918687268387242 3.046500976264237 0  4.911642761783713 -3.048476979499453 0  -4.912978892484183 3.045587932032221 0  3.055455443302284 -4.917622111209782 0  -3.048797904115411 -4.911574258155053 0  3.052361579635052 4.913647740412879 0  -3.048242441662704 4.912462068500461 0  -4.907798890914173 -0.04991831174500105 0  0.04512444815732327 -4.912586005935363 0  0.04957261536927612 4.919566413013969 0  4.914803380139634 -0.05129973373261058 0  3.545741626082596 -4.919194049452366 0  -3.54903276582
[...]
<PointData  Scalars="f_30"> 
<DataArray  type="Float64"  Name="f_30"  format="ascii">0.0000000000000000e+00  0.0000000000000000e+00  0.0000000000000000e+00  0.0000000000000000e+00  2.4389587461327733e-01  0.0000000000000000e+00  0.0000000000000000e+00  0.0000000000000000e+00  0.0000000000000000e+00  0.0000000000000000e+00  0.0000000000000000e+00  0.0000000000000000e+00  0.0000000000000000e+00  0.0000000000000000e+00  0.0000000000000000e+00  0.0000000000000000e+00  0.0000000000000000e+00  0.0000000000000000e+00  0.0000000000000000e+00  0.0000000000000000e+00  0.0000000000000000e+00  0.0000000000000000e+00  0.0000000000000000e+00  0.0000000000000000e+00  0.0000000000000000e+00  0.0000000000000000e+00  0.0000000000000000e+00  0.0000000000000000e+00  0.0000000000000000e+00  0.0000000000000000e+00  0.0000000000000000e+00  0.0000000000000000e+00  0.0000000000000000e+00  0.0000000000000000e+00  0.0000000000000000e+00  0.0000000000000000e+00  0.0000000000000000e+00  0.0000000000000000e+00  0.0000000000000000e+00  0.0000000000000000e+00  0.0000000000000000e+00  0.0000000000000000e+00  0.0000000000000000e+00  0.0000000000000000e+00  0.0000000000000000e+00  0.0000000000000000e+00  0.0000000000000000e+00  0.0000000000000000e+00  0.0000000000000000e+00  0.0000000000000000e+00  0.0000000000000000e+00  0.0000000000000000e+00  0.0000000000000000e+00  0.0000000000000000e+00  0.0000000000000000e+00  0.0000000000000000e+00  0.0000000000000000e+00  0.0000000000000000e+00  0.0000000000000000e+00  0.0000000000000000e+00  0.0000000000000000e+00  0.0000000000000000e+00  0.0000000000000000e+00  0.0000000000000000e+00  0.0000000000000000e+00  0.0000000000000000e+00  0.0000000000000000e+00  0.0000000000000000e+00  0.0000000000000000e+00  0.0000000000000000e+00  0.0000000000000000e+00  0.0000000000000000e+00  0.0000000000000000e+00  0.0000000000000000e+00  0.0000000000000000e+00  0.0000000000000000e+00  0.0000000000000000e+00  0.0000000000000000e+00  0.0000000000000000e+00  0.0000000000000000e+00  0.0000000000000000e+00  0.0000000000000000e+00  0.0000000000000000e+00  0.0000000000000000e+00  0.0000000000000000e+00  0.0000000000000000e+00  0.0000000000000000e+00  0.0000000000000000e+00  0.0000000000000000e+00  0.0000000000000000e+00  0.0000000000000000e+00  0.0000000000000000e+00  0.0000000000000000e+00  0.0000000000000000e+00  0.0000000000000000e+00  0.0000000000000000e+00  0.0000000000000000e+00  0.0000000000000000e+00  0.0000000000000000e+00  0.0000000000000000e+00  0.0000000000000000e+00  0.0000000000000000e+00  0.0000000000000000e+00  0.0000000000000000e+00  0.0000000000000000e+00  0.0000000000000000e+00  0.0000000000000000e+00  0.0000000000000000e+00  0.0000000000000000e+00  0.0000000000000000e+00  0.0000000000000000e+00  0.0000000000000000e+00  0.0000000000000000e+00  0.0000000000000000e+00  0.0000000000000000e+00  0.0000000000000000e+00  0.0000000000000000e+00  0.0000000000000000e+00  0.0000000000000000e+00  0.0000000000000000e+00  0.0000000000000000e+00  0.0000000000000000e+00  0.0000000000000000e+00  0.0000000000000000e+00  0.0000000000000000e+00  0.0000000000000000e+00  0.0000000000000000e+00  0.0000000000000000e+00  0.0000000000000000e+00  0.0000000000000000e+00  0.0000000000000000e+00  0.0000000000000000e+00  0.0000000000000000e+00  0.0000000000000000e+00  0.0000000000000000e+00  0.0000000000000000e+00  0.0000000000000000e+00  0.0000000000000000e+00  0.0000000000000000e+00  0.0000000000000000e+00  0.0000000000000000e+00  0.0000000000000000e+00  0.0000000000000000e+00  0.0000000000000000e+00  0.0000000000000000e+00  0.0000000000000000e+00  0.0000000000000000e+00  0.0000000000000000e+00  0.0000000000000000e+00  0.0000000000000000e+00  0.0000000000000000e+00  0.0000000000000000e+00  0.0000000000000000e+00  0.0000000000000000e+00  0.0000000000000000e+00  0.0000000000000000e+00  0.0000000000000000e+00  0.0000000000000000e+00  0.0000000000000000e+00  0.0000000000000000e+00  0.0000000000000000e+00  0.0000000000000000e+00  0.0000000000000000e+00  0.0000000000000000e+00  0.0000000000000000e+00  0.0000000000000000e+00  0.0000000000000000e+00  0.0000000000000000e+00  0.0000000000000000e+00  0.0000000000000000e+00  0.0000000000000000e+00  0.0000000000000000e+00  0.0000000000000000e+00  0.0000000000000000e+00  0.0000000000000000e+00  0.0000000000000000e+00  0.0000000000000000e+00  0.0000000000000000e+00  0.0000000000000000e+00  0.0000000000000000e+00  0.0000000000000000e+00  0.0000000000000000e+00  0.0000000000000000e+00  0.0000000000000000e+00  0.0000000000000000e+00  0.0000000000000000e+00  0.0000000000000000e+00  0.0000000000000000e+00  0.0000000000000000e+00  0.0000000000000000e+00  0.0000000000000000e+00  0.0000000000000000e+00  0.0000000000000000e+00  0.0000000000000000e+00  0.0000000000000000e+00  0.0000000000000000e+00  0.0000000000000000e+00  0.0000000000000000e+00  0.0000000000000000e+00  0.0000000000000000e+00  0.0000000000000000e+00  0.0000000000000000e+00  0.0000000000000000e+00  0.0000000000000000e+00  0.0000000000000000e+00  0.0000000000000000e+00  0.0000000000000000e+00  0.0000000000000000e+00  0.0000000000000000e+00  0.0000000000000000e+00  0.0000000000000000e+00  0.0000000000000000e+00  0.0000000000000000e+00  0.0000000000000000e+00  0.0000000000000000e+00  0.0000000000000000e+00  0.0000000000000000e+00  0.0000000000000000e+00  0.0000000000000000e+00  0.0000000000000000e+00  0.0000000000000000e+00  0.0000000000000000e+00  0.0000000000000000e+00  0.0000000000000000e+00  0.0000000000000000e+00  0.0000000000000000e+00  0.0000000000000000e+00  0.0000000000000000e+00  0.0000000000000000e+00  0.0000000000000000e+00  0.0000000000000000e+00  0.0000000000000000e+00  0.0000000000000000e+00  0.0000000000000000e+00  0.0000000000000000e+00  0.0000000000000000e+00  0.0000000000000000e+00  0.0000000000000000e+00  0.0000000000000000e+00  0.0000000000000000e+00  0.0000000000000000e+00  0.0000000000000000e+00  0.0000000000000000e+00  0.0000000000000000e+00  0.0000000000000000e+00  0.0000000000000000e+00  0.0000000000000000e+00  0.0000000000000000e+00  0.0000000000000000e+00  0.0000000000000000e+00  0.0000000000000000e+00  0.0000000000000000e+00  0.0000000000000000e+00  0.0000000000000000e+00  0.0000000000000000e+00  0.0000000000000000e+00  0.0000000000000000e+00  0.0000000000000000e+00  0.0000000000000000e+00  0.0000000000000000e+00  0.0000000000000000e+00  0.0000000000000000e+00  0.0000000000000000e+00  0.0000000000000000e+00  0.0000000000000000e+00  0.0000000000000000e+00  0.0000000000000000e+00  0.0000000000000000e+00  0.0000000000000000e+00  0.0000000000000000e+00  0.0000000000000000e+00  0.0000000000000000e+00  0.0000000000000000e+00  0.0000000000000000e+00  0.0000000000000000e+00  0.0000000000000000e+00  0.0000000000000000e+00  0.0000000000000000e+00  0.0000000000000000e+00  0.0000000000000000e+00  0.0000000000000000e+00  0.0000000000000000e+00  0.0000000000000000e+00  0.0000000000000000e+00  0.0000000000000000e+00  0.0000000000000000e+00  0.0000000000000000e+00  0.0000000000000000e+00  0.0000000000000000e+00  0.0000000000000000e+00  0.0000000000000000e+00  0.0000000000000000e+00  0.0000000000000000e+00  0.0000000000000000e+00  0.0000000000000000e+00  0.0000000000000000e+00  0.0000000000000000e+00  0.0000000000000000e+00  0.0000000000000000e+00  0.0000000000000000e+00  0.0000000000000000e+00  0.0000000000000000e+00  0.0000000000000000e+00  0.0000000000000000e+00  0.0000000000000000e+00  0.0000000000000000e+00  0.0000000000000000e+00  0.0000000000000000e+00  0.0000000000000000e+00  0.0000000000000000e+00  0.0000000000000000e+00  0.0000000000000000e+00  0.0000000000000000e+00  0.0000000000000000e+00  0.0000000000000000e+00  0.0000000000000000e+00  0.0000000000000000e+00  0.0000000000000000e+00  0.0000000000000000e+00  0.0000000000000000e+00  0.0000000000000000e+00  0.0000000000000000e+00  0.0000000000000000e+00  0.0000000000000000e+00  0.0000000000000000e+00  0.0000000000000000e+00  0.0000000000000000e+00  0.0000000000000000e+00  0.0000000000000000e+00  0.0000000000000000e+00  0.0000000000000000e+00  0.0000000000000000e+00  0.0000000000000000e+00  0.0000000000000000e+00  0.0000000000000000e+00  0.0000000000000000e+00  0.0000000000000000e+00  0.0000000000000000e+00  0.0000000000000000e+00  0.0000000000000000e+00  0.0000000000000000e+00  0.0000000000000000e+00  0.0000000000000000e+00  0.0000000000000000e+00  0.0000000000000000e+00  0.0000000000000000e+00  0.0000000000000000e+00  0.0000000000000000e+00  0.0000000000000000e+00  0.0000000000000000e+00  0.0000000000000000e+00  0.0000000000000000e+00  0.0000000000000000e+00  0.0000000000000000e+00  0.0000000000000000e+00  0.0000000000000000e+00  0.0000000000000000e+00  0.0000000000000000e+00  0.0000000000000000e+00  0.0000000000000000e+00  0.0000000000000000e+00  0.0000000000000000e+00  0.0000000000000000e+00  0.0000000000000000e+00  0.0000000000000000e+00  0.0000000000000000e+00  0.0000000000000000e+00  0.0000000000000000e+00  0.0000000000000000e+00  0.0000000000000000e+00  0.0000000000000000e+00  0.0000000000000000e+00  0.0000000000000000e+00  0.0000000000000000e+00  0.0000000000000000e+00  0.0000000000000000e+00  0.0000000000000000e+00  0.0000000000000000e+00  0.0000000000000000e+00  0.0000000000000000e+00  0.0000000000000000e+00  0.0000000000000000e+00  0.0000000000000000e+00  0.0000000000000000e+00  0.0000000000000000e+00  0.0000000000000000e+00  0.0000000000000000e+00  0.0000000000000000e+00  0.0000000000000000e+00  0.0000000000000000e+00  0.0000000000000000e+00  0.0000000000000000e+00  0.0000000000000000e+00  0.0000000000000000e+00  0.0000000000000000e+00  0.0000000000000000e+00  0.0000000000000000e+00  0.0000000000000000e+00  0.0000000000000000e+00  0.0000000000000000e+00  0.0000000000000000e+00  2.5243731852580481e-01  2.3769713465013673e-01  1.8616356297930040e-01  1.8615162041388217e-01  2.1744519627686484e-01  2.8043495230387211e-01  2.6698993177667113e-01  2.0608548113873301e-01  2.2952211304271641e-01  2.8344244870382218e-01  2.5823290427438517e-01  2.4831738556681973e-01  2.9447853241427802e-01  2.2427959648064463e-01  2.3131611030281363e-01  2.2751253382929221e-01  1.9376887479858804e-01  2.3526107771240021e-01  2.5497708002203112e-01  2.2479017794472003e-01  2.3811083073003098e-01  2.2900497940793380e-01  2.4068272113715880e-01  2.6406773713727538e-01  2.3918819607421338e-01  2.1259289036036039e-01  2.4729135236620631e-01  2.3163584108358948e-01  1.9745856468559086e-01  2.1441861252799468e-01  2.3140000820936796e-01  2.3755777750809756e-01  2.2487605389355142e-01  3.1083653327629662e-01  2.2630741159583828e-01  2.5508418061129806e-01  2.3163091250300150e-01  2.6585486656235363e-01  2.6200256414364675e-01  2.2763342752022420e-01  1.7769834673143681e-01  2.8199073625813664e-01  2.1974209245595858e-01  2.6228298478139117e-01  2.4698435461053264e-01  2.2987248335154847e-01  3.3451888648913941e-01  2.8533980878003123e-01  2.3728842104256792e-01  2.5149799030533387e-01  2.2997580247466290e-01  2.0726818784033746e-01  2.2983974397990287e-01  2.7337741118448039e-01  2.4540428031556427e-01  2.3584164967199805e-01  2.1055728182958272e-01  2.3584554304839314e-01  3.0587859625478336e-01  2.5561743782415475e-01  2.4779515528459145e-01  2.6202533868947642e-01  3.6122502453118697e-27  -1.3177868703463905e-27  -2.6372989279659757e-27  -2.9362112569245390e-27  -1.2755797381678513e-27  -5.3200824545832758e-28  -2.0321713281680639e-28  1.8085996805556059e-27  7.1909213537283874e-27  4.1261982231028683e-27  -7.0167491602580866e-25  -6.6245824005790801e-25  5.4015517538382992e-25  1.1894523306197842e-24  3.7090152498687273e-26  3.0576579753129315e-26  -4.7812105061838932e-26  -3.0032601617031768e-26  -1.1242593764163205e-22  -1.6505400181893877e-22  -4.3274259553575208e-26  -4.9233700007035001e-26  4.7612439801870317e-23  4.7758643596722200e-23  -4.7355768417825798e-27  -3.9749366540493519e-26  -7.5369922342449861e-21  -7.1236227347128342e-21  -4.5758827647287499e-21  -4.8274273081190625e-21  8.3198364167645582e-26  -2.6523830304754528e-26  7.1703413486893421e-30  -8.8439288746532294e-30  -9.0742326041734400e-30  1.6282537759091389e-29  1.9759697132088148e-28  3.9844452110625761e-28  2.8927656573823472e-28  3.1818148663458486e-28  3.5536296100896296e-20  6.3544761953953968e-26  1.2229752581348941e-26  3.8447620044007963e-20  -9.0965221765252182e-30  -9.9263767592608391e-30  -6.2620495717989910e-30  2.3186073303777188e-31  2.4329242246235565e-31  2.3940966699113911e-31  1.4562221385107745e-31  -9.9633746103128253e-30  -6.1356146207386904e-33  -2.3068886027649455e-32  1.1371222192787577e-31  -4.0599777288669821e-33  2.5154824572056229e-32  -6.0625822001088165e-33  1.3756202483848627e-31  -9.9017333510817683e-34  -1.2942973130798996e-33  -4.6819440352257794e-34  -1.9574375514462617e-34  1.4856514665644883e-34  1.3409178715165214e-34  7.7341094445936611e-35  7.3735848809837707e-36  -1.6096911240175583e-33  2.7758149448061737e-20  4.6288968175177940e-26  -1.3626149044679367e-26  1.3821897049255555e-20  1.1675259697885954e-25  -3.4725238707859371e-24  1.3394908189635992e-21  8.8430431216617395e-22  -3.2579697382021160e-24  2.7351922342942618e-26  7.8784090153104981e-26  -5.2867985572518936e-26  -3.8569940687612689e-26  -1.1547888487162686e-23  3.9597119823935955e-22  4.1482008691235383e-22  -1.1338401594760927e-23  -2.5521461172815147e-27  8.8215066570086892e-26  -4.0407800686093351e-27  5.5589393337051729e-27  -6.5544401176121845e-27  8.9115012639724407e-26  1.1270770230197263e-25  -4.0127469494394043e-27  -2.4123683635324519e-27  3.0464782667990888e-26  2.8830727748275315e-26  -1.5704727633995144e-28  -7.7608905315838689e-28  -1.2224901474339210e-27  2.0590623601012552e-28  6.3878704982660610e-28  6.7275925135055193e-29  -1.5133888547374349e-28  -9.2255823825812824e-28  1.2567464233659763e-35  1.8952171572849693e-35  7.5316872686505091e-36  -1.6946007178675494e-36  6.4699468234665748e-36  1.5368889650687466e-36  1.0557455226278937e-35  5.2339974955393567e-37  2.7877468458563728e-20  1.2035076429392300e-25  1.1446467877360860e-25  1.3760366933133269e-20  -1.7863556777469294e-27  4.4955694441500973e-27  4.7956994578515951e-27  -7.1559765917611475e-27  -1.1865851748523002e-26  -6.9987707359902319e-29  -8.1945487170444633e-27  -2.0294424714801713e-26  3.5252788985962554e-30  -1.1192018278220644e-28  -7.3960789049186124e-29  2.8341012975399390e-30  3.4754380114481812e-30  -9.6395359957615726e-29  -1.2779665328560724e-28  1.1569375647693880e-30  -3.7499967749353777e-33  3.6441417843629995e-34  1.2052992568149936e-30  -1.2997728541283336e-32  2.7360710976352720e-31  -1.5412839252556698e-32  -3.6562407329152139e-32  1.2126588437913008e-33  8.1374476100579278e-31  -1.3325621517096220e-32  -1.3655504385212826e-33  2.9198314486755236e-34  -4.4317825216608941e-32  1.2637524881554350e-33  5.2319091666444385e-31  -1.7094965261362015e-32  -3.7014096109827923e-36  -1.7453802717070609e-36  -2.9595976669328363e-36  -3.4662508346761658e-36  3.4840952674024088e-20  -1.2995853861246849e-19  -8.5771483315824694e-20  4.2076950371016096e-19  2.0515162135097915e-19  -1.2097205960052970e-18  -3.1622074892522577e-19  2.8705393308881216e-18  -2.7975277219598636e-19  -4.3099801569346842e-18  4.7474874036930175e-18  -4.6496833984489761e-18  -2.3363936145609207e-17  6.8991207458410038e-17  8.0970995704249884e-17  -3.3342387503550894e-16  -2.1158946486491100e-16  1.1328876086615415e-15  3.8162536163120845e-16  -2.8846907025173133e-15  -2.0353341682373807e-16  -4.7525365808429637e-15  4.9165517704919560e-15  -1.6200971924375557e-15  -1.5863598793175531e-15  7.3808898208525803e-15  -2.5145867669708825e-14  -1.5924051758640391e-14  9.9126084934080707e-14  9.7169919384083838e-15  -1.8521730871355942e-13  5.6053604684751561e-14  -3.7650739313167062e-13  2.9176637595952709e-14  -1.9703581981245707e-13  8.8654764050674563e-13  1.5536378453560349e-13  -2.2293419106876212e-12  7.7802409384285213e-13  -1.2244272413876242e-13  -2.4767515283838880e-12  1.3240154199476910e-11  -1.0637152319827844e-13  -2.1326470757565005e-11  -2.3720651733157598e-11  1.5576244651693776e-11  -4.0435943404657178e-11  -2.6197009324846499e-11  -3.0475901737389664e-13  1.7310820575333062e-11  -4.9867785315541964e-11  -2.3475130713179413e-11  -1.2717077178708643e-12  1.8382146317385650e-11  -2.7278781495609178e-12  -3.2804596720773663e-12  -1.3737050525045888e-11  1.8262694861858978e-11  -1.8308169253186434e-12  -6.7099889985228238e-12  1.4874962894936318e-12  3.6898599158575184e-13  1.1085114766967637e-11  -8.5790474516379117e-12  9.5890408499076662e-13  3.5615958882977003e-12  -1.4405372910447908e-11  2.2790831592123842e-12  -9.7888620740402673e-13  2.8368198167704819e-13  -4.9727527398790899e-12  2.1933216172332990e-12  -8.9153983765365934e-12  1.4121259650165159e-13  1.4211343924863515e-12  2.1923208193134295e-12  -3.5655686330842188e-12  2.5691759061128949e-11  -9.9231825887274670e-12  4.6010861386199950e-11  -1.3699281663317051e-11  5.3263024156210486e-11  3.2758527101459486e-12  -1.4243355381119910e-11  5.2221884038954472e-11  -1.3903429200125336e-11  5.2099087941660318e-11  -1.4170465711745913e-11  5.2925723601493383e-11  -1.3636745542895429e-11  4.6053555620979164e-11  -1.0050808280769587e-11  2.6443175625697935e-11  -3.7217706235435156e-12  1.9327300397690299e-12  3.2816218114064524e-12  -1.3958260713820641e-10  2.5109019493324856e+00  1.9657879699463686e-12  -1.3155655412232764e-11  3.9195681944582023e-12  -1.2890574624931501e-11  2.5343738545784116e+00  2.4093069567780947e-12  -4.4104583717580631e-12  2.4979633185785990e+00  1.7723355208694470e-13  1.8653910169864069e-12  1.7145108619157680e-12  -1.0303174312962886e-11  2.3502102573114838e-12  -4.7669279965838529e-12  -1.9087758424245689e-10  -3.2982484378542354e-13  1.8427299596424041e-13  2.4648045611010711e-12  1.3480828918369155e-12  -1.3790963187309505e-11  3.1899756150934212e-12  -6.8564996707658700e-12  4.4373164408355340e-11  5.1244469909688065e-12  1.7258967740779086e-12  -1.0570094324379567e-11  2.9624533562240055e-11  2.7853425886468074e-11  -3.0701621797979319e-12  -2.6884043991248294e-12  -2.9986197688901825e-11  2.4131491526505161e-11  -4.4952874326521647e-12  2.5566408793190125e-12  -4.7095624725813627e-11  1.4856301144887323e-11  -3.5624083188777740e-12  2.0496255709974405e-12  -3.4325315122560078e-11  1.3011473527933414e-11  -1.6562260972063486e-11  -2.7052754925247827e-11  7.5606152123988027e-13  1.4720026065179532e-11  -2.5680383583688076e-11  -3.4306033684752215e-11  1.0567319960481144e-12  1.9255760258378742e-11  -3.8091766102267906e-11  -4.0372108897937694e-11  3.3820767165780584e-10  -1.0484241286708605e-10  3.4625247274423053e-11  2.7917712503901266e-10  -1.0162384806080841e-11  -1.5824349179337676e-10  7.0786227788584298e-10  -9.7367398466154900e-11  -3.1623600597791104e-10  3.3495089442961132e-10  -1.7629084813753207e-09  3.1755650559167762e-10  5.2661691011637725e-10  -9.3926001732448969e-10  5.5425223160649756e-11  4.6161646713666979e-10  -2.0804261490959065e-09  4.1341851873370382e-10  4.8582313263147543e-11  -7.7775081000993580e-10  6.2576424284264404e-09  -2.5230757986091461e-09  1.1102515412796360e-08  -2.6966602152354639e-09  6.0763656644637973e-09  3.0393317695624661e-10  -1.0068508499565761e-08  5.1678205754677051e-09  -2.7534492409440081e-08  8.9690090256737112e-09  -3.7318036231536068e-08  1.0594657968949938e-08  -4.0077963701566409e-08  1.0586079337585266e-08  -3.7174781504569142e-08  8.7248439056555995e-09  -2.6310914378274745e-08  5.0685699354021390e-09  -1.1416170041362089e-08  -1.8825341905307699e-09  -8.3021159709733861e-10  3.6490867602727801e-10  9.5298995080808390e-11  -6.0274818050168638e-11  2.9172731231422064e-12  6.9892956010364844e-12  -6.6547315093874873e-12  1.9364652436660851e-13  2.8335948795510119e-12  -1.2437674321025102e-11  -4.7751732110812243e-13  4.5646197728017997e-10  3.2651054017758669e-12  -1.0225751575743264e-11  1.8589516366034324e-12  -3.3190783730039331e-12  1.0211884523850665e-13  1.5019755424372422e-12  -5.0334253699792339e-13  1.3507409