<?xml version="1.0"?>
<VTKFile type="UnstructuredGrid"  version="0.1"  >
<UnstructuredGrid>
<Piece  NumberOfPoints="11902" NumberOfCells="23402">
<Points>
<DataArray  type="Float64"  NumberOfComponents="3"  format="ascii">-5 -5 0  5 -5 0  5 5 0  -5 5 0  1.260526592285129 0.001332695134854523 0  -4.9 -5 0  -4.8 -5 0  -4.7 -5 0  -4.6 -5 0  -4.5 -5 0  -4.4 -5 0  -4.3 -5 0  -4.2 -5 0  -4.1 -5 0  -4 -5 0  -3.9 -5 0  -3.8 -5 0  -3.7 -5 0  -3.6 -5 0  -3.5 -5 0  -3.4 -5 0  -3.3 -5 0  -3.2 -5 0  -3.1 -5 0  -3 -5 0  -2.9 -5 0  -2.8 -5 0  -2.7 -5 0  -2.6 -5 0  -2.5 -5 0  -2.4 -5 0  -2.3 -5 0  -2.2 -5 0  -2.1 -5 0  -2 -5 0  -1.9 -5 0  -1.8 -5 0  -1.7 -5 0  -1.6 -5 0  -1.5 -5 0  -1.4 -5 0  -1.3 -5 0  -1.2 -5 0  -1.1 -5 0  -1 -5 0  -0.9000000000000004 -5 0  -0.7999999999999998 -5 0  -0.7000000000000002 -5 0  -0.5999999999999996 -5 0  -0.5 -5 0  -0.4000000000000004 -5 0  -0.2999999999999998 -5 0  -0.2000000000000002 -5 0  -0.09999999999999964 -5 0  0 -5 0  0.09999999999999964 -5 0  0.2000000000000002 -5 0  0.2999999999999998 -5 0  0.4000000000000004 -5 0  0.5 -5 0  0.5999999999999996 -5 0  0.7000000000000002 -5 0  0.7999999999999998 -5 0  0.9000000000000004 -5 0  1 -5 0  1.1 -5 0  1.2 -5 0  1.3 -5 0  1.4 -5 0  1.5 -5 0  1.6 -5 0  1.7 -5 0  1.8 -5 0  1.9 -5 0  2 -5 0  2.1 -5 0  2.2 -5 0  2.3 -5 0  2.4 -5 0  2.5 -5 0  2.6 -5 0  2.7 -5 0  2.8 -5 0  2.9 -5 0  3 -5 0  3.1 -5 0  3.199999999999999 -5 0  3.300000000000001 -5 0  3.4 -5 0  3.5 -5 0  3.6 -5 0  3.699999999999999 -5 0  3.800000000000001 -5 0  3.9 -5 0  4 -5 0  4.1 -5 0  4.199999999999999 -5 0  4.300000000000001 -5 0  4.4 -5 0  4.5 -5 0  4.6 -5 0  4.699999999999999 -5 0  4.800000000000001 -5 0  4.9 -5 0  5 -4.9 0  5 -4.8 0  5 -4.7 0  5 -4.6 0  5 -4.5 0  5 -4.4 0  5 -4.3 0  5 -4.2 0  5 -4.1 0  5 -4 0  5 -3.9 0  5 -3.8 0  5 -3.7 0  5 -3.6 0  5 -3.5 0  5 -3.4 0  5 -3.3 0  5 -3.2 0  5 -3.1 0  5 -3 0  5 -2.9 0  5 -2.8 0  5 -2.7 0  5 -2.6 0  5 -2.5 0  5 -2.4 0  5 -2.3 0  5 -2.2 0  5 -2.1 0  5 -2 0  5 -1.9 0  5 -1.8 0  5 -1.7 0  5 -1.6 0  5 -1.5 0  5 -1.4 0  5 -1.3 0  5 -1.2 0  5 -1.1 0  5 -1 0  5 -0.9000000000000004 0  5 -0.7999999999999998 0  5 -0.7000000000000002 0  5 -0.5999999999999996 0  5 -0.5 0  5 -0.4000000000000004 0  5 -0.2999999999999998 0  5 -0.2000000000000002 0  5 -0.09999999999999964 0  5 0 0  5 0.09999999999999964 0  5 0.2000000000000002 0  5 0.2999999999999998 0  5 0.4000000000000004 0  5 0.5 0  5 0.5999999999999996 0  5 0.7000000000000002 0  5 0.7999999999999998 0  5 0.9000000000000004 0  5 1 0  5 1.1 0  5 1.2 0  5 1.3 0  5 1.4 0  5 1.5 0  5 1.6 0  5 1.7 0  5 1.8 0  5 1.9 0  5 2 0  5 2.1 0  5 2.2 0  5 2.3 0  5 2.4 0  5 2.5 0  5 2.6 0  5 2.7 0  5 2.8 0  5 2.9 0  5 3 0  5 3.1 0  5 3.199999999999999 0  5 3.300000000000001 0  5 3.4 0  5 3.5 0  5 3.6 0  5 3.699999999999999 0  5 3.800000000000001 0  5 3.9 0  5 4 0  5 4.1 0  5 4.199999999999999 0  5 4.300000000000001 0  5 4.4 0  5 4.5 0  5 4.6 0  5 4.699999999999999 0  5 4.800000000000001 0  5 4.9 0  4.9 5 0  4.8 5 0  4.7 5 0  4.6 5 0  4.5 5 0  4.4 5 0  4.3 5 0  4.2 5 0  4.1 5 0  4 5 0  3.9 5 0  3.8 5 0  3.7 5 0  3.6 5 0  3.5 5 0  3.4 5 0  3.3 5 0  3.2 5 0  3.1 5 0  3 5 0  2.9 5 0  2.8 5 0  2.7 5 0  2.6 5 0  2.5 5 0  2.4 5 0  2.3 5 0  2.2 5 0  2.1 5 0  2 5 0  1.9 5 0  1.8 5 0  1.7 5 0  1.6 5 0  1.5 5 0  1.4 5 0  1.3 5 0  1.2 5 0  1.1 5 0  1 5 0  0.9000000000000004 5 0  0.7999999999999998 5 0  0.7000000000000002 5 0  0.5999999999999996 5 0  0.5 5 0  0.4000000000000004 5 0  0.2999999999999998 5 0  0.2000000000000002 5 0  0.09999999999999964 5 0  0 5 0  -0.09999999999999964 5 0  -0.2000000000000002 5 0  -0.2999999999999998 5 0  -0.4000000000000004 5 0  -0.5 5 0  -0.5999999999999996 5 0  -0.7000000000000002 5 0  -0.7999999999999998 5 0  -0.9000000000000004 5 0  -1 5 0  -1.1 5 0  -1.2 5 0  -1.3 5 0  -1.4 5 0  -1.5 5 0  -1.6 5 0  -1.7 5 0  -1.8 5 0  -1.9 5 0  -2 5 0  -2.1 5 0  -2.2 5 0  -2.3 5 0  -2.4 5 0  -2.5 5 0  -2.6 5 0  -2.7 5 0  -2.8 5 0  -2.9 5 0  -3 5 0  -3.1 5 0  -3.199999999999999 5 0  -3.300000000000001 5 0  -3.4 5 0  -3.5 5 0  -3.6 5 0  -3.699999999999999 5 0  -3.800000000000001 5 0  -3.9 5 0  -4 5 0  -4.1 5 0  -4.199999999999999 5 0  -4.300000000000001 5 0  -4.4 5 0  -4.5 5 0  -4.6 5 0  -4.699999999999999 5 0  -4.800000000000001 5 0  -4.9 5 0  -5 4.9 0  -5 4.8 0  -5 4.7 0  -5 4.6 0  -5 4.5 0  -5 4.4 0  -5 4.3 0  -5 4.2 0  -5 4.1 0  -5 4 0  -5 3.9 0  -5 3.8 0  -5 3.7 0  -5 3.6 0  -5 3.5 0  -5 3.4 0  -5 3.3 0  -5 3.2 0  -5 3.1 0  -5 3 0  -5 2.9 0  -5 2.8 0  -5 2.7 0  -5 2.6 0  -5 2.5 0  -5 2.4 0  -5 2.3 0  -5 2.2 0  -5 2.1 0  -5 2 0  -5 1.9 0  -5 1.8 0  -5 1.7 0  -5 1.6 0  -5 1.5 0  -5 1.4 0  -5 1.3 0  -5 1.2 0  -5 1.1 0  -5 1 0  -5 0.9000000000000004 0  -5 0.7999999999999998 0  -5 0.7000000000000002 0  -5 0.5999999999999996 0  -5 0.5 0  -5 0.4000000000000004 0  -5 0.2999999999999998 0  -5 0.2000000000000002 0  -5 0.09999999999999964 0  -5 0 0  -5 -0.09999999999999964 0  -5 -0.2000000000000002 0  -5 -0.2999999999999998 0  -5 -0.4000000000000004 0  -5 -0.5 0  -5 -0.5999999999999996 0  -5 -0.7000000000000002 0  -5 -0.7999999999999998 0  -5 -0.9000000000000004 0  -5 -1 0  -5 -1.1 0  -5 -1.2 0  -5 -1.3 0  -5 -1.4 0  -5 -1.5 0  -5 -1.6 0  -5 -1.7 0  -5 -1.8 0  -5 -1.9 0  -5 -2 0  -5 -2.1 0  -5 -2.2 0  -5 -2.3 0  -5 -2.4 0  -5 -2.5 0  -5 -2.6 0  -5 -2.7 0  -5 -2.8 0  -5 -2.9 0  -5 -3 0  -5 -3.1 0  -5 -3.199999999999999 0  -5 -3.300000000000001 0  -5 -3.4 0  -5 -3.5 0  -5 -3.6 0  -5 -3.699999999999999 0  -5 -3.800000000000001 0  -5 -3.9 0  -5 -4 0  -5 -4.1 0  -5 -4.199999999999999 0  -5 -4.300000000000001 0  -5 -4.4 0  -5 -4.5 0  -5 -4.6 0  -5 -4.699999999999999 0  -5 -4.800000000000001 0  -5 -4.9 0  1.252351398883237 0.09448670935838475 0  1.230527341541586 0.1921419269305485 0  1.197058966955409 0.2886589881659161 0  1.154217740143862 0.3772321224888038 0  1.096120051433176 0.4681135619715879 0  1.030193793942894 0.5522558164995482 0  0.9517415892473065 0.6323417782422479 0  0.8647943624491474 0.7070832188359858 0  0.772983469676687 0.7725102469159829 0  0.6706417603503912 0.829883769756267 0  0.5584666519900203 0.8821384836819447 0  0.4457624097640838 0.9267188009799149 0  0.3336234326124681 0.9587948221778235 0  0.2087439344689903 0.9804877535015883 0  0.08871752537003658 0.9994165972091799 0  -0.02694346466462376 1.002758539080761 0  -0.1446306497680005 0.9889739351803266 0  -0.2723899837703707 0.9698484119596912 0  -0.3918145962018533 0.9456757325984748 0  -0.5023099004808109 0.9098137548499109 0  -0.6118294619136939 0.8633395485775535 0  -0.7139632931701861 0.8086093501228144 0  -0.8086394433859053 0.7437596972412406 0  -0.8998199969181437 0.6701631053186942 0  -0.9856184882737067 0.5903083473563026 0  -1.060082437158768 0.509138895923818 0  -1.121931588139005 0.423970262964097 0  -1.175567841108148 0.3314353724872635 0  -1.213455271936109 0.2426951678537292 0  -1.237922733133552 0.1485897867095292 0  -1.248807088120422 0.05178906920652412 0  -1.248764347976334 -0.04961711348648802 0  -1.237902949067542 -0.1456621581951386 0  -1.213087599666024 -0.2378094139994192 0  -1.171501840858793 -0.3326336861729006 0  -1.122282618305263 -0.4245285066373337 0  -1.061845273234673 -0.5090011640737706 0  -0.9880839468762921 -0.5892995210674827 0  -0.9029182086747506 -0.6680629019381572 0  -0.8123082736363363 -0.7397215421420026 0  -0.7164417094449377 -0.8007217561330544 0  -0.6117087777067023 -0.8538393424746084 0  -0.4974986511887872 -0.9033984298941423 0  -0.3846786774821704 -0.9432568007627891 0  -0.2690702906097717 -0.9695881012493078 0  -0.1430933209610993 -0.9888540901468595 0  -0.02783304857950058 -1.001979674396405 0  0.08789199836798652 -0.994664449370334 0  0.2144255408518973 -0.9769652001760664 0  0.3362709738958243 -0.9571752775555482 0  0.4499215592713651 -0.9253964978906829 0  0.5609159894862347 -0.8813691794932242 0  0.6716665437406286 -0.8299059996772038 0  0.772929271840418 -0.773622030423311 0  0.8647736162768908 -0.7081981315890625 0  0.950633670616664 -0.6325487365238849 0  1.02759908326514 -0.5511763927477933 0  1.097036089931362 -0.4669638505296075 0  1.155027826695482 -0.3776276567583526 0  1.198800053039232 -0.2867105942860185 0  1.231219137791541 -0.1913085139628944 0  1.252728256442285 -0.09427988257461124 0  -2.44854698053267 4.918088109662911 0  -2.448419801263151 -4.910464016636328 0  4.910387543133369 2.447872218026284 0  4.918517014147318 -2.449335857408626 0  2.446146974540009 -4.895690360164601 0  2.440581060745637 4.899454196874781 0  -4.910414743300738 -2.447898805189581 0  -4.910412007294463 2.447902796012583 0  -1.748500484365648 4.91096444149222 0  -1.744287698243717 -4.914407443162402 0  4.92055533041392 1.744049160936267 0  4.909078000630483 -1.747807311080648 0  -4.909372635061638 -1.747541800517661 0  -4.910195626440508 1.747287001998026 0  1.745772246206235 4.904817084499913 0  1.74718335364789 -4.892954860500877 0  -1.14881447424793 4.908737116410492 0  -1.129673528888151 -4.916659527052137 0  -4.90907064083884 -1.147874549167999 0  -4.908888705703493 1.14767507156109 0  1.143810785796438 -4.912840219017348 0  1.148824397035357 4.908723577590148 0  4.909209986717051 1.146149632510704 0  4.920056267335351 -1.151937900909832 0  -0.5466547228479066 -4.90992007013897 0  -0.5464388629678266 4.918614817877812 0  -4.907787405508132 -0.5486788683320299 0  -4.907811362002469 0.5472368536293598 0  4.907104722918977 -0.5489968994500926 0  4.918780474162244 0.5457580304868731 0  0.5424357561574099 -4.896781613509726 0  0.5511670385372851 4.915433579866146 0  -4.91185444465581 -3.04826097042731 0  4.918428094916804 3.04627927235113 0  4.911361887613673 -3.048236261908188 0  -4.912702503492651 3.045352870988194 0  3.055274800306594 -4.917350303898739 0  -3.048603657080911 -4.911283525101587 0  3.052171533062619 4.913362081404965 0  -3.048049520830734 4.912173708541245 0  -4.90688959781912 -0.04990477180654749 0  0.04511894682705531 -4.911869341213321 0  0.0495663428388524 4.918905459325914 0  4.913955759899227 -0.05128716340079655 0  3.54559880196089 -4.919004182729593 0  -3.548877507159741 4.9
[...]
<PointData  Vectors="f_5158"> 
<DataArray  type="Float64"  Name="f_5158"  NumberOfComponents="3" format="ascii">2.6559658580600291e-76 2.6559658580600291e-76 0.0000000000000000e+00  -2.8445085011138821e-76 2.8445085011138821e-76 0.0000000000000000e+00  -8.5659604779173261e-78 -8.5659604779173261e-78 0.0000000000000000e+00  3.0308186857311735e-76 -3.0308186857311735e-76 0.0000000000000000e+00  7.8708533058108543e-01 8.8515373015796098e-03 0.0000000000000000e+00  4.1659747777095967e-75 6.6061941721805074e-75 0.0000000000000000e+00  2.0823393788123192e-75 2.0880008633825118e-74 0.0000000000000000e+00  -3.4060037760255507e-75 6.7716921264517496e-75 0.0000000000000000e+00  4.0004802759382926e-72 6.6678284175899042e-72 0.0000000000000000e+00  5.3174195975141561e-71 1.3457805747069721e-70 0.0000000000000000e+00  -7.9210156963288853e-72 4.5553261567374781e-71 0.0000000000000000e+00  3.2348504425542138e-69 6.1619629587084034e-69 0.0000000000000000e+00  5.1623958791275628e-68 9.3981519947338117e-68 0.0000000000000000e+00  -3.0655315715129977e-68 1.5001109102094402e-67 0.0000000000000000e+00  1.2770748540859523e-67 3.9815035102945311e-67 0.0000000000000000e+00  1.2630731270403766e-68 8.7790770652849717e-67 0.0000000000000000e+00  5.4533441532563188e-64 8.8220492881004940e-64 0.0000000000000000e+00  4.7441189137858141e-65 2.4418653257893000e-63 0.0000000000000000e+00  1.3496470012310922e-62 2.1987372757040305e-62 0.0000000000000000e+00  8.0686031673484947e-63 8.3179753633172948e-62 0.0000000000000000e+00  6.9340899786327751e-61 1.1021488396069189e-60 0.0000000000000000e+00  4.0640144322739523e-60 7.0058222948603072e-60 0.0000000000000000e+00  -2.8482339372369887e-60 7.6996370720715167e-60 0.0000000000000000e+00  5.6646800368418837e-59 1.1366786559659575e-58 0.0000000000000000e+00  -1.7596325203225850e-59 1.1646788602950541e-58 0.0000000000000000e+00  -3.0047058790669436e-59 6.8390949560295590e-59 0.0000000000000000e+00  1.8030668952804786e-58 3.3038633343583584e-58 0.0000000000000000e+00  7.3019245017706362e-58 2.0892806199981798e-57 0.0000000000000000e+00  2.8618576660910205e-57 6.2323107546269545e-57 0.0000000000000000e+00  -3.4088189503840485e-57 5.7387693693605526e-57 0.0000000000000000e+00  -3.5240561901132137e-58 1.0978674565367615e-57 0.0000000000000000e+00  1.9094673970270421e-56 2.9315732453400196e-56 0.0000000000000000e+00  -1.4142158584435786e-56 3.5311794881283522e-56 0.0000000000000000e+00  1.1919106428062497e-56 2.8931741999962320e-56 0.0000000000000000e+00  8.7418707798254389e-56 2.0973654521040752e-55 0.0000000000000000e+00  -2.5125385526752725e-56 5.7434513845089172e-55 0.0000000000000000e+00  5.2129402242106604e-57 8.6112906700988096e-57 0.0000000000000000e+00  5.5474430820193739e-56 1.3815597792987655e-55 0.0000000000000000e+00  1.5497083482280224e-55 6.1691283234574071e-55 0.0000000000000000e+00  -2.2375013198636871e-55 3.5168637886998506e-55 0.0000000000000000e+00  9.8416376207688563e-55 1.7226777338160323e-54 0.0000000000000000e+00  -4.4232426439261833e-55 4.3615400641034663e-54 0.0000000000000000e+00  -2.2841339049806462e-55 2.6820455799252203e-54 0.0000000000000000e+00  -9.6241451865958885e-56 9.4398347290158899e-55 0.0000000000000000e+00  -1.1317958713356746e-55 1.8223765085077647e-55 0.0000000000000000e+00  2.7616553294379810e-54 5.2327371238583974e-54 0.0000000000000000e+00  -2.1612856448285780e-54 4.1394542830409522e-54 0.0000000000000000e+00  -7.1968862638402362e-55 8.0821149079576667e-55 0.0000000000000000e+00  -1.3213737246389185e-55 2.7133446583401289e-55 0.0000000000000000e+00  9.3095239586640218e-55 1.4449879533807789e-54 0.0000000000000000e+00  9.4614338558415898e-55 6.1542487618068196e-54 0.0000000000000000e+00  -1.1293351676938994e-54 5.8988437114394763e-54 0.0000000000000000e+00  5.1506091475869178e-55 4.6479497407676204e-54 0.0000000000000000e+00  1.9093784043809764e-56 5.7928676562293564e-54 0.0000000000000000e+00  3.0196917967068100e-55 6.1510237671218952e-54 0.0000000000000000e+00  -1.2625517400884256e-54 2.0441112682139240e-54 0.0000000000000000e+00  -6.4597890825513735e-55 1.4722869772020698e-53 0.0000000000000000e+00  4.4670392793935445e-54 7.4695368089330310e-54 0.0000000000000000e+00  -4.3504960983451998e-54 8.0952888216123366e-54 0.0000000000000000e+00  1.9233408148364933e-54 3.9571819265258949e-54 0.0000000000000000e+00  -7.3668228956097015e-55 9.4984349417938486e-54 0.0000000000000000e+00  1.3322376070382702e-54 9.3289770785803713e-54 0.0000000000000000e+00  -1.6862307470476622e-54 4.3959610457510605e-54 0.0000000000000000e+00  -9.2577094528489500e-55 2.4044256977831871e-54 0.0000000000000000e+00  3.3342975265999170e-55 1.2997127907670444e-54 0.0000000000000000e+00  2.6594786718214713e-55 2.5376774955153847e-54 0.0000000000000000e+00  -7.8339957734726530e-56 3.4897605131479565e-54 0.0000000000000000e+00  -7.1186205954416825e-55 1.4811642130814753e-54 0.0000000000000000e+00  2.3798419757765541e-55 4.4272173188629145e-55 0.0000000000000000e+00  -2.3115245221915603e-55 6.0221370647247960e-55 0.0000000000000000e+00  5.0378482123797555e-56 2.3982955569582899e-55 0.0000000000000000e+00  1.8680224307011064e-55 9.5251861254637005e-55 0.0000000000000000e+00  -3.3061465643436464e-55 5.2996611078964948e-55 0.0000000000000000e+00  -1.5919767954920138e-56 4.8209125666469127e-56 0.0000000000000000e+00  -1.1356227326717012e-57 1.1332041502640874e-56 0.0000000000000000e+00  6.7585989011995644e-57 2.3556237758192659e-56 0.0000000000000000e+00  -8.9984603762830972e-57 1.5012801032291507e-56 0.0000000000000000e+00  1.7428989400154584e-57 2.8885303368206793e-57 0.0000000000000000e+00  -1.2449445487288583e-57 2.7232245873817060e-57 0.0000000000000000e+00  5.1790237401385698e-57 7.8135576967320682e-57 0.0000000000000000e+00  -4.5350000021423168e-57 1.1246654376529866e-56 0.0000000000000000e+00  -1.8144753382371347e-58 9.3933493814780757e-58 0.0000000000000000e+00  -2.3929364674529444e-58 4.6502778527844511e-58 0.0000000000000000e+00  -7.8800054132730223e-61 8.8102660277951140e-59 0.0000000000000000e+00  -2.4464223792259451e-59 6.4206504464550607e-59 0.0000000000000000e+00  -7.1168004019869905e-60 2.4991362766004034e-59 0.0000000000000000e+00  -4.3851711128127176e-60 2.2383161679799063e-59 0.0000000000000000e+00  -3.0629775482789705e-60 7.1657428163131308e-60 0.0000000000000000e+00  -8.5237048499947038e-62 4.4345642299297791e-61 0.0000000000000000e+00  -1.0758534338893419e-61 2.2333335113115732e-61 0.0000000000000000e+00  -3.5871098189919826e-62 5.6722309287779378e-62 0.0000000000000000e+00  -3.9097366718884248e-64 6.6956617149547286e-64 0.0000000000000000e+00  -2.4310620756243014e-65 5.1696232395340805e-65 0.0000000000000000e+00  3.7079992586613804e-66 1.0388460677637879e-65 0.0000000000000000e+00  -4.8420159073467887e-66 9.2598709787122095e-66 0.0000000000000000e+00  -6.6993259624333748e-68 2.7708580165721784e-67 0.0000000000000000e+00  -7.8530345492026409e-68 1.2915453640567324e-67 0.0000000000000000e+00  -8.0606220327593691e-69 1.1730154545963123e-68 0.0000000000000000e+00  -5.6331990681340935e-70 9.5191693978360888e-70 0.0000000000000000e+00  -3.7793889626995745e-71 6.8180326527566327e-71 0.0000000000000000e+00  -1.8784187223173752e-72 3.2024764405721422e-72 0.0000000000000000e+00  -1.2177420759172433e-73 2.7266536265113953e-73 0.0000000000000000e+00  -4.4211319222435990e-75 1.2911320232100059e-74 0.0000000000000000e+00  -2.5481183862535518e-75 4.2411460537068127e-75 0.0000000000000000e+00  -9.7688054584894690e-76 3.5584005301359548e-76 0.0000000000000000e+00  -1.6211431795995748e-75 -2.3925923026059902e-76 0.0000000000000000e+00  -2.4488270126590301e-74 1.1591655080609726e-74 0.0000000000000000e+00  -3.6791190798108957e-74 1.5505306086635168e-75 0.0000000000000000e+00  -3.8828723441332602e-73 1.4336456698892950e-73 0.0000000000000000e+00  -1.0236307938748064e-71 6.2395506703844217e-72 0.0000000000000000e+00  -6.7398471008858317e-71 3.7092769147586731e-71 0.0000000000000000e+00  -1.0610274164863837e-70 3.9043481676717922e-72 0.0000000000000000e+00  -8.8994503445403399e-70 3.3100753571346101e-70 0.0000000000000000e+00  -2.1281188343661030e-68 1.2870331968657039e-68 0.0000000000000000e+00  -1.0235127469089286e-67 5.1128843151204848e-68 0.0000000000000000e+00  -1.0138620817991862e-67 -6.0297690393272137e-68 0.0000000000000000e+00  -3.1648708110368935e-66 1.7471720942968170e-66 0.0000000000000000e+00  -3.1841861210578375e-65 1.8330397150696579e-65 0.0000000000000000e+00  -5.3856045649945203e-65 5.0498629644142366e-66 0.0000000000000000e+00  -4.4357476551932515e-64 1.4476023498544337e-64 0.0000000000000000e+00  -6.9902303289605854e-63 4.3628181981015184e-63 0.0000000000000000e+00  -1.5061899529846562e-62 3.7520343237852857e-63 0.0000000000000000e+00  -8.4320531404812295e-62 1.9682494461709032e-62 0.0000000000000000e+00  -1.3542961913607439e-60 8.5268467781137487e-61 0.0000000000000000e+00  -2.4166433156417716e-60 3.3856852470296134e-61 0.0000000000000000e+00  -2.1164025660914331e-59 7.4056407325520890e-60 0.0000000000000000e+00  -2.4158550196463008e-58 1.4962536740804349e-58 0.0000000000000000e+00  -2.5883625865356415e-58 -9.4293526008868472e-59 0.0000000000000000e+00  -5.9758521008567929e-57 2.7849278431594625e-57 0.0000000000000000e+00  -2.4825237624841558e-56 1.2406335964790953e-56 0.0000000000000000e+00  -5.5640979940307914e-56 -8.6969310611798086e-57 0.0000000000000000e+00  -1.0107859692623530e-54 6.4876094343635664e-55 0.0000000000000000e+00  -1.1208601273587235e-54 -3.4681797100000874e-55 0.0000000000000000e+00  -2.4070444160583845e-53 1.2708125966596393e-53 0.0000000000000000e+00  -6.5911295841095761e-53 2.9925332040173387e-53 0.0000000000000000e+00  -4.3557095392063773e-52 1.2257005150353922e-52 0.0000000000000000e+00  -2.6648114595924862e-51 1.6648434318542816e-51 0.0000000000000000e+00  -7.6659195121540566e-51 -2.1463011205828585e-52 0.0000000000000000e+00  -7.1943895464430041e-50 4.6016773711073109e-50 0.0000000000000000e+00  -1.6172570530522787e-49 -1.4795194599680671e-50 0.0000000000000000e+00  -1.7291209034934431e-48 1.0110386214309106e-48 0.0000000000000000e+00  -4.3411824048718687e-48 -2.0424829938366723e-49 0.0000000000000000e+00  -2.0134162248334422e-47 1.1107449892928478e-47 0.0000000000000000e+00  -1.1026909951971364e-46 1.8972349258881737e-47 0.0000000000000000e+00  -1.0247053364277481e-46 2.4620682458668862e-47 0.0000000000000000e+00  -1.2406199791069079e-45 5.2569537083220903e-46 0.0000000000000000e+00  -8.7378798169624495e-46 -5.6828884701305243e-46 0.0000000000000000e+00  -1.3430148020096622e-44 8.0760929518708056e-45 0.0000000000000000e+00  -5.7958532947009409e-44 1.3746535347053147e-44 0.0000000000000000e+00  -3.6153141560125463e-44 -1.7524749462046882e-44 0.0000000000000000e+00  -1.1425706118137808e-43 6.5046136878923018e-44 0.0000000000000000e+00  -8.4131975478163360e-43 2.3174407746786312e-43 0.0000000000000000e+00  -1.9291386860654284e-42 1.9766217224710730e-43 0.0000000000000000e+00  -2.5117289583785340e-42 6.1081481640248095e-44 0.0000000000000000e+00  -2.0145138463692780e-42 -1.9490839331198838e-43 0.0000000000000000e+00  -8.6138850118227973e-43 -2.5071666192317316e-43 0.0000000000000000e+00  -1.1325350092631535e-43 -6.4507831779334504e-44 0.0000000000000000e+00  -3.8712810452731773e-44 1.8514340312474587e-44 0.0000000000000000e+00  -6.3167076574528737e-44 -1.0828520242708752e-44 0.0000000000000000e+00  -1.4989810702396056e-44 -7.8719021242313384e-45 0.0000000000000000e+00  -9.9881529684087749e-46 5.6754868688415728e-46 0.0000000000000000e+00  -1.4039912234263877e-45 -5.3891534963203156e-46 0.0000000000000000e+00  -1.1208539299021996e-46 -2.8568548544743110e-47 0.0000000000000000e+00  -1.0181538508222438e-46 -2.1430800948858422e-47 0.0000000000000000e+00  -1.8610777081059126e-47 -1.1977640352086632e-47 0.0000000000000000e+00  -4.0856025115190044e-48 2.0338240503488611e-49 0.0000000000000000e+00  -1.4868823879095228e-48 -9.3616762625242842e-49 0.0000000000000000e+00  -1.6331605687905083e-49 2.4559445598736439e-50 0.0000000000000000e+00  -7.4582858782805815e-50 -4.4208790690346840e-50 0.0000000000000000e+00  -8.2461640790949403e-51 6.4082251891276216e-52 0.0000000000000000e+00  -3.1456857836296540e-51 -1.7834468299780447e-51 0.0000000000000000e+00  -5.1030267106045860e-52 -1.1464194093593853e-52 0.0000000000000000e+00  -8.2064207592550070e-53 -3.5464888645058427e-53 0.0000000000000000e+00  -2.6620359304993786e-53 -1.3154357425365300e-53 0.0000000000000000e+00  -1.1971577254659959e-54 3.2388185157511166e-55 0.0000000000000000e+00  -1.0637713152053666e-54 -6.8036738334391334e-55 0.0000000000000000e+00  -5.1523156771070861e-56 8.3490389025069150e-57 0.0000000000000000e+00  -2.3367015889266844e-56 -1.3235538122037411e-56 0.0000000000000000e+00  -4.8240791217011063e-57 -2.5207519133125830e-57 0.0000000000000000e+00  -2.4586252314828331e-58 8.5443112600665105e-59 0.0000000000000000e+00  -2.1583941367812540e-58 -1.3282465812259228e-58 0.0000000000000000e+00  -1.9911099674819338e-59 -6.1447578431993839e-60 0.0000000000000000e+00  -2.3749431748114385e-60 -3.3951889249991436e-61 0.0000000000000000e+00  -1.2909051340890145e-60 -7.6069138747138746e-61 0.0000000000000000e+00  -7.6909101217811544e-62 -2.1433419597538230e-62 0.0000000000000000e+00  -1.3593972165921313e-62 -2.9298538635662254e-63 0.0000000000000000e+00  -6.6393966074682056e-63 -3.7877343298410674e-63 0.0000000000000000e+00  -4.7831595804207748e-64 -1.8193400048634450e-64 0.0000000000000000e+00  -4.3638554921069733e-65 9.5793259990980185e-67 0.0000000000000000e+00  -2.9482128272797425e-65 -1.6618922727466960e-65 0.0000000000000000e+00  -3.4132909044995528e-66 -1.9885151952254449e-66 0.0000000000000000e+00  -8.9952835416706483e-68 5.4802271205670463e-68 0.0000000000000000e+00  -8.6366851780202451e-68 -4.1772269424403318e-68 0.0000000000000000e+00  -2.0682176798395143e-68 -1.2848982032361492e-68 0.0000000000000000e+00  -1.1326522366429342e-69 -5.1333265274849428e-70 0.0000000000000000e+00  -8.7943901697751673e-71 1.3788705382416061e-71 0.0000000000000000e+00  -6.9082410680645388e-71 -3.6570552772071820e-71 0.0000000000000000e+00  -1.2479165226623927e-71 -7.6620664008653560e-72 0.0000000000000000e+00  -5.9819701044120864e-73 -2.7510314341769392e-73 0.0000000000000000e+00  -3.9237464248922825e-74 7.4234034638263624e-75 0.0000000000000000e+00  -3.1565526922554802e-74 -1.4790055508798910e-74 0.0000000000000000e+00  -6.5906383137337076e-75 -3.3570738746074058e-75 0.0000000000000000e+00  -7.1799011079812640e-76 -3.1071521218257258e-76 0.0000000000000000e+00  -8.5519361037969397e-76 -1.6228460074790336e-75 0.0000000000000000e+00  -4.7735560308304982e-75 -1.3945916281534718e-74 0.0000000000000000e+00  4.3670723615623095e-75 -8.3088411144581731e-75 0.0000000000000000e+00  -1.6294373988654673e-73 -3.4272081056922912e-73 0.0000000000000000e+00  -9.2856751862139044e-71 -1.0069389092754819e-70 0.0000000000000000e+00  -7.5068161625776709e-70 -1.3176975405113422e-69 0.0000000000000000e+00  -1.0985071043657771e-69 -3.6512023541935825e-69 0.0000000000000000e+00  -7.7615798503861704e-68 -1.7113795485746353e-67 0.0000000000000000e+00  -6.5315921289498959e-68 -3.2599147075807109e-67 0.0000000000000000e+00  -6.7904339637356445e-66 -1.3500238910582842e-65 0.0000000000000000e+00  -4.5203381766507331e-66 -2.1315976962214705e-65 0.0000000000000000e+00  -9.0707033055511981e-65 -1.5574805168269034e-64 0.0000000000000000e+00  1.7222360896262877e-65 -2.1035823198266349e-64 0.0000000000000000e+00  -4.2763975040381188e-62 -6.4019625768435778e-62 0.0000000000000000e+00  -6.9999967483838952e-62 -1.7206114540313233e-61 0.0000000000000000e+00  -2.3265290972513033e-62 -2.7285991125294071e-61 0.0000000000000000e+00  -5.7416875269733354e-60 -1.1361636680864460e-59 0.0000000000000000e+00  4.7694663181446061e-60 -1.5021322668185635e-59 0.0000000000000000e+00  -2.9019118571037159e-59 -4.7483217880294214e-59 0.0000000000000000e+00  8.8248626839738459e-60 -6.0863231564181601e-59 0.0000000000000000e+00  2.3265555205594217e-59 -3.9724987442092987e-59 0.0000000000000000e+00  -5.6407075018978612e-58 -8.9460645307303511e-58 0.0000000000000000e+00  -1.3810197829084563e-59 -1.2602347836317309e-57 0.0000000000000000e+00  -4.6364727511725510e-57 -1.1636403453074946e-56 0.0000000000000000e+00  5.7533821691184617e-57 -8.6759576360853531e-57 0.0000000000000000e+00  -5.3376872768754511e-57 -7.3364968331400990e-57 0.0000000000000000e+00  -1.7685097037271055e-56 -3.7728680753440864e-56 0.0000000000000000e+00  2.1636984881498958e-56 -4.0718578939193334e-56 0.0000000000000000e+00  -5.0070406869934737e-57 -9.1991341665476951e-57 0.0000000000000000e+00  -8.1258706151720437e-56 -2.0307696011721357e-55 0.0000000000000000e+00  6.3812254298688755e-56 -5.0771449891930226e-55 0.0000000000000000e+00  -4.2944102285291288e-55 -7.2566222779987164e-55 0.0000000000000000e+00  -4.8835328930225228e-56 -1.8357233165576499e-54 0.0000000000000000e+00  1.6623515408005966e-55 -5.7402257190824875e-55 0.0000000000000000e+00  -5.1887687036290572e-55 -1.6758194777363445e-54 0.0000000000000000e+00  -2.2566522783508741e-54 -7.0711841718027198e-54 0.0000000000000000e+00  2.5859984216828944e-54 -6.0772423112157788e-54 0.0000000000000000e+00  -6.7298589063813382e-55 -2.3895656031513636e-54 0.0000000000000000e+00  5.3334719901924182e-55 -2.8191701517749951e-54 0.0000000000000000e+00  1.2844704202541812e-55 -1.4248056683120948e-54 0.0000000000000000e+00  -2.1837463868055735e-54 -3.4663442796781042e-54 0.0000000000000000e+00  5.7225532183756868e-55 -8.2270305496909572e-54 0.0000000000000000e+00  -3.9369825571790587e-54 -1.3557253530253701e-53 0.0000000000000000e+00  4.7003482089531870e-54 -7.7150289747528930e-54 0.0000000000000000e+00  2.0352428039219711e-55 -6.5061550512917038e-55 0.0000000000000000e+00  -4.8096753166480982e-54 -8.0085813481441292e-54 0.0000000000000000e+00  4.8356512178154386e-54 -7.8698341526753006e-54 0.0000000000000000e+00  -1.6649295587788767e-56 -1.3349839426760664e-55 0.0000000000000000e+00  1.1174191938908899e-56 -2.7680213049812755e-55 0.0000000000000000e+00  2.2109649652639393e-56 -9.8796572018945527e-56 0.0000000000000000e+00  -5.2141925201272588e-54 -9.3537753191772562e-54 0.0000000000000000e+00  5.5613605662545718e-54 -9.4076039463157125e-54 0.0000000000000000e+00  5.6857778289229613e-56 -1.0518406228400869e-55 0.0000000000000000e+00  -1.4357125104336568e-56 -6.2048045304756644e-56 0.0000000000000000e+00  -5.0088442538015521e-55 -9.0468747861113496e-55 0.0000000000000000e+00  -5.8258046720158397e-54 -1.0046404241328585e-53 0.0000000000000000e+00  4.5122164152380261e-54 -1.0491280021637833e-53 0.0000000000000000e+00  -3.0582274106698068e-54 -7.9857402714324922e-54 0.0000000000000000e+00  2.4434288949748377e-54 -8.5495301723722796e-54 0.0000000000000000e+00  2.2505478609607625e-54 -3.3058691018589711e-54 0.0000000000000000e+00  -5.4468709961177253e-55 -1.4799352798323778e-54 0.0000000000000000e+00  8.3715068644912599e-55 -1.5736959439496238e-54 0.0000000000000000e+00  -4.9321984152037602e-55 -9.8332875526870774e-55 0.0000000000000000e+00  5.1335767411861662e-55 -8.8539997611010476e-55 0.0000000000000000e+00  -1.5692049438868417e-56 -2.6923719824243372e-56 0.0000000000000000e+00  -4.4842053860075206e-56 -1.7219147388709526e-55 0.0000000000000000e+00  4.1785262110804845e-56 -1.7466880992810463e-55 0.0000000000000000e+00  4.8081029920563334e-57 -6.9029041896381983e-56 0.0000000000000000e+00  -2.7524421318510432e-56 -6.5433787535932030e-56 0.0000000000000000e+00  3.2922226730868047e-56 -6.4128469599476540e-56 0.0000000000000000e+00  -2.8622193884156446e-57 -2.8734274081417584e-56 0.0000000000000000e+00  1.2974573175811925e-56 -3.0016849748745956e-56 0.0000000000000000e+00  1.0034721286473671e-57 -2.3987922806954582e-57 0.0000000000000000e+00  -4.3871421955451167e-57 -7.6403514670177510e-57 0.0000000000000000e+00  4.2537041108620578e-57 -1.1005706609393961e-56 0.0000000000000000e+00  3.1273305782361152e-58 -1.0212088119123544e-57 0.0000000000000000e+00  1.4391474492156616e-58 -5.025740