<?xml version="1.0"?>
<VTKFile type="UnstructuredGrid"  version="0.1"  >
<UnstructuredGrid>
<Piece  NumberOfPoints="11902" NumberOfCells="23402">
<Points>
<DataArray  type="Float64"  NumberOfComponents="3"  format="ascii">-5 -5 0  5 -5 0  5 5 0  -5 5 0  1.237476877751236 0.001382190325102846 0  -4.9 -5 0  -4.8 -5 0  -4.7 -5 0  -4.6 -5 0  -4.5 -5 0  -4.4 -5 0  -4.3 -5 0  -4.2 -5 0  -4.1 -5 0  -4 -5 0  -3.9 -5 0  -3.8 -5 0  -3.7 -5 0  -3.6 -5 0  -3.5 -5 0  -3.4 -5 0  -3.3 -5 0  -3.2 -5 0  -3.1 -5 0  -3 -5 0  -2.9 -5 0  -2.8 -5 0  -2.7 -5 0  -2.6 -5 0  -2.5 -5 0  -2.4 -5 0  -2.3 -5 0  -2.2 -5 0  -2.1 -5 0  -2 -5 0  -1.9 -5 0  -1.8 -5 0  -1.7 -5 0  -1.6 -5 0  -1.5 -5 0  -1.4 -5 0  -1.3 -5 0  -1.2 -5 0  -1.1 -5 0  -1 -5 0  -0.9000000000000004 -5 0  -0.7999999999999998 -5 0  -0.7000000000000002 -5 0  -0.5999999999999996 -5 0  -0.5 -5 0  -0.4000000000000004 -5 0  -0.2999999999999998 -5 0  -0.2000000000000002 -5 0  -0.09999999999999964 -5 0  0 -5 0  0.09999999999999964 -5 0  0.2000000000000002 -5 0  0.2999999999999998 -5 0  0.4000000000000004 -5 0  0.5 -5 0  0.5999999999999996 -5 0  0.7000000000000002 -5 0  0.7999999999999998 -5 0  0.9000000000000004 -5 0  1 -5 0  1.1 -5 0  1.2 -5 0  1.3 -5 0  1.4 -5 0  1.5 -5 0  1.6 -5 0  1.7 -5 0  1.8 -5 0  1.9 -5 0  2 -5 0  2.1 -5 0  2.2 -5 0  2.3 -5 0  2.4 -5 0  2.5 -5 0  2.6 -5 0  2.7 -5 0  2.8 -5 0  2.9 -5 0  3 -5 0  3.1 -5 0  3.199999999999999 -5 0  3.300000000000001 -5 0  3.4 -5 0  3.5 -5 0  3.6 -5 0  3.699999999999999 -5 0  3.800000000000001 -5 0  3.9 -5 0  4 -5 0  4.1 -5 0  4.199999999999999 -5 0  4.300000000000001 -5 0  4.4 -5 0  4.5 -5 0  4.6 -5 0  4.699999999999999 -5 0  4.800000000000001 -5 0  4.9 -5 0  5 -4.9 0  5 -4.8 0  5 -4.7 0  5 -4.6 0  5 -4.5 0  5 -4.4 0  5 -4.3 0  5 -4.2 0  5 -4.1 0  5 -4 0  5 -3.9 0  5 -3.8 0  5 -3.7 0  5 -3.6 0  5 -3.5 0  5 -3.4 0  5 -3.3 0  5 -3.2 0  5 -3.1 0  5 -3 0  5 -2.9 0  5 -2.8 0  5 -2.7 0  5 -2.6 0  5 -2.5 0  5 -2.4 0  5 -2.3 0  5 -2.2 0  5 -2.1 0  5 -2 0  5 -1.9 0  5 -1.8 0  5 -1.7 0  5 -1.6 0  5 -1.5 0  5 -1.4 0  5 -1.3 0  5 -1.2 0  5 -1.1 0  5 -1 0  5 -0.9000000000000004 0  5 -0.7999999999999998 0  5 -0.7000000000000002 0  5 -0.5999999999999996 0  5 -0.5 0  5 -0.4000000000000004 0  5 -0.2999999999999998 0  5 -0.2000000000000002 0  5 -0.09999999999999964 0  5 0 0  5 0.09999999999999964 0  5 0.2000000000000002 0  5 0.2999999999999998 0  5 0.4000000000000004 0  5 0.5 0  5 0.5999999999999996 0  5 0.7000000000000002 0  5 0.7999999999999998 0  5 0.9000000000000004 0  5 1 0  5 1.1 0  5 1.2 0  5 1.3 0  5 1.4 0  5 1.5 0  5 1.6 0  5 1.7 0  5 1.8 0  5 1.9 0  5 2 0  5 2.1 0  5 2.2 0  5 2.3 0  5 2.4 0  5 2.5 0  5 2.6 0  5 2.7 0  5 2.8 0  5 2.9 0  5 3 0  5 3.1 0  5 3.199999999999999 0  5 3.300000000000001 0  5 3.4 0  5 3.5 0  5 3.6 0  5 3.699999999999999 0  5 3.800000000000001 0  5 3.9 0  5 4 0  5 4.1 0  5 4.199999999999999 0  5 4.300000000000001 0  5 4.4 0  5 4.5 0  5 4.6 0  5 4.699999999999999 0  5 4.800000000000001 0  5 4.9 0  4.9 5 0  4.8 5 0  4.7 5 0  4.6 5 0  4.5 5 0  4.4 5 0  4.3 5 0  4.2 5 0  4.1 5 0  4 5 0  3.9 5 0  3.8 5 0  3.7 5 0  3.6 5 0  3.5 5 0  3.4 5 0  3.3 5 0  3.2 5 0  3.1 5 0  3 5 0  2.9 5 0  2.8 5 0  2.7 5 0  2.6 5 0  2.5 5 0  2.4 5 0  2.3 5 0  2.2 5 0  2.1 5 0  2 5 0  1.9 5 0  1.8 5 0  1.7 5 0  1.6 5 0  1.5 5 0  1.4 5 0  1.3 5 0  1.2 5 0  1.1 5 0  1 5 0  0.9000000000000004 5 0  0.7999999999999998 5 0  0.7000000000000002 5 0  0.5999999999999996 5 0  0.5 5 0  0.4000000000000004 5 0  0.2999999999999998 5 0  0.2000000000000002 5 0  0.09999999999999964 5 0  0 5 0  -0.09999999999999964 5 0  -0.2000000000000002 5 0  -0.2999999999999998 5 0  -0.4000000000000004 5 0  -0.5 5 0  -0.5999999999999996 5 0  -0.7000000000000002 5 0  -0.7999999999999998 5 0  -0.9000000000000004 5 0  -1 5 0  -1.1 5 0  -1.2 5 0  -1.3 5 0  -1.4 5 0  -1.5 5 0  -1.6 5 0  -1.7 5 0  -1.8 5 0  -1.9 5 0  -2 5 0  -2.1 5 0  -2.2 5 0  -2.3 5 0  -2.4 5 0  -2.5 5 0  -2.6 5 0  -2.7 5 0  -2.8 5 0  -2.9 5 0  -3 5 0  -3.1 5 0  -3.199999999999999 5 0  -3.300000000000001 5 0  -3.4 5 0  -3.5 5 0  -3.6 5 0  -3.699999999999999 5 0  -3.800000000000001 5 0  -3.9 5 0  -4 5 0  -4.1 5 0  -4.199999999999999 5 0  -4.300000000000001 5 0  -4.4 5 0  -4.5 5 0  -4.6 5 0  -4.699999999999999 5 0  -4.800000000000001 5 0  -4.9 5 0  -5 4.9 0  -5 4.8 0  -5 4.7 0  -5 4.6 0  -5 4.5 0  -5 4.4 0  -5 4.3 0  -5 4.2 0  -5 4.1 0  -5 4 0  -5 3.9 0  -5 3.8 0  -5 3.7 0  -5 3.6 0  -5 3.5 0  -5 3.4 0  -5 3.3 0  -5 3.2 0  -5 3.1 0  -5 3 0  -5 2.9 0  -5 2.8 0  -5 2.7 0  -5 2.6 0  -5 2.5 0  -5 2.4 0  -5 2.3 0  -5 2.2 0  -5 2.1 0  -5 2 0  -5 1.9 0  -5 1.8 0  -5 1.7 0  -5 1.6 0  -5 1.5 0  -5 1.4 0  -5 1.3 0  -5 1.2 0  -5 1.1 0  -5 1 0  -5 0.9000000000000004 0  -5 0.7999999999999998 0  -5 0.7000000000000002 0  -5 0.5999999999999996 0  -5 0.5 0  -5 0.4000000000000004 0  -5 0.2999999999999998 0  -5 0.2000000000000002 0  -5 0.09999999999999964 0  -5 0 0  -5 -0.09999999999999964 0  -5 -0.2000000000000002 0  -5 -0.2999999999999998 0  -5 -0.4000000000000004 0  -5 -0.5 0  -5 -0.5999999999999996 0  -5 -0.7000000000000002 0  -5 -0.7999999999999998 0  -5 -0.9000000000000004 0  -5 -1 0  -5 -1.1 0  -5 -1.2 0  -5 -1.3 0  -5 -1.4 0  -5 -1.5 0  -5 -1.6 0  -5 -1.7 0  -5 -1.8 0  -5 -1.9 0  -5 -2 0  -5 -2.1 0  -5 -2.2 0  -5 -2.3 0  -5 -2.4 0  -5 -2.5 0  -5 -2.6 0  -5 -2.7 0  -5 -2.8 0  -5 -2.9 0  -5 -3 0  -5 -3.1 0  -5 -3.199999999999999 0  -5 -3.300000000000001 0  -5 -3.4 0  -5 -3.5 0  -5 -3.6 0  -5 -3.699999999999999 0  -5 -3.800000000000001 0  -5 -3.9 0  -5 -4 0  -5 -4.1 0  -5 -4.199999999999999 0  -5 -4.300000000000001 0  -5 -4.4 0  -5 -4.5 0  -5 -4.6 0  -5 -4.699999999999999 0  -5 -4.800000000000001 0  -5 -4.9 0  1.230575499955356 0.09712562618350039 0  1.210342754954911 0.1944321665901001 0  1.177500745700923 0.2911320840567902 0  1.135273314821901 0.3811440079030803 0  1.079571106294984 0.4716449822063497 0  1.015133017668446 0.556456657930935 0  0.9389127547675032 0.6362100139074855 0  0.8538626961970316 0.7097479001465964 0  0.7625607368310422 0.7751118249013481 0  0.6614840891867184 0.8329517067597095 0  0.5527479129878432 0.8849343716009251 0  0.4415218428894646 0.9278350664519462 0  0.3287081378687012 0.960675225911987 0  0.2074367240296783 0.982521903014973 0  0.08941630519501245 0.9997752710861469 0  -0.02762500231476429 1.002764086266129 0  -0.1452611428219622 0.9906359588674318 0  -0.2684262376223054 0.9724032247543675 0  -0.3860154706140685 0.9472609645418131 0  -0.4967882348500575 0.9109059839636682 0  -0.6043535117721045 0.8647198955130163 0  -0.7060896597268317 0.8102357057918478 0  -0.8001651165167069 0.7461848137109952 0  -0.8892600904678084 0.6741619535282358 0  -0.9720306072418127 0.5953442810339014 0  -1.043739514191027 0.513826485730397 0  -1.104724570814223 0.4275914919873002 0  -1.15503208614668 0.3360154496679896 0  -1.192328067041825 0.2439078448917745 0  -1.216791464383189 0.1488837746201563 0  -1.228880839310555 0.05076335231322535 0  -1.228839960239424 -0.0486835827879002 0  -1.216664591325008 -0.1462551057686604 0  -1.192339633870653 -0.2408971290053329 0  -1.153426959105357 -0.336021574402973 0  -1.104953143545639 -0.4270087248466759 0  -1.04502739227871 -0.5133240072652456 0  -0.9740966390470276 -0.5942153741600579 0  -0.8919112990008705 -0.6717551854812696 0  -0.8029301439429624 -0.742347568848168 0  -0.7072345094852067 -0.8033333988595185 0  -0.6040881747653042 -0.85698072468338 0  -0.4930847087947139 -0.9054946990700737 0  -0.3808735612217996 -0.9443042958642635 0  -0.2651214410186902 -0.9716368207081638 0  -0.1439112014184785 -0.9900761417828301 0  -0.02789431209654811 -1.001871777263901 0  0.08970897084794449 -0.9957340926911941 0  0.2116547691054678 -0.9797121768099591 0  0.3309207846730628 -0.9590616665546078 0  0.4455025297209729 -0.9264692413055741 0  0.5548847457897987 -0.8840260527577483 0  0.6623344750676188 -0.832882404743558 0  0.7626249267976274 -0.7762759335688508 0  0.8539276073882729 -0.7106616307278952 0  0.9383211743460168 -0.6359580475219138 0  1.012981249082281 -0.5557809415693737 0  1.079553969115927 -0.4708033924124923 0  1.13622099046023 -0.3812220619292793 0  1.179146235783293 -0.2892408324157838 0  1.210827602695062 -0.19353932675185 0  1.230720800988144 -0.09671661679679523 0  -2.448633282645739 4.918245361863011 0  -2.44851393749463 -4.910635676264945 0  4.91056315149279 2.447994295712788 0  4.918676395168543 -2.449446776856811 0  2.446256431153305 -4.895891792251735 0  2.440686973352114 4.899649067317999 0  -4.910589147921047 -2.448019662897901 0  -4.910586675257917 2.448023535268117 0  -1.748590156627226 4.911192088846432 0  -1.74437366218802 -4.914626184572877 0  4.92077721250633 1.74415972728327 0  4.909331375046104 -1.747933907077974 0  -4.909623515002903 -1.747666751110985 0  -4.910444522572154 1.747410554637435 0  1.745867690722684 4.905061699402058 0  1.747290236305655 -4.893229500863328 0  -1.148886103570369 4.909013902079779 0  -1.129738098541615 -4.916912810053312 0  -4.909384805922902 -1.147977422125147 0  -4.909203740704642 1.147777756149205 0  1.143877957163296 -4.913105146608087 0  1.148895477902097 4.909001164202854 0  4.909526353979648 1.146253277009337 0  4.920334215754667 -1.152029409550617 0  -0.5466922189287317 -4.910221748890958 0  -0.5464725668151533 4.918887970818001 0  -4.908152511401731 -0.5487360833439912 0  -4.908176573026375 0.5472934362731283 0  4.907475524588587 -0.5490550149067048 0  4.919104835517896 0.5458085782352254 0  0.5424769112923319 -4.897128065785658 0  0.5512016960865745 4.915717644928546 0  -4.911972099762075 -3.048360821363572 0  4.918537762074496 3.04637261090169 0  4.91148073313634 -3.048337568411448 0  -4.91281946684048 3.045451835601176 0  3.055351497610259 -4.917465013110376 0  -3.048686177777462 -4.911406312410358 0  3.052252238850014 4.913482656646043 0  -3.048131415103691 4.912295430870051 0  -4.907273754026107 -0.04991047881229978 0  0.04512131066386271 -4.912173541101151 0  0.04956911770869317 4.919185938545123 0  4.914313664576683 -0.05129238611160621 0  3.545659378294057 -4.919084239653377 0  -3.548943349590257 4.9
[...]
<PointData  Vectors="f_3390"> 
<DataArray  type="Float64"  Name="f_3390"  NumberOfComponents="3" format="ascii">2.6559658580600132e-76 2.6559658580600132e-76 0.0000000000000000e+00  -2.8445085011138705e-76 2.8445085011138705e-76 0.0000000000000000e+00  -8.5659604779147412e-78 -8.5659604779147412e-78 0.0000000000000000e+00  3.0308186857311281e-76 -3.0308186857311281e-76 0.0000000000000000e+00  -2.6499721137659343e-01 -4.9774392267696666e-03 0.0000000000000000e+00  4.1657375678924557e-75 6.6064052262305373e-75 0.0000000000000000e+00  2.0825727581903185e-75 2.0879804467801209e-74 0.0000000000000000e+00  -3.4053135053728163e-75 6.7710823602162052e-75 0.0000000000000000e+00  3.9996079532726962e-72 6.6685983545600360e-72 0.0000000000000000e+00  5.3161716726482345e-71 1.3458913215281849e-70 0.0000000000000000e+00  -7.9178926703843219e-72 4.5550560835265418e-71 0.0000000000000000e+00  3.2334933369454621e-69 6.1631325300063794e-69 0.0000000000000000e+00  5.1598405133730083e-68 9.4003270411308424e-68 0.0000000000000000e+00  -3.0634028799999720e-68 1.4999359458670885e-67 0.0000000000000000e+00  1.2763319455332764e-67 3.9821268064130950e-67 0.0000000000000000e+00  1.2652336519469637e-68 8.7789422391216759e-67 0.0000000000000000e+00  5.4492120557452991e-64 8.8253828397846331e-64 0.0000000000000000e+00  4.7479392504156302e-65 2.4418492586961603e-63 0.0000000000000000e+00  1.3484110948562225e-62 2.1996950584989277e-62 0.0000000000000000e+00  8.0632288771632572e-63 8.3184420461361724e-62 0.0000000000000000e+00  6.9266820269708181e-61 1.1026989068980084e-60 0.0000000000000000e+00  4.0593014965237194e-60 7.0092270543304608e-60 0.0000000000000000e+00  -2.8446385831344242e-60 7.6971225427172547e-60 0.0000000000000000e+00  5.6574240788947200e-59 1.1371835668724345e-58 0.0000000000000000e+00  -1.7570967383211916e-59 1.1645118336885511e-58 0.0000000000000000e+00  -3.0001109463992615e-59 6.8361612500019529e-59 0.0000000000000000e+00  1.8002209652851595e-58 3.3056479982780242e-58 0.0000000000000000e+00  7.2903490599029212e-58 2.0900067202310845e-57 0.0000000000000000e+00  2.8568205642711754e-57 6.2352571215221215e-57 0.0000000000000000e+00  -3.4024000842148990e-57 5.7351996405236523e-57 0.0000000000000000e+00  -3.5171071470083001e-58 1.0974954264248826e-57 0.0000000000000000e+00  1.9056080438219872e-56 2.9335945333547687e-56 0.0000000000000000e+00  -1.4110901363600928e-56 3.5296831406058006e-56 0.0000000000000000e+00  1.1893171759311977e-56 2.8944372001866381e-56 0.0000000000000000e+00  8.7222913647625992e-56 2.0982903127451009e-55 0.0000000000000000e+00  -2.5033907159799623e-56 5.7432496051423743e-55 0.0000000000000000e+00  5.1999709037140897e-57 8.6166101639937794e-57 0.0000000000000000e+00  5.5334868709339192e-56 1.3821234150969060e-55 0.0000000000000000e+00  1.5457749688413390e-55 6.1707026318182037e-55 0.0000000000000000e+00  -2.2312549032195109e-55 3.5148041882295616e-55 0.0000000000000000e+00  9.8141206732208225e-55 1.7235823762386825e-54 0.0000000000000000e+00  -4.4085527440160864e-55 4.3612670358190287e-54 0.0000000000000000e+00  -2.2764606655471155e-55 2.6819207714495247e-54 0.0000000000000000e+00  -9.5927204161446036e-56 9.4392653613498966e-55 0.0000000000000000e+00  -1.1282366818227458e-55 1.8216010725126964e-55 0.0000000000000000e+00  2.7529653119758762e-54 5.2346249234765486e-54 0.0000000000000000e+00  -2.1542890918632223e-54 4.1381908098381882e-54 0.0000000000000000e+00  -7.1732424211336634e-55 8.0783408331580948e-55 0.0000000000000000e+00  -1.3169369950015934e-55 2.7128145310690475e-55 0.0000000000000000e+00  9.2783192849402114e-55 1.4453697295321359e-54 0.0000000000000000e+00  9.4300538237410226e-55 6.1547424809427784e-54 0.0000000000000000e+00  -1.1254185122988153e-54 5.8987749786759460e-54 0.0000000000000000e+00  5.1332055936979741e-55 4.6481934817589952e-54 0.0000000000000000e+00  1.9047318538980667e-56 5.7930717677170768e-54 0.0000000000000000e+00  3.0092851850448878e-55 6.1512343477781762e-54 0.0000000000000000e+00  -1.2581993399171932e-54 2.0442190022975629e-54 0.0000000000000000e+00  -6.4388232942090363e-55 1.4723770323658371e-53 0.0000000000000000e+00  4.4517425439741963e-54 7.4685834650671563e-54 0.0000000000000000e+00  -4.3357340101720652e-54 8.0966442392662337e-54 0.0000000000000000e+00  1.9168503880311813e-54 3.9564949692288524e-54 0.0000000000000000e+00  -7.3441464297589217e-55 9.4990920810551982e-54 0.0000000000000000e+00  1.3276599538449662e-54 9.3285861276115704e-54 0.0000000000000000e+00  -1.6807696069251355e-54 4.3969366910699301e-54 0.0000000000000000e+00  -9.2287217970675457e-55 2.4050719771750605e-54 0.0000000000000000e+00  3.3235089600629890e-55 1.2995139662998298e-54 0.0000000000000000e+00  2.6505950500526321e-55 2.5375369822857363e-54 0.0000000000000000e+00  -7.8218795917450550e-56 3.4899036089425337e-54 0.0000000000000000e+00  -7.0980871597817439e-55 1.4817838948348371e-54 0.0000000000000000e+00  2.3729793043945621e-55 4.4251458717036607e-55 0.0000000000000000e+00  -2.3052859364735040e-55 6.0243488347274336e-55 0.0000000000000000e+00  5.0235061473852752e-56 2.3978423673124994e-55 0.0000000000000000e+00  1.8627893495740025e-55 9.5234578617651242e-55 0.0000000000000000e+00  -3.2979005808664146e-55 5.3030175659376277e-55 0.0000000000000000e+00  -1.5882709229716774e-56 4.8225784369504151e-56 0.0000000000000000e+00  -1.1334040280699428e-57 1.1333281586265748e-56 0.0000000000000000e+00  6.7424881825869479e-57 2.3549202181130890e-56 0.0000000000000000e+00  -8.9794596907378743e-57 1.5022313974996549e-56 0.0000000000000000e+00  1.7392211247278135e-57 2.8866879303710914e-57 0.0000000000000000e+00  -1.2425014016799091e-57 2.7245334197115534e-57 0.0000000000000000e+00  5.1691413682308461e-57 7.8081369932593127e-57 0.0000000000000000e+00  -4.5272818305555867e-57 1.1251265413131333e-56 0.0000000000000000e+00  -1.8113940811713715e-58 9.3951893938752850e-58 0.0000000000000000e+00  -2.3891267906757148e-58 4.6526462032886413e-58 0.0000000000000000e+00  -7.8680509717610991e-61 8.8103423869222026e-59 0.0000000000000000e+00  -2.4429333525886947e-59 6.4229520337725590e-59 0.0000000000000000e+00  -7.1072694206820754e-60 2.4997837555835238e-59 0.0000000000000000e+00  -4.3804155456040060e-60 2.2386696843325552e-59 0.0000000000000000e+00  -3.0595685128150495e-60 7.1682339109033491e-60 0.0000000000000000e+00  -8.5143272056141336e-62 4.4352510264859070e-61 0.0000000000000000e+00  -1.0747652336284033e-61 2.2341512905511840e-61 0.0000000000000000e+00  -3.5838803210273329e-62 5.6747350459215333e-62 0.0000000000000000e+00  -3.9064155892095457e-64 6.6982685577304790e-64 0.0000000000000000e+00  -2.4292411381449537e-65 5.1710888961002889e-65 0.0000000000000000e+00  3.7050499783663726e-66 1.0386110478396567e-65 0.0000000000000000e+00  -4.8390886795612246e-66 9.2623030310193823e-66 0.0000000000000000e+00  -6.6954386352564320e-68 2.7711821791183366e-67 0.0000000000000000e+00  -7.8491092938425309e-68 1.2918775843127162e-67 0.0000000000000000e+00  -8.0571640007456298e-69 1.1733115503030674e-68 0.0000000000000000e+00  -5.6311469655360801e-70 9.5209422593153314e-70 0.0000000000000000e+00  -3.7782688170630401e-71 6.8190083010596953e-71 0.0000000000000000e+00  -1.8779812462597965e-72 3.2028598663876160e-72 0.0000000000000000e+00  -1.2175741976011009e-73 2.7268019663885678e-73 0.0000000000000000e+00  -4.4205971672266684e-75 1.2911792341948353e-74 0.0000000000000000e+00  -2.5479696779451693e-75 4.2412776365397847e-75 0.0000000000000000e+00  -9.7690572018808291e-76 3.5581774718159748e-76 0.0000000000000000e+00  -1.6210799349183437e-75 -2.3920286225903711e-76 0.0000000000000000e+00  -2.4490179882331555e-74 1.1589955875768182e-74 0.0000000000000000e+00  -3.6791573194298736e-74 1.5501880811337736e-75 0.0000000000000000e+00  -3.8832344147984532e-73 1.4333219758571281e-73 0.0000000000000000e+00  -1.0238514542027539e-71 6.2375504237043172e-72 0.0000000000000000e+00  -6.7414203909614028e-71 3.7078353409360865e-71 0.0000000000000000e+00  -1.0610468944061016e-70 3.9025392125926639e-72 0.0000000000000000e+00  -8.9010965006827699e-70 3.3085511398056312e-70 0.0000000000000000e+00  -2.1288911577775333e-68 1.2863003002609599e-68 0.0000000000000000e+00  -1.0238550995296384e-67 5.1095772963716396e-68 0.0000000000000000e+00  -1.0134061065173327e-67 -6.0252534321166674e-68 0.0000000000000000e+00  -3.1662078334656806e-66 1.7458449940443783e-66 0.0000000000000000e+00  -3.1857257370845045e-65 1.8314717760814903e-65 0.0000000000000000e+00  -5.3860639494932959e-65 5.0450591727357619e-66 0.0000000000000000e+00  -4.4370553626734910e-64 1.4462432618158147e-64 0.0000000000000000e+00  -6.9946005246762304e-63 4.3580646880709251e-63 0.0000000000000000e+00  -1.5065895963960018e-62 3.7475466957929757e-63 0.0000000000000000e+00  -8.4340885129986747e-62 1.9660212349364655e-62 0.0000000000000000e+00  -1.3552764819035843e-60 8.5152929401489917e-61 0.0000000000000000e+00  -2.4170521221437908e-60 3.3806701717970199e-61 0.0000000000000000e+00  -2.1172953937223264e-59 7.3947530792690529e-60 0.0000000000000000e+00  -2.4177625415591659e-58 1.4937801450287102e-58 0.0000000000000000e+00  -2.5871157046188788e-58 -9.4123442106221400e-59 0.0000000000000000e+00  -5.9795557864080020e-57 2.7798398467987528e-57 0.0000000000000000e+00  -2.4842214716280599e-56 1.2381613176728977e-56 0.0000000000000000e+00  -5.5628466775640870e-56 -8.6756143805362985e-57 0.0000000000000000e+00  -1.0116952332387785e-54 6.4733467255803110e-55 0.0000000000000000e+00  -1.1203695436064988e-54 -3.4599438023109171e-55 0.0000000000000000e+00  -2.4088449545331943e-53 1.2677612079563700e-53 0.0000000000000000e+00  -6.5953565780900707e-53 2.9847913272943891e-53 0.0000000000000000e+00  -4.3574537581379836e-52 1.2225890813391908e-52 0.0000000000000000e+00  -2.6671210655364266e-51 1.6601584143152528e-51 0.0000000000000000e+00  -7.6657297471056516e-51 -2.1358811568142073e-52 0.0000000000000000e+00  -7.2005278301280016e-50 4.5876561935395887e-50 0.0000000000000000e+00  -1.6170988043122168e-49 -1.4739933504428643e-50 0.0000000000000000e+00  -1.7303861470917829e-48 1.0077303949726627e-48 0.0000000000000000e+00  -4.3410483163916525e-48 -2.0336170565371503e-49 0.0000000000000000e+00  -2.0146723995757077e-47 1.1068601047634706e-47 0.0000000000000000e+00  -1.1029251245839931e-46 1.8908231265507917e-47 0.0000000000000000e+00  -1.0249404204154384e-46 2.4528931313147919e-47 0.0000000000000000e+00  -1.2411227044405343e-45 5.2373356593238239e-46 0.0000000000000000e+00  -8.7336630515076527e-46 -5.6606362960041820e-46 0.0000000000000000e+00  -1.3436064839568083e-44 8.0444062204663013e-45 0.0000000000000000e+00  -5.7969067333748541e-44 1.3692660165451590e-44 0.0000000000000000e+00  -3.6146304168759947e-44 -1.7452927951884140e-44 0.0000000000000000e+00  -1.1428322316619228e-43 6.4779934862730807e-44 0.0000000000000000e+00  -8.4141296500674571e-43 2.3079313815648031e-43 0.0000000000000000e+00  -1.9292574434683639e-42 1.9685057703088540e-43 0.0000000000000000e+00  -2.5118551804792493e-42 6.0827354004012209e-44 0.0000000000000000e+00  -2.0146331952631324e-42 -1.9410806679147086e-43 0.0000000000000000e+00  -8.6148508289769216e-43 -2.4968677993679625e-43 0.0000000000000000e+00  -1.1327928205709276e-43 -6.4243747174703499e-44 0.0000000000000000e+00  -3.8705583301202817e-44 1.8438460547185135e-44 0.0000000000000000e+00  -6.3175925256436115e-44 -1.0786355903125345e-44 0.0000000000000000e+00  -1.4995582189189309e-44 -7.8410165182999669e-45 0.0000000000000000e+00  -9.9839364505988338e-46 5.6532657347233321e-46 0.0000000000000000e+00  -1.4045052676448507e-45 -5.3690249104983546e-46 0.0000000000000000e+00  -1.1211292151469957e-46 -2.8462329663936686e-47 0.0000000000000000e+00  -1.0184093691951959e-46 -2.1357183335911534e-47 0.0000000000000000e+00  -1.8624288039316154e-47 -1.1935661691202394e-47 0.0000000000000000e+00  -4.0854754799269460e-48 2.0248875412609440e-49 0.0000000000000000e+00  -1.4880522950464145e-48 -9.3309816667176676e-49 0.0000000000000000e+00  -1.6328779243411084e-49 2.4472696192406669e-50 0.0000000000000000e+00  -7.4641832145044368e-50 -4.4074000463897830e-50 0.0000000000000000e+00  -8.2453944648962249e-51 6.3852452639151405e-52 0.0000000000000000e+00  -3.1481589919102978e-51 -1.7784181132552738e-51 0.0000000000000000e+00  -5.1046615283532680e-52 -1.1435313462279648e-52 0.0000000000000000e+00  -8.2114308918545702e-53 -3.5373085014609375e-53 0.0000000000000000e+00  -2.6639001267217941e-53 -1.3122705295161448e-53 0.0000000000000000e+00  -1.1966995074970303e-54 3.2311261477573221e-55 0.0000000000000000e+00  -1.0647251319910059e-54 -6.7887097553075883e-55 0.0000000000000000e+00  -5.1511151898652298e-56 8.3286298218840027e-57 0.0000000000000000e+00  -2.3385130136790871e-56 -1.3209168861747691e-56 0.0000000000000000e+00  -4.8274337925896953e-57 -2.5161403152326623e-57 0.0000000000000000e+00  -2.4574942604877296e-58 8.5288635553178904e-59 0.0000000000000000e+00  -2.1600901837141999e-58 -1.3260421674971292e-58 0.0000000000000000e+00  -1.9918493152606734e-59 -6.1357582403513783e-60 0.0000000000000000e+00  -2.3753533486401136e-60 -3.3901518071013282e-61 0.0000000000000000e+00  -1.2917807028488532e-60 -7.5965781377851181e-61 0.0000000000000000e+00  -7.6931653802447727e-62 -2.1408409436296384e-62 0.0000000000000000e+00  -1.3597105978129413e-62 -2.9263240670457394e-63 0.0000000000000000e+00  -6.6432020110320745e-63 -3.7835852733183255e-63 0.0000000000000000e+00  -4.7848312230254263e-64 -1.8175877839171612e-64 0.0000000000000000e+00  -4.3637680381702306e-65 9.5701604390685577e-67 0.0000000000000000e+00  -2.9496115459900103e-65 -1.6604655986474227e-65 0.0000000000000000e+00  -3.4148200743754504e-66 -1.9869939366902928e-66 0.0000000000000000e+00  -8.9910949716047346e-68 5.4760652947407234e-68 0.0000000000000000e+00  -8.6394877374098217e-68 -4.1745159377379951e-68 0.0000000000000000e+00  -2.0689902703723858e-68 -1.2841640257148805e-68 0.0000000000000000e+00  -1.1329145729449791e-69 -5.1308854202614221e-70 0.0000000000000000e+00  -8.7936968230593555e-71 1.3782253650150693e-71 0.0000000000000000e+00  -6.9097948311715007e-71 -3.6556296816583301e-71 0.0000000000000000e+00  -1.2481885151898055e-71 -7.6595972329706768e-72 0.0000000000000000e+00  -5.9827083042443681e-73 -2.7503688981082509e-73 0.0000000000000000e+00  -3.9235550838416312e-74 7.4216856907759971e-75 0.0000000000000000e+00  -3.1568171808378873e-74 -1.4787696432291881e-74 0.0000000000000000e+00  -6.5910008061722892e-75 -3.3567518100053738e-75 0.0000000000000000e+00  -7.1800022395707933e-76 -3.1070625252018786e-76 0.0000000000000000e+00  -8.5515362606042089e-76 -1.6228814443173500e-75 0.0000000000000000e+00  -4.7732956410442881e-75 -1.3946148191215996e-74 0.0000000000000000e+00  4.3661505200114229e-75 -8.3080305988478906e-75 0.0000000000000000e+00  -1.6290800468586514e-73 -3.4275221457214669e-73 0.0000000000000000e+00  -9.2828511399566836e-71 -1.0071852723843506e-70 0.0000000000000000e+00  -7.5040036882395143e-70 -1.3179405113453660e-69 0.0000000000000000e+00  -1.0980250128431169e-69 -3.6516149971124726e-69 0.0000000000000000e+00  -7.7577585250674215e-68 -1.7117038241507879e-67 0.0000000000000000e+00  -6.5278408106036687e-68 -3.2602283181022874e-67 0.0000000000000000e+00  -6.7863272344760833e-66 -1.3503655584072158e-65 0.0000000000000000e+00  -4.5170809782731115e-66 -2.1318618224220651e-65 0.0000000000000000e+00  -9.0636528672046276e-65 -1.5580448299535388e-64 0.0000000000000000e+00  1.7207318422755123e-65 -2.1034647664462594e-64 0.0000000000000000e+00  -4.2725219381871714e-62 -6.4049676848954503e-62 0.0000000000000000e+00  -6.9928765502300718e-62 -1.7211466776646278e-61 0.0000000000000000e+00  -2.3239623588818118e-62 -2.7287873005395526e-61 0.0000000000000000e+00  -5.7351961876785519e-60 -1.1366361587040285e-59 0.0000000000000000e+00  4.7629217619461543e-60 -1.5016902703313259e-59 0.0000000000000000e+00  -2.8980740238199788e-59 -4.7509499121967612e-59 0.0000000000000000e+00  8.8121195779849412e-60 -6.0854856312683277e-59 0.0000000000000000e+00  2.3228985122372137e-59 -3.9702011955370082e-59 0.0000000000000000e+00  -5.6318331939463914e-58 -8.9516371363729636e-58 0.0000000000000000e+00  -1.3786675285724415e-59 -1.2602488436158314e-57 0.0000000000000000e+00  -4.6285801418051640e-57 -1.1641131868979296e-56 0.0000000000000000e+00  5.7422972066723981e-57 -8.6699047819146728e-57 0.0000000000000000e+00  -5.3272998441924384e-57 -7.3421220501888449e-57 0.0000000000000000e+00  -1.7648729331052833e-56 -3.7747421255087907e-56 0.0000000000000000e+00  2.1589390104561515e-56 -4.0695669037348379e-56 0.0000000000000000e+00  -4.9959318512396288e-57 -9.2044304903453837e-57 0.0000000000000000e+00  -8.1074114286649215e-56 -2.0316267726914608e-55 0.0000000000000000e+00  6.3632294369644183e-56 -5.0765311673885600e-55 0.0000000000000000e+00  -4.2836607514296763e-55 -7.2609963328971869e-55 0.0000000000000000e+00  -4.8770407319235951e-56 -1.8357908305279929e-54 0.0000000000000000e+00  1.6578593675138306e-55 -5.7386297588772494e-55 0.0000000000000000e+00  -5.1750585861333661e-55 -1.6763323635977364e-54 0.0000000000000000e+00  -2.2504416280834109e-54 -7.0733181249403388e-54 0.0000000000000000e+00  2.5782351799391169e-54 -6.0751510995600216e-54 0.0000000000000000e+00  -6.7103524552116941e-55 -2.3901560923371806e-54 0.0000000000000000e+00  5.3162458230113936e-55 -2.8188353244727199e-54 0.0000000000000000e+00  1.2800425834312496e-55 -1.4247528413643387e-54 0.0000000000000000e+00  -2.1767949114473319e-54 -3.4677716171281994e-54 0.0000000000000000e+00  5.7018751856966063e-55 -8.2269628677843219e-54 0.0000000000000000e+00  -3.9242625239215229e-54 -1.3559659107384910e-53 0.0000000000000000e+00  4.6845957215736964e-54 -7.7130378800520849e-54 0.0000000000000000e+00  2.0282874678068579e-55 -6.5055765094972858e-55 0.0000000000000000e+00  -4.7933502994037137e-54 -8.0101807322401682e-54 0.0000000000000000e+00  4.8190287144539592e-54 -7.8688937657572328e-54 0.0000000000000000e+00  -1.6591933460942045e-56 -1.3350093057208571e-55 0.0000000000000000e+00  1.1134864373801750e-56 -2.7680995082949334e-55 0.0000000000000000e+00  2.2033184683756082e-56 -9.8796759589808603e-56 0.0000000000000000e+00  -5.1961633435418407e-54 -9.3535248589585002e-54 0.0000000000000000e+00  5.5422411200305299e-54 -9.4086670283675767e-54 0.0000000000000000e+00  5.6663280703635102e-56 -1.0519853406487656e-55 0.0000000000000000e+00  -1.4307634831839158e-56 -6.2045341106338027e-56 0.0000000000000000e+00  -4.9918971560946384e-55 -9.0450912997526363e-55 0.0000000000000000e+00  -5.8063198393189267e-54 -1.0043871636070480e-53 0.0000000000000000e+00  4.4973899803021846e-54 -1.0493664568778285e-53 0.0000000000000000e+00  -3.0482993536846758e-54 -7.9839644553796099e-54 0.0000000000000000e+00  2.4356355220396219e-54 -8.5511083431419824e-54 0.0000000000000000e+00  2.2435217806454133e-54 -3.3074729763480165e-54 0.0000000000000000e+00  -5.4300804180048875e-55 -1.4795291605880959e-54 0.0000000000000000e+00  8.3468069089223649e-55 -1.5743999655305788e-54 0.0000000000000000e+00  -4.9175110514953252e-55 -9.8292242808804902e-55 0.0000000000000000e+00  5.1191868703098693e-55 -8.8587207600451122e-55 0.0000000000000000e+00  -1.5648316144338634e-56 -2.6909183590246157e-56 0.0000000000000000e+00  -4.4715395576323994e-56 -1.7215036005993629e-55 0.0000000000000000e+00  4.1683147743450807e-56 -1.7471227946306135e-55 0.0000000000000000e+00  4.7986126312228839e-57 -6.9034533838450729e-56 0.0000000000000000e+00  -2.7457334839652694e-56 -6.5405350185642823e-56 0.0000000000000000e+00  3.2846038078035276e-56 -6.4163092313879376e-56 0.0000000000000000e+00  -2.8557884907649228e-57 -2.8731245575944667e-56 0.0000000000000000e+00  1.2947762476421643e-56 -3.0030653084499919e-56 0.0000000000000000e+00  1.0014855303047023e-57 -2.3998553901910633e-57 0.0000000000000000e+00  -4.3783634360321339e-57 -7.6357025803010321e-57 0.0000000000000000e+00  4.2461204930013571e-57 -1.1010119018664995e-56 0.0000000000000000e+00  3.1217826506671527e-58 -1.0215321196340521e-57 0.0000000000000000e+00  1.4367283868187250e-58 -5.0272