<?xml version="1.0"?>
<VTKFile type="UnstructuredGrid"  version="0.1"  >
<UnstructuredGrid>
<Piece  NumberOfPoints="11902" NumberOfCells="23402">
<Points>
<DataArray  type="Float64"  NumberOfComponents="3"  format="ascii">-5 -5 0  5 -5 0  5 5 0  -5 5 0  1.093139592288615 0.0006203329760325213 0  -4.9 -5 0  -4.8 -5 0  -4.7 -5 0  -4.6 -5 0  -4.5 -5 0  -4.4 -5 0  -4.3 -5 0  -4.2 -5 0  -4.1 -5 0  -4 -5 0  -3.9 -5 0  -3.8 -5 0  -3.7 -5 0  -3.6 -5 0  -3.5 -5 0  -3.4 -5 0  -3.3 -5 0  -3.2 -5 0  -3.1 -5 0  -3 -5 0  -2.9 -5 0  -2.8 -5 0  -2.7 -5 0  -2.6 -5 0  -2.5 -5 0  -2.4 -5 0  -2.3 -5 0  -2.2 -5 0  -2.1 -5 0  -2 -5 0  -1.9 -5 0  -1.8 -5 0  -1.7 -5 0  -1.6 -5 0  -1.5 -5 0  -1.4 -5 0  -1.3 -5 0  -1.2 -5 0  -1.1 -5 0  -1 -5 0  -0.9000000000000004 -5 0  -0.7999999999999998 -5 0  -0.7000000000000002 -5 0  -0.5999999999999996 -5 0  -0.5 -5 0  -0.4000000000000004 -5 0  -0.2999999999999998 -5 0  -0.2000000000000002 -5 0  -0.09999999999999964 -5 0  0 -5 0  0.09999999999999964 -5 0  0.2000000000000002 -5 0  0.2999999999999998 -5 0  0.4000000000000004 -5 0  0.5 -5 0  0.5999999999999996 -5 0  0.7000000000000002 -5 0  0.7999999999999998 -5 0  0.9000000000000004 -5 0  1 -5 0  1.1 -5 0  1.2 -5 0  1.3 -5 0  1.4 -5 0  1.5 -5 0  1.6 -5 0  1.7 -5 0  1.8 -5 0  1.9 -5 0  2 -5 0  2.1 -5 0  2.2 -5 0  2.3 -5 0  2.4 -5 0  2.5 -5 0  2.6 -5 0  2.7 -5 0  2.8 -5 0  2.9 -5 0  3 -5 0  3.1 -5 0  3.199999999999999 -5 0  3.300000000000001 -5 0  3.4 -5 0  3.5 -5 0  3.6 -5 0  3.699999999999999 -5 0  3.800000000000001 -5 0  3.9 -5 0  4 -5 0  4.1 -5 0  4.199999999999999 -5 0  4.300000000000001 -5 0  4.4 -5 0  4.5 -5 0  4.6 -5 0  4.699999999999999 -5 0  4.800000000000001 -5 0  4.9 -5 0  5 -4.9 0  5 -4.8 0  5 -4.7 0  5 -4.6 0  5 -4.5 0  5 -4.4 0  5 -4.3 0  5 -4.2 0  5 -4.1 0  5 -4 0  5 -3.9 0  5 -3.8 0  5 -3.7 0  5 -3.6 0  5 -3.5 0  5 -3.4 0  5 -3.3 0  5 -3.2 0  5 -3.1 0  5 -3 0  5 -2.9 0  5 -2.8 0  5 -2.7 0  5 -2.6 0  5 -2.5 0  5 -2.4 0  5 -2.3 0  5 -2.2 0  5 -2.1 0  5 -2 0  5 -1.9 0  5 -1.8 0  5 -1.7 0  5 -1.6 0  5 -1.5 0  5 -1.4 0  5 -1.3 0  5 -1.2 0  5 -1.1 0  5 -1 0  5 -0.9000000000000004 0  5 -0.7999999999999998 0  5 -0.7000000000000002 0  5 -0.5999999999999996 0  5 -0.5 0  5 -0.4000000000000004 0  5 -0.2999999999999998 0  5 -0.2000000000000002 0  5 -0.09999999999999964 0  5 0 0  5 0.09999999999999964 0  5 0.2000000000000002 0  5 0.2999999999999998 0  5 0.4000000000000004 0  5 0.5 0  5 0.5999999999999996 0  5 0.7000000000000002 0  5 0.7999999999999998 0  5 0.9000000000000004 0  5 1 0  5 1.1 0  5 1.2 0  5 1.3 0  5 1.4 0  5 1.5 0  5 1.6 0  5 1.7 0  5 1.8 0  5 1.9 0  5 2 0  5 2.1 0  5 2.2 0  5 2.3 0  5 2.4 0  5 2.5 0  5 2.6 0  5 2.7 0  5 2.8 0  5 2.9 0  5 3 0  5 3.1 0  5 3.199999999999999 0  5 3.300000000000001 0  5 3.4 0  5 3.5 0  5 3.6 0  5 3.699999999999999 0  5 3.800000000000001 0  5 3.9 0  5 4 0  5 4.1 0  5 4.199999999999999 0  5 4.300000000000001 0  5 4.4 0  5 4.5 0  5 4.6 0  5 4.699999999999999 0  5 4.800000000000001 0  5 4.9 0  4.9 5 0  4.8 5 0  4.7 5 0  4.6 5 0  4.5 5 0  4.4 5 0  4.3 5 0  4.2 5 0  4.1 5 0  4 5 0  3.9 5 0  3.8 5 0  3.7 5 0  3.6 5 0  3.5 5 0  3.4 5 0  3.3 5 0  3.2 5 0  3.1 5 0  3 5 0  2.9 5 0  2.8 5 0  2.7 5 0  2.6 5 0  2.5 5 0  2.4 5 0  2.3 5 0  2.2 5 0  2.1 5 0  2 5 0  1.9 5 0  1.8 5 0  1.7 5 0  1.6 5 0  1.5 5 0  1.4 5 0  1.3 5 0  1.2 5 0  1.1 5 0  1 5 0  0.9000000000000004 5 0  0.7999999999999998 5 0  0.7000000000000002 5 0  0.5999999999999996 5 0  0.5 5 0  0.4000000000000004 5 0  0.2999999999999998 5 0  0.2000000000000002 5 0  0.09999999999999964 5 0  0 5 0  -0.09999999999999964 5 0  -0.2000000000000002 5 0  -0.2999999999999998 5 0  -0.4000000000000004 5 0  -0.5 5 0  -0.5999999999999996 5 0  -0.7000000000000002 5 0  -0.7999999999999998 5 0  -0.9000000000000004 5 0  -1 5 0  -1.1 5 0  -1.2 5 0  -1.3 5 0  -1.4 5 0  -1.5 5 0  -1.6 5 0  -1.7 5 0  -1.8 5 0  -1.9 5 0  -2 5 0  -2.1 5 0  -2.2 5 0  -2.3 5 0  -2.4 5 0  -2.5 5 0  -2.6 5 0  -2.7 5 0  -2.8 5 0  -2.9 5 0  -3 5 0  -3.1 5 0  -3.199999999999999 5 0  -3.300000000000001 5 0  -3.4 5 0  -3.5 5 0  -3.6 5 0  -3.699999999999999 5 0  -3.800000000000001 5 0  -3.9 5 0  -4 5 0  -4.1 5 0  -4.199999999999999 5 0  -4.300000000000001 5 0  -4.4 5 0  -4.5 5 0  -4.6 5 0  -4.699999999999999 5 0  -4.800000000000001 5 0  -4.9 5 0  -5 4.9 0  -5 4.8 0  -5 4.7 0  -5 4.6 0  -5 4.5 0  -5 4.4 0  -5 4.3 0  -5 4.2 0  -5 4.1 0  -5 4 0  -5 3.9 0  -5 3.8 0  -5 3.7 0  -5 3.6 0  -5 3.5 0  -5 3.4 0  -5 3.3 0  -5 3.2 0  -5 3.1 0  -5 3 0  -5 2.9 0  -5 2.8 0  -5 2.7 0  -5 2.6 0  -5 2.5 0  -5 2.4 0  -5 2.3 0  -5 2.2 0  -5 2.1 0  -5 2 0  -5 1.9 0  -5 1.8 0  -5 1.7 0  -5 1.6 0  -5 1.5 0  -5 1.4 0  -5 1.3 0  -5 1.2 0  -5 1.1 0  -5 1 0  -5 0.9000000000000004 0  -5 0.7999999999999998 0  -5 0.7000000000000002 0  -5 0.5999999999999996 0  -5 0.5 0  -5 0.4000000000000004 0  -5 0.2999999999999998 0  -5 0.2000000000000002 0  -5 0.09999999999999964 0  -5 0 0  -5 -0.09999999999999964 0  -5 -0.2000000000000002 0  -5 -0.2999999999999998 0  -5 -0.4000000000000004 0  -5 -0.5 0  -5 -0.5999999999999996 0  -5 -0.7000000000000002 0  -5 -0.7999999999999998 0  -5 -0.9000000000000004 0  -5 -1 0  -5 -1.1 0  -5 -1.2 0  -5 -1.3 0  -5 -1.4 0  -5 -1.5 0  -5 -1.6 0  -5 -1.7 0  -5 -1.8 0  -5 -1.9 0  -5 -2 0  -5 -2.1 0  -5 -2.2 0  -5 -2.3 0  -5 -2.4 0  -5 -2.5 0  -5 -2.6 0  -5 -2.7 0  -5 -2.8 0  -5 -2.9 0  -5 -3 0  -5 -3.1 0  -5 -3.199999999999999 0  -5 -3.300000000000001 0  -5 -3.4 0  -5 -3.5 0  -5 -3.6 0  -5 -3.699999999999999 0  -5 -3.800000000000001 0  -5 -3.9 0  -5 -4 0  -5 -4.1 0  -5 -4.199999999999999 0  -5 -4.300000000000001 0  -5 -4.4 0  -5 -4.5 0  -5 -4.6 0  -5 -4.699999999999999 0  -5 -4.800000000000001 0  -5 -4.9 0  1.087824812887748 0.1004056233402572 0  1.071395337623339 0.1997186386708339 0  1.043727548845172 0.2973753865933812 0  1.006810976381716 0.391030785558317 0  0.959607731188901 0.4819113196140744 0  0.9032611318931565 0.567634763306048 0  0.837421643853921 0.6474588188472442 0  0.7627114046256133 0.7206560342325357 0  0.6811247232652463 0.7870200233861553 0  0.5927659917667761 0.845835375021627 0  0.4981166500974179 0.8958441806868046 0  0.398456074130124 0.937096750217702 0  0.2958461870305109 0.9694192495707805 0  0.1895601361365683 0.9914892421308125 0  0.08211703364867216 1.00420581280227 0  -0.02649124838033926 1.006769463682491 0  -0.1348450318229199 0.9989067670566285 0  -0.2420023395102995 0.9818355366816192 0  -0.3467387671985624 0.9548933798585069 0  -0.4478700338552527 0.9181422707052963 0  -0.5443868999088509 0.8726966040653905 0  -0.635715114321949 0.8181998866230132 0  -0.7207377164448303 0.7557695736982356 0  -0.7986933025512538 0.6859673582725849 0  -0.868922775637271 0.6085858219166044 0  -0.930163577628617 0.5254481896755749 0  -0.982723976035962 0.437507785809317 0  -1.025032708931618 0.3447604291169539 0  -1.056961506645047 0.2489831068049068 0  -1.078650993704384 0.1507689857837612 0  -1.089662858509163 0.0507004906958041 0  -1.089686093297741 -0.04992989578917593 0  -1.078698371180802 -0.1498754824680845 0  -1.058002410469418 -0.2480585908296153 0  -1.025002613356904 -0.3443005653710134 0  -0.9829221825338513 -0.4365984659416552 0  -0.9305645971419689 -0.5247072650077352 0  -0.8694119197832795 -0.6076119136509656 0  -0.7991482307956337 -0.6844741627952701 0  -0.7208240380742107 -0.7540967110076228 0  -0.6353722844935277 -0.8160472139064175 0  -0.5446702261944596 -0.8708486330522465 0  -0.446965931475707 -0.9163628995173027 0  -0.3457577798136229 -0.9534834041791351 0  -0.240837909278179 -0.9806978419339892 0  -0.1339501461840732 -0.9981055076758644 0  -0.02588648465180593 -1.006416050492051 0  0.0823877777324325 -1.003495892670994 0  0.1904477551645782 -0.9905288298501528 0  0.296237232612975 -0.968397418942012 0  0.3998808048416312 -0.9361552379165423 0  0.4986351850331261 -0.8950209876393382 0  0.593116380954105 -0.8451128918147577 0  0.6813444905041903 -0.7872933336446303 0  0.7628899506542375 -0.7209097016730189 0  0.837153329169202 -0.6470849370174661 0  0.9027149909047312 -0.5670085562017154 0  0.9597913064987575 -0.4815181844825525 0  1.007693754595575 -0.3910897375299567 0  1.044504427178518 -0.2969608977617674 0  1.071457907388624 -0.1993256919877434 0  1.087861062039286 -0.100212409941224 0  -2.449329093119672 4.919532192436219 0  -2.449271380889121 -4.912038767807014 0  4.911999384380024 2.449005496565937 0  4.919979725937922 -2.450366324371962 0  2.447137797269898 -4.897540406868859 0  2.441539674222176 4.901243902030096 0  -4.912013351725559 -2.449019679596673 0  -4.91201457481932 2.449023367144561 0  -1.749308355703333 4.913043357530062 0  -1.745060489803369 -4.916402955283665 0  4.922591141767968 1.745074474759528 0  4.911402350798909 -1.748982620605096 0  -4.911671364975501 -1.748699700804407 0  -4.912477876653523 1.748432552750872 0  1.74663020102933 4.907051207727253 0  1.748144442596947 -4.895462795704383 0  -1.149457139481796 4.911253953901345 0  -1.130251237274978 -4.91896021250223 0  -4.911947783277024 -1.148827085952537 0  -4.911775298073436 1.148626149315133 0  1.144411496002698 -4.915248609955542 0  1.149459609011351 4.911247946432529 0  4.91211095106865 1.147109569675394 0  4.92260472659048 -1.152786985389507 0  -0.5469893825438104 -4.91265285862521 0  -0.546740975535621 4.921091284135858 0  -4.911129601044669 -0.5492083336064582 0  -4.911155369371589 0.5477604245861039 0  4.91050273631061 -0.5495363308542495 0  4.921753112932082 0.5462253223575153 0  0.5428021606443703 -4.899921059250505 0  0.5514748661441008 4.918009135409059 0  -4.912933024957714 -3.049187480172878 0  4.91943482613599 3.047146310702113 0  4.912452687760765 -3.049177811588466 0  -4.913775946485058 3.04627190314139 0  3.055972780922876 -4.918408836727897 0  -3.049353908957811 -4.912415000272465 0  3.052905982249959 4.914474574092005 0  -3.048795270077497 4.913296494682031 0  -4.910405863227938 -0.04995765146022466 0  0.04513951538938322 -4.914622889367857 0  0.04958962671615368 4.921446016531772 0  4.917235053997915 -0.05133657813658522 0  3.546152060693144 -4.919745339470856 0  -3.549479158009271 4.91270
[...]
<PointData  Vectors="f_894"> 
<DataArray  type="Float64"  Name="f_894"  NumberOfComponents="3" format="ascii">2.6559658580597536e-76 2.6559658580597536e-76 0.0000000000000000e+00  -2.8445085011136060e-76 2.8445085011136060e-76 0.0000000000000000e+00  -8.5659604778788089e-78 -8.5659604778788089e-78 0.0000000000000000e+00  3.0308186857303525e-76 -3.0308186857303525e-76 0.0000000000000000e+00  -7.5525681430320735e-01 -1.5800160354192426e-02 0.0000000000000000e+00  4.1637689831194828e-75 6.6081319172000209e-75 0.0000000000000000e+00  2.0845065793940242e-75 2.0878136807159668e-74 0.0000000000000000e+00  -3.3995895770081797e-75 6.7660977759258064e-75 0.0000000000000000e+00  3.9923749927649078e-72 6.6748917323123558e-72 0.0000000000000000e+00  5.3058248487062315e-71 1.3467965215624410e-70 0.0000000000000000e+00  -7.8920259208587193e-72 4.5528510675850369e-71 0.0000000000000000e+00  3.2222548959605914e-69 6.1726797884525752e-69 0.0000000000000000e+00  5.1386909147779355e-68 9.4180714823535145e-68 0.0000000000000000e+00  -3.0458068064793926e-68 1.4985105248042168e-67 0.0000000000000000e+00  1.2701863593722027e-67 3.9872088884912266e-67 0.0000000000000000e+00  1.2829450602730399e-68 8.7778565588862652e-67 0.0000000000000000e+00  5.4150817445521577e-64 8.8525193397557451e-64 0.0000000000000000e+00  4.7790017413351598e-65 2.4417225408139228e-63 0.0000000000000000e+00  1.3382160303337937e-62 2.2074807286248992e-62 0.0000000000000000e+00  8.0187296483220096e-63 8.3222487719378168e-62 0.0000000000000000e+00  6.8656538777714669e-61 1.1071638582579613e-60 0.0000000000000000e+00  4.0205072536459815e-60 7.0368389912150447e-60 0.0000000000000000e+00  -2.8150710892768950e-60 7.6767510693441094e-60 0.0000000000000000e+00  5.5977599322718615e-59 1.1412734617901377e-58 0.0000000000000000e+00  -1.7362771909573709e-59 1.1631611261176083e-58 0.0000000000000000e+00  -2.9624145242024002e-59 6.8124582075325981e-59 0.0000000000000000e+00  1.7768834996638045e-58 3.3200600304239772e-58 0.0000000000000000e+00  7.1954352533790205e-58 2.0958698658922769e-57 0.0000000000000000e+00  2.8155866209003925e-57 6.2590044851930121e-57 0.0000000000000000e+00  -3.3499182063199734e-57 5.7064662775421892e-57 0.0000000000000000e+00  -3.4603400049034963e-58 1.0945034186285102e-57 0.0000000000000000e+00  1.8740948931620173e-56 2.9498398939737066e-56 0.0000000000000000e+00  -1.3856127452740258e-56 3.5176817038558500e-56 0.0000000000000000e+00  1.1681710178550374e-56 2.9045708576052762e-56 0.0000000000000000e+00  8.5627582412550957e-56 2.1057056984564871e-55 0.0000000000000000e+00  -2.4295721159456404e-56 5.7416633837213030e-55 0.0000000000000000e+00  5.0945519907074660e-57 8.6591431966951185e-57 0.0000000000000000e+00  5.4200773164903137e-56 1.3866286353068696e-55 0.0000000000000000e+00  1.5138173831364150e-55 6.1832824225762543e-55 0.0000000000000000e+00  -2.1806372315452630e-55 3.4983917107501517e-55 0.0000000000000000e+00  9.5911461620884969e-55 1.7307908525767776e-54 0.0000000000000000e+00  -4.2900977006081606e-55 4.3591071576068594e-54 0.0000000000000000e+00  -2.2146044418781069e-55 2.6809343424867690e-54 0.0000000000000000e+00  -9.3392318384395558e-56 9.4347547139400760e-55 0.0000000000000000e+00  -1.0994966140810716e-55 1.8154454000366706e-55 0.0000000000000000e+00  2.6827957265216172e-54 5.2496105695063410e-54 0.0000000000000000e+00  -2.0978449191564838e-54 4.1281696728182323e-54 0.0000000000000000e+00  -6.9825926891028828e-55 8.0484164808210359e-55 0.0000000000000000e+00  -1.2811860068991555e-55 2.7086127266344723e-55 0.0000000000000000e+00  9.0268601766163780e-55 1.4483953574156591e-54 0.0000000000000000e+00  9.1770973322459190e-55 6.1586539339947442e-54 0.0000000000000000e+00  -1.0938894819146471e-54 5.8982263476996133e-54 0.0000000000000000e+00  4.9930052633875558e-55 4.6501233150685820e-54 0.0000000000000000e+00  1.8670584372182129e-56 5.7946850104659520e-54 0.0000000000000000e+00  2.9255244742917818e-55 6.1529001547491209e-54 0.0000000000000000e+00  -1.2231518369924629e-54 2.0450636925158667e-54 0.0000000000000000e+00  -6.2694838580010925e-55 1.4730888944866653e-53 0.0000000000000000e+00  4.3285271304406844e-54 7.4610680218407873e-54 0.0000000000000000e+00  -4.2167784166516177e-54 8.1073445753611095e-54 0.0000000000000000e+00  1.8645376442123618e-54 3.9510684845156076e-54 0.0000000000000000e+00  -7.1606871592728714e-55 9.5043007132476920e-54 0.0000000000000000e+00  1.2907873769953298e-54 9.3255059412515003e-54 0.0000000000000000e+00  -1.6366832956899444e-54 4.4046636956096509e-54 0.0000000000000000e+00  -8.9944250678318124e-55 2.4101983938234082e-54 0.0000000000000000e+00  3.2364089261714904e-55 1.2979394356159742e-54 0.0000000000000000e+00  2.5789423220252699e-55 2.5364272389356522e-54 0.0000000000000000e+00  -7.7208284331711070e-56 3.4910507940864325e-54 0.0000000000000000e+00  -6.9316724296572085e-55 1.4867161248886793e-54 0.0000000000000000e+00  2.3173602772998272e-55 4.4086580668234804e-55 0.0000000000000000e+00  -2.2546239317180878e-55 6.0419951407993548e-55 0.0000000000000000e+00  4.9072125526022706e-56 2.3942337701029386e-55 0.0000000000000000e+00  1.8203318115689627e-55 9.5096887475409060e-55 0.0000000000000000e+00  -3.2307953677933070e-55 5.3298657665393106e-55 0.0000000000000000e+00  -1.5580589462787691e-56 4.8359302466025651e-56 0.0000000000000000e+00  -1.1152345188511358e-57 1.1343262487542461e-56 0.0000000000000000e+00  6.6112193787558958e-57 2.3492849216401977e-56 0.0000000000000000e+00  -8.8242247270197019e-57 1.5098755630127601e-56 0.0000000000000000e+00  1.7091731065903724e-57 2.8718827896732625e-57 0.0000000000000000e+00  -1.2225117335850323e-57 2.7350683988353559e-57 0.0000000000000000e+00  5.0882413499697361e-57 7.7644770211631100e-57 0.0000000000000000e+00  -4.4639655557400333e-57 1.1288490745924511e-56 0.0000000000000000e+00  -1.7861169885167666e-58 9.4100443854748675e-58 0.0000000000000000e+00  -2.3578414636992154e-58 4.6717890395399752e-58 0.0000000000000000e+00  -7.7698093551810214e-61 8.8109599694177885e-59 0.0000000000000000e+00  -2.4142370443565049e-59 6.4415880410518938e-59 0.0000000000000000e+00  -7.0288139952599313e-60 2.5050312679231549e-59 0.0000000000000000e+00  -4.3411700291398509e-60 2.2415426411773493e-59 0.0000000000000000e+00  -3.0314475221500806e-60 7.1884702377397655e-60 0.0000000000000000e+00  -8.4369658465216356e-62 4.4408307251518337e-61 0.0000000000000000e+00  -1.0657809251910644e-61 2.2408009504059512e-61 0.0000000000000000e+00  -3.5571927269434867e-62 5.6951178548179418e-62 0.0000000000000000e+00  -3.8789586134524456e-64 6.7194979465801802e-64 0.0000000000000000e+00  -2.4141734251480921e-65 5.1830360607062203e-65 0.0000000000000000e+00  3.6806538236165086e-66 1.0366960222208564e-65 0.0000000000000000e+00  -4.8148397303038966e-66 9.2821517949773828e-66 0.0000000000000000e+00  -6.6632312282558388e-68 2.7738282282818735e-67 0.0000000000000000e+00  -7.8165677739381621e-68 1.2945911790461669e-67 0.0000000000000000e+00  -8.0284822434842912e-69 1.1757313147025990e-68 0.0000000000000000e+00  -5.6141184053613202e-70 9.5354376093808409e-70 0.0000000000000000e+00  -3.7689693524691034e-71 6.8269893789618761e-71 0.0000000000000000e+00  -1.8743479264581723e-72 3.2059976523415311e-72 0.0000000000000000e+00  -1.2161790429036155e-73 2.7280167184232517e-73 0.0000000000000000e+00  -4.4161531742806118e-75 1.2915658353243572e-74 0.0000000000000000e+00  -2.5467334263722008e-75 4.2423555282072059e-75 0.0000000000000000e+00  -9.7711498908139540e-76 3.5563503353600542e-76 0.0000000000000000e+00  -1.6205543530207572e-75 -2.3874126532583257e-76 0.0000000000000000e+00  -2.4506051229356485e-74 1.1576040560955367e-74 0.0000000000000000e+00  -3.6794750135544145e-74 1.5473838712623393e-75 0.0000000000000000e+00  -3.8862426063881073e-73 1.4306718597194214e-73 0.0000000000000000e+00  -1.0256841478593321e-71 6.2211791347727736e-72 0.0000000000000000e+00  -6.7544850156317061e-71 3.6960383476002421e-71 0.0000000000000000e+00  -1.0612086118484570e-70 3.8877377713288365e-72 0.0000000000000000e+00  -8.9147640257688744e-70 3.2960794603990725e-70 0.0000000000000000e+00  -2.1353021833071532e-68 1.2803043536017999e-68 0.0000000000000000e+00  -1.0266965956542489e-67 5.0825242259423935e-68 0.0000000000000000e+00  -1.0096221030663573e-67 -5.9883166016752621e-68 0.0000000000000000e+00  -3.1773032133591426e-66 1.7349896683749577e-66 0.0000000000000000e+00  -3.1985010274193205e-65 1.8186469680499505e-65 0.0000000000000000e+00  -5.3898754102812390e-65 5.0057684696355624e-66 0.0000000000000000e+00  -4.4479056057905187e-64 1.4351268399027950e-64 0.0000000000000000e+00  -7.0308545755362471e-63 4.3191872620331594e-63 0.0000000000000000e+00  -1.5099046624499669e-62 3.7108442905279516e-63 0.0000000000000000e+00  -8.4509733661267650e-62 1.9477968283825751e-62 0.0000000000000000e+00  -1.3634070034953598e-60 8.4208020896552510e-61 0.0000000000000000e+00  -2.4204424610818655e-60 3.3396556162887988e-61 0.0000000000000000e+00  -2.1246999548722961e-59 7.3057100572947596e-60 0.0000000000000000e+00  -2.4335799526426606e-58 1.4735518690397241e-58 0.0000000000000000e+00  -2.5767774681653445e-58 -9.2732519064840852e-59 0.0000000000000000e+00  -6.0102635761805862e-57 2.7382309047087417e-57 0.0000000000000000e+00  -2.4982953929428878e-56 1.2179447978202757e-56 0.0000000000000000e+00  -5.5524774627203235e-56 -8.5013392012505734e-57 0.0000000000000000e+00  -1.0192316007985216e-54 6.3567289709344058e-55 0.0000000000000000e+00  -1.1163040135003460e-54 -3.3926095278097338e-55 0.0000000000000000e+00  -2.4237658983172325e-53 1.2428142598440304e-53 0.0000000000000000e+00  -6.6303793624470470e-53 2.9215039593742019e-53 0.0000000000000000e+00  -4.3719061331271697e-52 1.1971528820019927e-52 0.0000000000000000e+00  -2.6862531985083986e-51 1.6218657873959081e-51 0.0000000000000000e+00  -7.6641623422856472e-51 -2.0508050302593912e-52 0.0000000000000000e+00  -7.2513643638364931e-50 4.4730758330939796e-50 0.0000000000000000e+00  -1.6157892290978106e-49 -1.4288553999023794e-50 0.0000000000000000e+00  -1.7408625194562022e-48 9.8070080440134158e-49 0.0000000000000000e+00  -4.3399395769984763e-48 -1.9612409453111409e-49 0.0000000000000000e+00  -2.0250718442088560e-47 1.0751259477512248e-47 0.0000000000000000e+00  -1.1048634202298654e-46 1.8384398996567828e-47 0.0000000000000000e+00  -1.0268864985592462e-46 2.3779646581635915e-47 0.0000000000000000e+00  -1.2452843612304893e-45 5.0771267431416827e-46 0.0000000000000000e+00  -8.6987488148211930e-46 -5.4789543646629558e-46 0.0000000000000000e+00  -1.3485055902677264e-44 7.7856964133359571e-45 0.0000000000000000e+00  -5.8056284518935623e-44 1.3252791133504749e-44 0.0000000000000000e+00  -3.6089606651036758e-44 -1.6866647379557052e-44 0.0000000000000000e+00  -1.1450014411620821e-43 6.2606908091791374e-44 0.0000000000000000e+00  -8.4218578681633124e-43 2.2303064858642009e-43 0.0000000000000000e+00  -1.9302408738947910e-42 1.9022563145632172e-43 0.0000000000000000e+00  -2.5128986268785765e-42 5.8753338498534263e-44 0.0000000000000000e+00  -2.0156167986957474e-42 -1.8757468162357002e-43 0.0000000000000000e+00  -8.6227997306110348e-43 -2.4127957794904368e-43 0.0000000000000000e+00  -1.1349150861774353e-43 -6.2087913918579364e-44 0.0000000000000000e+00  -3.8646096678123616e-44 1.7819026177631979e-44 0.0000000000000000e+00  -6.3248929868357557e-44 -1.0442050955188078e-44 0.0000000000000000e+00  -1.5043189565340537e-44 -7.5888240857392884e-45 0.0000000000000000e+00  -9.9491539463731191e-46 5.4718200509260809e-46 0.0000000000000000e+00  -1.4087490186910689e-45 -5.2046274687432222e-46 0.0000000000000000e+00  -1.1234020272526242e-46 -2.7594791807221494e-47 0.0000000000000000e+00  -1.0205206264310719e-46 -2.0755707882156622e-47 0.0000000000000000e+00  -1.8735907454907086e-47 -1.1592720070322389e-47 0.0000000000000000e+00  -4.0844302317766534e-48 1.9519382680076669e-49 0.0000000000000000e+00  -1.4977223876743673e-48 -9.0801625047321440e-49 0.0000000000000000e+00  -1.6305430611980784e-49 2.3763982739127511e-50 0.0000000000000000e+00  -7.5129510903344288e-50 -4.2972311603535016e-50 0.0000000000000000e+00  -8.2390373798114989e-51 6.1974938175880009e-52 0.0000000000000000e+00  -3.1686196140346752e-51 -1.7373083136694671e-51 0.0000000000000000e+00  -5.1181929614857111e-52 -1.1199157702895706e-52 0.0000000000000000e+00  -8.2528950828325431e-53 -3.4622464218346518e-53 0.0000000000000000e+00  -2.6793326220776407e-53 -1.2863879289438096e-53 0.0000000000000000e+00  -1.1929060550677392e-54 3.1682236542251269e-55 0.0000000000000000e+00  -1.0726234071807695e-54 -6.6663358041074560e-55 0.0000000000000000e+00  -5.1411773636276989e-56 8.1617417065438699e-57 0.0000000000000000e+00  -2.3535168882874635e-56 -1.2993507495606208e-56 0.0000000000000000e+00  -4.8552257969621740e-57 -2.4784222849653341e-57 0.0000000000000000e+00  -2.4481244297629307e-58 8.4025168989173315e-59 0.0000000000000000e+00  -2.1741440152522309e-58 -1.3080114672529834e-58 0.0000000000000000e+00  -1.9979772262955375e-59 -6.0621413066918126e-60 0.0000000000000000e+00  -2.3787528546926640e-60 -3.3489490967401435e-61 0.0000000000000000e+00  -1.2990383384991373e-60 -7.5120330691769999e-61 0.0000000000000000e+00  -7.7118630115959063e-62 -2.1203831062142928e-62 0.0000000000000000e+00  -1.3623086457814182e-62 -2.8974505668998892e-63 0.0000000000000000e+00  -6.6747545114548156e-63 -3.7496450778948632e-63 0.0000000000000000e+00  -4.7986938841579288e-64 -1.8032537853498111e-64 0.0000000000000000e+00  -4.3630427957125637e-65 9.4951819427807121e-67 0.0000000000000000e+00  -2.9612122807048537e-65 -1.6487944943335079e-65 0.0000000000000000e+00  -3.4275042197031927e-66 -1.9745487613173263e-66 0.0000000000000000e+00  -8.9563513515684874e-68 5.4420179048227205e-68 0.0000000000000000e+00  -8.6627387159249106e-68 -4.1523357189509111e-68 0.0000000000000000e+00  -2.0754008361375230e-68 -1.2781568677655078e-68 0.0000000000000000e+00  -1.1350917513106590e-69 -5.1109093389542629e-70 0.0000000000000000e+00  -8.7879425221799131e-71 1.3729457068861954e-71 0.0000000000000000e+00  -6.9226924255167967e-71 -3.6439619959138403e-71 0.0000000000000000e+00  -1.2504467074780183e-71 -7.6393855934951184e-72 0.0000000000000000e+00  -5.9888388542885896e-73 -2.7449443509040926e-73 0.0000000000000000e+00  -3.9219660310747620e-74 7.4076211859940218e-75 0.0000000000000000e+00  -3.1590142889718347e-74 -1.4768376569672474e-74 0.0000000000000000e+00  -6.5940127905871204e-75 -3.3541136108096525e-75 0.0000000000000000e+00  -7.1808429171321410e-76 -3.1063282817272444e-76 0.0000000000000000e+00  -8.5482130837090965e-76 -1.6231717965725018e-75 0.0000000000000000e+00  -4.7711308152288132e-75 -1.3948048965549814e-74 0.0000000000000000e+00  4.3584957599660149e-75 -8.3013957735996758e-75 0.0000000000000000e+00  -1.6261127928662742e-73 -3.4300927510739453e-73 0.0000000000000000e+00  -9.2594164348238023e-71 -1.0092005903032582e-70 0.0000000000000000e+00  -7.4806738146380876e-70 -1.3199272490046976e-69 0.0000000000000000e+00  -1.0940277799270969e-69 -3.6549874878703895e-69 0.0000000000000000e+00  -7.7260848531769901e-68 -1.7143531113140564e-67 0.0000000000000000e+00  -6.4967681414349394e-68 -3.2627886224253232e-67 0.0000000000000000e+00  -6.7523170029556067e-66 -1.3531543291110097e-65 0.0000000000000000e+00  -4.4901309896515302e-66 -2.1340154835601674e-65 0.0000000000000000e+00  -9.0053441566029867e-65 -1.5626438531324016e-64 0.0000000000000000e+00  1.7083014570379888e-65 -2.1025076004442172e-64 0.0000000000000000e+00  -4.2405046425099712e-62 -6.4294290855758743e-62 0.0000000000000000e+00  -6.9341076482898279e-62 -1.7254988086830528e-61 0.0000000000000000e+00  -2.3027927264549687e-62 -2.7303162311917628e-61 0.0000000000000000e+00  -5.6816691509927900e-60 -1.1404739258000434e-59 0.0000000000000000e+00  4.7090694637123663e-60 -1.4981090184962121e-59 0.0000000000000000e+00  -2.8664822489275707e-59 -4.7722541079661654e-59 0.0000000000000000e+00  8.7073421287693115e-60 -6.0787053518580995e-59 0.0000000000000000e+00  2.2928643171057354e-59 -3.9516267058467085e-59 0.0000000000000000e+00  -5.5589513642165660e-58 -8.9966880866294246e-58 0.0000000000000000e+00  -1.3593730253737798e-59 -1.2603623445051131e-57 0.0000000000000000e+00  -4.5638363779987515e-57 -1.1679303940332043e-56 0.0000000000000000e+00  5.6515673291856145e-57 -8.6211668610862852e-57 0.0000000000000000e+00  -5.2422945935771722e-57 -7.3874063396007809e-57 0.0000000000000000e+00  -1.7351424523376114e-56 -3.7898092299635124e-56 0.0000000000000000e+00  2.1200846985970490e-56 -4.0511791526108571e-56 0.0000000000000000e+00  -4.9052609597206721e-57 -9.2469287475601032e-57 0.0000000000000000e+00  -7.9568234224331460e-56 -2.0385004323812302e-55 0.0000000000000000e+00  6.2171451004924816e-56 -5.0716446162612851e-55 0.0000000000000000e+00  -4.1961717378564717e-55 -7.2959705017974388e-55 0.0000000000000000e+00  -4.8229696762282945e-56 -1.8363365149167510e-54 0.0000000000000000e+00  1.6213726594347005e-55 -5.7259017294188320e-55 0.0000000000000000e+00  -5.0636291587204041e-55 -1.6804258102827174e-54 0.0000000000000000e+00  -2.2000201026559283e-54 -7.0903242722098646e-54 0.0000000000000000e+00  2.5153730009139848e-54 -6.0585446136125151e-54 0.0000000000000000e+00  -6.5522263750867449e-55 -2.3948521453644487e-54 0.0000000000000000e+00  5.1770825835450149e-55 -2.8161873761813883e-54 0.0000000000000000e+00  1.2443464176775358e-55 -1.4243380741977222e-54 0.0000000000000000e+00  -2.1206140364110451e-54 -3.4790724815718789e-54 0.0000000000000000e+00  5.5354479471584097e-55 -8.2264491980934443e-54 0.0000000000000000e+00  -3.8215107805450936e-54 -1.3578685678377786e-53 0.0000000000000000e+00  4.5575134597045405e-54 -7.6973392939599004e-54 0.0000000000000000e+00  1.9722156128940504e-55 -6.5010320927135808e-55 0.0000000000000000e+00  -4.6617104127627383e-54 -8.0227647339549254e-54 0.0000000000000000e+00  4.6850536640880702e-54 -7.8615354268683190e-54 0.0000000000000000e+00  -1.6129642731741528e-56 -1.3352071031123017e-55 0.0000000000000000e+00  1.0818193920045856e-56 -2.7687204883652152e-55 0.0000000000000000e+00  2.1417038013672156e-56 -9.8798639627351878e-56 0.0000000000000000e+00  -5.0508857794309551e-54 -9.3514497412062409e-54 0.0000000000000000e+00  5.3881487072884270e-54 -9.4171797935419539e-54 0.0000000000000000e+00  5.5095459240053894e-56 -1.0531409991604256e-55 0.0000000000000000e+00  -1.3908805529764240e-56 -6.2023692007575213e-56 0.0000000000000000e+00  -4.8552361891373153e-55 -9.0308794864219187e-55 0.0000000000000000e+00  -5.6491322599032255e-54 -1.0023704604952483e-53 0.0000000000000000e+00  4.3777096785098635e-54 -1.0512646996581918e-53 0.0000000000000000e+00  -2.9681265326603098e-54 -7.9698270632026741e-54 0.0000000000000000e+00  2.3726642661025546e-54 -8.5636753297487604e-54 0.0000000000000000e+00  2.1867114981670416e-54 -3.3202504573349891e-54 0.0000000000000000e+00  -5.2942636579975149e-55 -1.4762927248137839e-54 0.0000000000000000e+00  8.1467385204445463e-55 -1.5800165040589387e-54 0.0000000000000000e+00  -4.7985772659902168e-55 -9.7968163398952436e-55 0.0000000000000000e+00  5.0024554210475196e-55 -8.8964376152012656e-55 0.0000000000000000e+00  -1.5293491415214367e-56 -2.6793025691932563e-56 0.0000000000000000e+00  -4.3688093072607869e-56 -1.7182198402138463e-55 0.0000000000000000e+00  4.0851715131552815e-56 -1.7506081216381109e-55 0.0000000000000000e+00  4.7208673574995209e-57 -6.9078758221766020e-56 0.0000000000000000e+00  -2.6911124132809079e-56 -6.5177306779213211e-56 0.0000000000000000e+00  3.2224983883679287e-56 -6.4441084178445329e-56 0.0000000000000000e+00  -2.8033345783868073e-57 -2.8706907225956481e-56 0.0000000000000000e+00  1.2728672699527303e-56 -3.0141772095795558e-56 0.0000000000000000e+00  9.8523770079107037e-58 -2.4084213653049178e-57 0.0000000000000000e+00  -4.3065812231021217e-57 -7.5982525400419984e-57 0.0000000000000000e+00  4.1839796674787631e-57 -1.1045744445916431e-56 0.0000000000000000e+00  3.0763207063348729e-58 -1.0241426826141590e-57 0.0000000000000000e+00  1.4168885611390574e-58 -5.039021