<?xml version="1.0"?>
<VTKFile type="UnstructuredGrid"  version="0.1"  >
<UnstructuredGrid>
<Piece  NumberOfPoints="11902" NumberOfCells="23402">
<Points>
<DataArray  type="Float64"  NumberOfComponents="3"  format="ascii">-5 -5 0  5 -5 0  5 5 0  -5 5 0  1.104125086599823 0.0006959047258341711 0  -4.9 -5 0  -4.8 -5 0  -4.7 -5 0  -4.6 -5 0  -4.5 -5 0  -4.4 -5 0  -4.3 -5 0  -4.2 -5 0  -4.1 -5 0  -4 -5 0  -3.9 -5 0  -3.8 -5 0  -3.7 -5 0  -3.6 -5 0  -3.5 -5 0  -3.4 -5 0  -3.3 -5 0  -3.2 -5 0  -3.1 -5 0  -3 -5 0  -2.9 -5 0  -2.8 -5 0  -2.7 -5 0  -2.6 -5 0  -2.5 -5 0  -2.4 -5 0  -2.3 -5 0  -2.2 -5 0  -2.1 -5 0  -2 -5 0  -1.9 -5 0  -1.8 -5 0  -1.7 -5 0  -1.6 -5 0  -1.5 -5 0  -1.4 -5 0  -1.3 -5 0  -1.2 -5 0  -1.1 -5 0  -1 -5 0  -0.9000000000000004 -5 0  -0.7999999999999998 -5 0  -0.7000000000000002 -5 0  -0.5999999999999996 -5 0  -0.5 -5 0  -0.4000000000000004 -5 0  -0.2999999999999998 -5 0  -0.2000000000000002 -5 0  -0.09999999999999964 -5 0  0 -5 0  0.09999999999999964 -5 0  0.2000000000000002 -5 0  0.2999999999999998 -5 0  0.4000000000000004 -5 0  0.5 -5 0  0.5999999999999996 -5 0  0.7000000000000002 -5 0  0.7999999999999998 -5 0  0.9000000000000004 -5 0  1 -5 0  1.1 -5 0  1.2 -5 0  1.3 -5 0  1.4 -5 0  1.5 -5 0  1.6 -5 0  1.7 -5 0  1.8 -5 0  1.9 -5 0  2 -5 0  2.1 -5 0  2.2 -5 0  2.3 -5 0  2.4 -5 0  2.5 -5 0  2.6 -5 0  2.7 -5 0  2.8 -5 0  2.9 -5 0  3 -5 0  3.1 -5 0  3.199999999999999 -5 0  3.300000000000001 -5 0  3.4 -5 0  3.5 -5 0  3.6 -5 0  3.699999999999999 -5 0  3.800000000000001 -5 0  3.9 -5 0  4 -5 0  4.1 -5 0  4.199999999999999 -5 0  4.300000000000001 -5 0  4.4 -5 0  4.5 -5 0  4.6 -5 0  4.699999999999999 -5 0  4.800000000000001 -5 0  4.9 -5 0  5 -4.9 0  5 -4.8 0  5 -4.7 0  5 -4.6 0  5 -4.5 0  5 -4.4 0  5 -4.3 0  5 -4.2 0  5 -4.1 0  5 -4 0  5 -3.9 0  5 -3.8 0  5 -3.7 0  5 -3.6 0  5 -3.5 0  5 -3.4 0  5 -3.3 0  5 -3.2 0  5 -3.1 0  5 -3 0  5 -2.9 0  5 -2.8 0  5 -2.7 0  5 -2.6 0  5 -2.5 0  5 -2.4 0  5 -2.3 0  5 -2.2 0  5 -2.1 0  5 -2 0  5 -1.9 0  5 -1.8 0  5 -1.7 0  5 -1.6 0  5 -1.5 0  5 -1.4 0  5 -1.3 0  5 -1.2 0  5 -1.1 0  5 -1 0  5 -0.9000000000000004 0  5 -0.7999999999999998 0  5 -0.7000000000000002 0  5 -0.5999999999999996 0  5 -0.5 0  5 -0.4000000000000004 0  5 -0.2999999999999998 0  5 -0.2000000000000002 0  5 -0.09999999999999964 0  5 0 0  5 0.09999999999999964 0  5 0.2000000000000002 0  5 0.2999999999999998 0  5 0.4000000000000004 0  5 0.5 0  5 0.5999999999999996 0  5 0.7000000000000002 0  5 0.7999999999999998 0  5 0.9000000000000004 0  5 1 0  5 1.1 0  5 1.2 0  5 1.3 0  5 1.4 0  5 1.5 0  5 1.6 0  5 1.7 0  5 1.8 0  5 1.9 0  5 2 0  5 2.1 0  5 2.2 0  5 2.3 0  5 2.4 0  5 2.5 0  5 2.6 0  5 2.7 0  5 2.8 0  5 2.9 0  5 3 0  5 3.1 0  5 3.199999999999999 0  5 3.300000000000001 0  5 3.4 0  5 3.5 0  5 3.6 0  5 3.699999999999999 0  5 3.800000000000001 0  5 3.9 0  5 4 0  5 4.1 0  5 4.199999999999999 0  5 4.300000000000001 0  5 4.4 0  5 4.5 0  5 4.6 0  5 4.699999999999999 0  5 4.800000000000001 0  5 4.9 0  4.9 5 0  4.8 5 0  4.7 5 0  4.6 5 0  4.5 5 0  4.4 5 0  4.3 5 0  4.2 5 0  4.1 5 0  4 5 0  3.9 5 0  3.8 5 0  3.7 5 0  3.6 5 0  3.5 5 0  3.4 5 0  3.3 5 0  3.2 5 0  3.1 5 0  3 5 0  2.9 5 0  2.8 5 0  2.7 5 0  2.6 5 0  2.5 5 0  2.4 5 0  2.3 5 0  2.2 5 0  2.1 5 0  2 5 0  1.9 5 0  1.8 5 0  1.7 5 0  1.6 5 0  1.5 5 0  1.4 5 0  1.3 5 0  1.2 5 0  1.1 5 0  1 5 0  0.9000000000000004 5 0  0.7999999999999998 5 0  0.7000000000000002 5 0  0.5999999999999996 5 0  0.5 5 0  0.4000000000000004 5 0  0.2999999999999998 5 0  0.2000000000000002 5 0  0.09999999999999964 5 0  0 5 0  -0.09999999999999964 5 0  -0.2000000000000002 5 0  -0.2999999999999998 5 0  -0.4000000000000004 5 0  -0.5 5 0  -0.5999999999999996 5 0  -0.7000000000000002 5 0  -0.7999999999999998 5 0  -0.9000000000000004 5 0  -1 5 0  -1.1 5 0  -1.2 5 0  -1.3 5 0  -1.4 5 0  -1.5 5 0  -1.6 5 0  -1.7 5 0  -1.8 5 0  -1.9 5 0  -2 5 0  -2.1 5 0  -2.2 5 0  -2.3 5 0  -2.4 5 0  -2.5 5 0  -2.6 5 0  -2.7 5 0  -2.8 5 0  -2.9 5 0  -3 5 0  -3.1 5 0  -3.199999999999999 5 0  -3.300000000000001 5 0  -3.4 5 0  -3.5 5 0  -3.6 5 0  -3.699999999999999 5 0  -3.800000000000001 5 0  -3.9 5 0  -4 5 0  -4.1 5 0  -4.199999999999999 5 0  -4.300000000000001 5 0  -4.4 5 0  -4.5 5 0  -4.6 5 0  -4.699999999999999 5 0  -4.800000000000001 5 0  -4.9 5 0  -5 4.9 0  -5 4.8 0  -5 4.7 0  -5 4.6 0  -5 4.5 0  -5 4.4 0  -5 4.3 0  -5 4.2 0  -5 4.1 0  -5 4 0  -5 3.9 0  -5 3.8 0  -5 3.7 0  -5 3.6 0  -5 3.5 0  -5 3.4 0  -5 3.3 0  -5 3.2 0  -5 3.1 0  -5 3 0  -5 2.9 0  -5 2.8 0  -5 2.7 0  -5 2.6 0  -5 2.5 0  -5 2.4 0  -5 2.3 0  -5 2.2 0  -5 2.1 0  -5 2 0  -5 1.9 0  -5 1.8 0  -5 1.7 0  -5 1.6 0  -5 1.5 0  -5 1.4 0  -5 1.3 0  -5 1.2 0  -5 1.1 0  -5 1 0  -5 0.9000000000000004 0  -5 0.7999999999999998 0  -5 0.7000000000000002 0  -5 0.5999999999999996 0  -5 0.5 0  -5 0.4000000000000004 0  -5 0.2999999999999998 0  -5 0.2000000000000002 0  -5 0.09999999999999964 0  -5 0 0  -5 -0.09999999999999964 0  -5 -0.2000000000000002 0  -5 -0.2999999999999998 0  -5 -0.4000000000000004 0  -5 -0.5 0  -5 -0.5999999999999996 0  -5 -0.7000000000000002 0  -5 -0.7999999999999998 0  -5 -0.9000000000000004 0  -5 -1 0  -5 -1.1 0  -5 -1.2 0  -5 -1.3 0  -5 -1.4 0  -5 -1.5 0  -5 -1.6 0  -5 -1.7 0  -5 -1.8 0  -5 -1.9 0  -5 -2 0  -5 -2.1 0  -5 -2.2 0  -5 -2.3 0  -5 -2.4 0  -5 -2.5 0  -5 -2.6 0  -5 -2.7 0  -5 -2.8 0  -5 -2.9 0  -5 -3 0  -5 -3.1 0  -5 -3.199999999999999 0  -5 -3.300000000000001 0  -5 -3.4 0  -5 -3.5 0  -5 -3.6 0  -5 -3.699999999999999 0  -5 -3.800000000000001 0  -5 -3.9 0  -5 -4 0  -5 -4.1 0  -5 -4.199999999999999 0  -5 -4.300000000000001 0  -5 -4.4 0  -5 -4.5 0  -5 -4.6 0  -5 -4.699999999999999 0  -5 -4.800000000000001 0  -5 -4.9 0  1.098766753523962 0.1004083575576207 0  1.082135483439644 0.1997131500777352 0  1.054104236091207 0.2974151449276284 0  1.016848962619121 0.3909557192128417 0  0.9691444425970815 0.4818822078689479 0  0.912257495262801 0.5676023988908612 0  0.8457208131190412 0.6474288964861548 0  0.7702043212749937 0.7205850861960977 0  0.6878029617473383 0.7869303702998154 0  0.5985468702165547 0.8457645722330079 0  0.5028911235156377 0.8957889419459294 0  0.4022156092767059 0.9370668178426611 0  0.2986543904597288 0.9694493992026636 0  0.1913075521208261 0.9915337781489492 0  0.08292418064727863 1.00431444409361 0  -0.02666985933669688 1.006887443893322 0  -0.1360110986489693 0.9989527515375188 0  -0.2442096082806824 0.981883781924297 0  -0.3499793518169617 0.9549663687098664 0  -0.4520673534169958 0.9182114050537237 0  -0.5494732709938248 0.8727901201607755 0  -0.6416879418546036 0.8182639635978125 0  -0.7275325822849434 0.7558279020143279 0  -0.8062790041681653 0.6860193637579314 0  -0.8772717598510151 0.6085591920312587 0  -0.9391488954909064 0.5254135390445804 0  -0.9923049519983672 0.4375057600890274 0  -1.035070057497162 0.3447338110407657 0  -1.067324647615601 0.2490036363730266 0  -1.089241666175414 0.1508356914043523 0  -1.100377786325358 0.05075741079020017 0  -1.100403094326093 -0.0498892754095648 0  -1.089291396553618 -0.14982716914042 0  -1.068440041169877 -0.247968761731751 0  -1.035024463219138 -0.3442475743274752 0  -0.9925321617282008 -0.4365140606027714 0  -0.939607092768339 -0.5246068718011986 0  -0.8778415298279469 -0.6074954042577652 0  -0.806819578390947 -0.6843689618034838 0  -0.7276682007082131 -0.75395457142702 0  -0.6413337569666292 -0.8158475516908705 0  -0.5497836063099705 -0.8706575004117213 0  -0.4510212330343999 -0.9161978652992427 0  -0.3488451220017687 -0.9533932190080118 0  -0.2428889618920678 -0.9806446003762793 0  -0.1350251521931098 -0.9980827952257446 0  -0.02601309978353661 -1.006489777921564 0  0.0832418759476927 -1.003496606656343 0  0.192340907900758 -0.9904503866152425 0  0.2991310968228837 -0.9683226350202272 0  0.4038348515516786 -0.9360398113701058 0  0.5035044856719875 -0.8949117773145818 0  0.5989364091259918 -0.8450162339147398 0  0.6880353064938155 -0.7872637606777347 0  0.7703879516334318 -0.7208787777822943 0  0.8454258452185458 -0.6470162891282746 0  0.9116354230751742 -0.566938392196253 0  0.9693205985242155 -0.4814664564589453 0  1.017795962338523 -0.3910279894328171 0  1.054960132939922 -0.2969222091686273 0  1.082207329184465 -0.1992710779979817 0  1.098800730199969 -0.1001837225189693 0  -2.449262329682792 4.919408296970958 0  -2.449198721406684 -4.911903692207366 0  4.911861089467652 2.448907797857951 0  4.919854235896585 -2.450277478052004 0  2.447053255447474 -4.897381698977244 0  2.441457869372058 4.901090363064846 0  -4.911876223213307 -2.448923061633827 0  -4.911877080549263 2.448926771495148 0  -1.749239676058883 4.912865703390905 0  -1.744994828273932 -4.91623247210055 0  4.922416866908419 1.744986291229096 0  4.91120339634673 -1.748881514151138 0  -4.911474621943449 -1.748600118042368 0  -4.912282517793424 1.748334033606263 0  1.746557295824872 4.906860294325599 0  1.748062787342261 -4.895248508699918 0  -1.149402670655505 4.911039518068701 0  -1.130202305950933 -4.918764256492121 0  -4.911702010507679 -1.148745323632793 0  -4.911528696824418 1.148544519512674 0  1.144360630863404 -4.915043446657947 0  1.149405809982231 4.911032870463887 0  4.911863109718634 1.147027174698751 0  4.922387004537278 -1.152714079674191 0  -0.5469610870577017 -4.912420553355619 0  -0.5467154164128023 4.92088071623547 0  -4.910844514887937 -0.5491629489742145 0  -4.910870117394754 0.5477155578581557 0  4.910212863448101 -0.5494900690779023 0  4.921499519360811 0.5461852809201361 0  0.5427712141112697 -4.899654175343846 0  0.5514488625483912 4.917790141933424 0  -4.912840352677838 -3.049107482349802 0  4.919348302653649 3.047071434861633 0  4.912358952837508 -3.049096497505201 0  -4.91368369390562 3.046192545366091 0  3.055913013659182 -4.918317719292348 0  -3.049289674891083 -4.912317626128411 0  3.052843083431254 4.914378809486802 0  -3.048731395471994 4.913199850780027 0  -4.910106070014847 -0.04995311423670989 0  0.04513779504516974 -4.914388962140589 0  0.04958767938961682 4.921230137671006 0  4.916955439334301 -0.0513323263549943 0  3.546104566941871 -4.919681387413593 0  -3.5494274969
[...]
<PointData  Vectors="f_998"> 
<DataArray  type="Float64"  Name="f_998"  NumberOfComponents="3" format="ascii">2.6559658580597646e-76 2.6559658580597646e-76 0.0000000000000000e+00  -2.8445085011136207e-76 2.8445085011136207e-76 0.0000000000000000e+00  -8.5659604778805021e-78 -8.5659604778805021e-78 0.0000000000000000e+00  3.0308186857303905e-76 -3.0308186857303905e-76 0.0000000000000000e+00  -7.1926650066755538e-01 -1.4960097177800264e-02 0.0000000000000000e+00  4.1639602155535849e-75 6.6079647583944093e-75 0.0000000000000000e+00  2.0843189352762959e-75 2.0878298066626360e-74 0.0000000000000000e+00  -3.4001452810559983e-75 6.7665800395953582e-75 0.0000000000000000e+00  3.9930771576235764e-72 6.6742828787251146e-72 0.0000000000000000e+00  5.3068292261709450e-71 1.3467089545703431e-70 0.0000000000000000e+00  -7.8945351781115752e-72 4.5530642339551146e-71 0.0000000000000000e+00  3.2233449805928386e-69 6.1717569279708542e-69 0.0000000000000000e+00  5.1407415935831756e-68 9.4163568918269472e-68 0.0000000000000000e+00  -3.0475116164719858e-68 1.4986481493498471e-67 0.0000000000000000e+00  1.2707820539024194e-67 3.9867179828695653e-67 0.0000000000000000e+00  1.2812376817701137e-68 8.7779606938064626e-67 0.0000000000000000e+00  5.4183868770273849e-64 8.8499005511964918e-64 0.0000000000000000e+00  4.7760216848959956e-65 2.4417345559451575e-63 0.0000000000000000e+00  1.3392025470129617e-62 2.2067299635921254e-62 0.0000000000000000e+00  8.0230448555763513e-63 8.3218810204259676e-62 0.0000000000000000e+00  6.8715546919669497e-61 1.1067336409841512e-60 0.0000000000000000e+00  4.0242565003440013e-60 7.0341797266405716e-60 0.0000000000000000e+00  -2.8179271202084753e-60 7.6787119700766070e-60 0.0000000000000000e+00  5.6035227196573756e-59 1.1408798111125774e-58 0.0000000000000000e+00  -1.7382863777949858e-59 1.1632910203439144e-58 0.0000000000000000e+00  -2.9660508777844984e-59 6.8147366518178585e-59 0.0000000000000000e+00  1.7791341929372939e-58 3.3186750256549138e-58 0.0000000000000000e+00  7.2045881783662892e-58 2.0953064451839906e-57 0.0000000000000000e+00  2.8195594722476660e-57 6.2567245551291199e-57 0.0000000000000000e+00  -3.3549714595227733e-57 5.7092230761758768e-57 0.0000000000000000e+00  -3.4658036267440577e-58 1.0947902992235867e-57 0.0000000000000000e+00  1.8771270123118071e-56 2.9482823791767815e-56 0.0000000000000000e+00  -1.3880618317600768e-56 3.5188311700741815e-56 0.0000000000000000e+00  1.1702040962645731e-56 2.9036000710842278e-56 0.0000000000000000e+00  8.5780905445925558e-56 2.1049955768357032e-55 0.0000000000000000e+00  -2.4366310488292810e-56 5.7418138278056358e-55 0.0000000000000000e+00  5.1046708089233966e-57 8.6550755175467665e-57 0.0000000000000000e+00  5.4309614760211123e-56 1.3861978423338107e-55 0.0000000000000000e+00  1.5168841380381685e-55 6.1820797055970770e-55 0.0000000000000000e+00  -2.1854880378781581e-55 3.4999587972332125e-55 0.0000000000000000e+00  9.6125139092324394e-55 1.7301025924352853e-54 0.0000000000000000e+00  -4.3014202392698283e-55 4.3593126769521404e-54 0.0000000000000000e+00  -2.2205164289718494e-55 2.6810281460400892e-54 0.0000000000000000e+00  -9.3634671291909185e-56 9.4351841526952322e-55 0.0000000000000000e+00  -1.1022457972388827e-55 1.8160320700234976e-55 0.0000000000000000e+00  2.6895078559979104e-54 5.2481823654364317e-54 0.0000000000000000e+00  -2.1032415776864251e-54 4.1291243216586163e-54 0.0000000000000000e+00  -7.0008159030167245e-55 8.0512666755042304e-55 0.0000000000000000e+00  -1.2846020239120468e-55 2.7090127215554167e-55 0.0000000000000000e+00  9.0508880478898848e-55 1.4481072606325215e-54 0.0000000000000000e+00  9.2012728530014752e-55 6.1582815132650518e-54 0.0000000000000000e+00  -1.0969004213057158e-54 5.8982786403405876e-54 0.0000000000000000e+00  5.0063999877737729e-55 4.6499396198398437e-54 0.0000000000000000e+00  1.8706798770320975e-56 5.7945314894918320e-54 0.0000000000000000e+00  2.9335240136501913e-55 6.1527415976013896e-54 0.0000000000000000e+00  -1.2264991687536498e-54 2.0449834894115067e-54 0.0000000000000000e+00  -6.2856755442420837e-55 1.4730211601907285e-53 0.0000000000000000e+00  4.3402967237162921e-54 7.4617824818132522e-54 0.0000000000000000e+00  -4.2281430365637908e-54 8.1063268242107070e-54 0.0000000000000000e+00  1.8695359278521968e-54 3.9515846892906737e-54 0.0000000000000000e+00  -7.1782458679942189e-55 9.5038046054277110e-54 0.0000000000000000e+00  1.2943093472361556e-54 9.3257986507722081e-54 0.0000000000000000e+00  -1.6408986120996390e-54 4.4039278968582173e-54 0.0000000000000000e+00  -9.0168401225628414e-55 2.4097099176457724e-54 0.0000000000000000e+00  3.2447372665295697e-55 1.2980893526579816e-54 0.0000000000000000e+00  2.5857904593979051e-55 2.5365327821675745e-54 0.0000000000000000e+00  -7.7306376878840655e-56 3.4909409803400463e-54 0.0000000000000000e+00  -6.9476141050345040e-55 1.4862454929760840e-54 0.0000000000000000e+00  2.3226883046466435e-55 4.4102313154465002e-55 0.0000000000000000e+00  -2.2594818212545529e-55 6.0403095807988566e-55 0.0000000000000000e+00  4.9183555342329678e-56 2.3945781563221037e-55 0.0000000000000000e+00  1.8244011999766717e-55 9.5110031019813178e-55 0.0000000000000000e+00  -3.2372367015526671e-55 5.3272982943384806e-55 0.0000000000000000e+00  -1.5609615729912175e-56 4.8346522674214216e-56 0.0000000000000000e+00  -1.1169840809779754e-57 1.1342305221521794e-56 0.0000000000000000e+00  6.6238274572327934e-57 2.3498241386678652e-56 0.0000000000000000e+00  -8.8391552514464591e-57 1.5091430316197633e-56 0.0000000000000000e+00  1.7120631462728672e-57 2.8733015447276993e-57 0.0000000000000000e+00  -1.2244357844539672e-57 2.7340580179596835e-57 0.0000000000000000e+00  5.0960303098416592e-57 7.7686654501158209e-57 0.0000000000000000e+00  -4.4700683664440398e-57 1.1284915605217201e-56 0.0000000000000000e+00  -1.7885533588410602e-58 9.4086176823743101e-58 0.0000000000000000e+00  -2.3608586357091231e-58 4.6699494765363869e-58 0.0000000000000000e+00  -7.7792867264902091e-61 8.8109005874316836e-59 0.0000000000000000e+00  -2.4170067991573345e-59 6.4397956436924305e-59 0.0000000000000000e+00  -7.0363899813087671e-60 2.5045263314842053e-59 0.0000000000000000e+00  -4.3449649474412315e-60 2.2412658165186844e-59 0.0000000000000000e+00  -3.0341661585111559e-60 7.1865207193509370e-60 0.0000000000000000e+00  -8.4444451879032599e-62 4.4402931625409218e-61 0.0000000000000000e+00  -1.0666499253447209e-61 2.2401600119881802e-61 0.0000000000000000e+00  -3.5597753755758215e-62 5.6931521903369002e-62 0.0000000000000000e+00  -3.8816164580861367e-64 6.7174500737090901e-64 0.0000000000000000e+00  -2.4156327404614579e-65 5.1818829903129732e-65 0.0000000000000000e+00  3.6830161322028133e-66 1.0368808113642643e-65 0.0000000000000000e+00  -4.8171898136781843e-66 9.2802348142489840e-66 0.0000000000000000e+00  -6.6663529169083486e-68 2.7735726482972538e-67 0.0000000000000000e+00  -7.8197230544457856e-68 1.2943289739060730e-67 0.0000000000000000e+00  -8.0312641054302846e-69 1.1754974307580557e-68 0.0000000000000000e+00  -5.6157705278558020e-70 9.5340361160754786e-70 0.0000000000000000e+00  -3.7698718815797548e-71 6.8262174750019291e-71 0.0000000000000000e+00  -1.8747006389593686e-72 3.2056940957468547e-72 0.0000000000000000e+00  -1.2163145425748826e-73 2.7278991466544870e-73 0.0000000000000000e+00  -4.4165847774011689e-75 1.2915284178642422e-74 0.0000000000000000e+00  -2.5468535240093467e-75 4.2422511756589364e-75 0.0000000000000000e+00  -9.7709466046237010e-76 3.5565272136497517e-76 0.0000000000000000e+00  -1.6206053941555225e-75 -2.3878593818746515e-76 0.0000000000000000e+00  -2.4504509831232568e-74 1.1577387334468723e-74 0.0000000000000000e+00  -3.6794441691808700e-74 1.5476551886377793e-75 0.0000000000000000e+00  -3.8859505332769770e-73 1.4309282799790610e-73 0.0000000000000000e+00  -1.0255062731695658e-71 6.2227625964563880e-72 0.0000000000000000e+00  -6.7532172913754276e-71 3.6971791215072553e-71 0.0000000000000000e+00  -1.0611929233034834e-70 3.8891687401446061e-72 0.0000000000000000e+00  -8.9134380719391387e-70 3.2972852322448211e-70 0.0000000000000000e+00  -2.1346804326919808e-68 1.2808838451673147e-68 0.0000000000000000e+00  -1.0264210865297797e-67 5.0851382281629331e-68 0.0000000000000000e+00  -1.0099888885269885e-67 -5.9918845643524878e-68 0.0000000000000000e+00  -3.1762277636126600e-66 1.7360382230042831e-66 0.0000000000000000e+00  -3.1972630760646999e-65 1.8198854333140709e-65 0.0000000000000000e+00  -5.3895061700964495e-65 5.0095616805487658e-66 0.0000000000000000e+00  -4.4468544070909092e-64 1.4362001275523890e-64 0.0000000000000000e+00  -7.0273437603801199e-63 4.3229391204330254e-63 0.0000000000000000e+00  -1.5095837245244834e-62 3.7143852453647360e-63 0.0000000000000000e+00  -8.4493383532088170e-62 1.9495555248579357e-62 0.0000000000000000e+00  -1.3626202059922741e-60 8.4299144057649492e-61 0.0000000000000000e+00  -2.4201144824990892e-60 3.3436095954736038e-61 0.0000000000000000e+00  -2.1239836138563036e-59 7.3142946816930430e-60 0.0000000000000000e+00  -2.4320504851853550e-58 1.4755010560629167e-58 0.0000000000000000e+00  -2.5777767430608939e-58 -9.2866497169596539e-59 0.0000000000000000e+00  -6.0072955860316834e-57 2.7422386056904886e-57 0.0000000000000000e+00  -2.4969357108478244e-56 1.2198911184229486e-56 0.0000000000000000e+00  -5.5534780512841592e-56 -8.5180981256101009e-57 0.0000000000000000e+00  -1.0185039068340655e-54 6.3679498501479787e-55 0.0000000000000000e+00  -1.1166963914773180e-54 -3.3990853197961118e-55 0.0000000000000000e+00  -2.4223259266755109e-53 1.2452133506041770e-53 0.0000000000000000e+00  -6.6270010609127278e-53 2.9275870870810118e-53 0.0000000000000000e+00  -4.3705118902684062e-52 1.1995981968741076e-52 0.0000000000000000e+00  -2.6844088001735057e-51 1.6255442094148659e-51 0.0000000000000000e+00  -7.6643122444158806e-51 -2.0589486780898312e-52 0.0000000000000000e+00  -7.2464665326213635e-50 4.4840756698676974e-50 0.0000000000000000e+00  -1.6159151322493473e-49 -1.4331818215674649e-50 0.0000000000000000e+00  -1.7398537746503035e-48 9.8329412670866398e-49 0.0000000000000000e+00  -4.3400458312990482e-48 -1.9681686120091598e-49 0.0000000000000000e+00  -2.0240710976627479e-47 1.0781687949762030e-47 0.0000000000000000e+00  -1.1046768581095021e-46 1.8434645344699671e-47 0.0000000000000000e+00  -1.0266993328607829e-46 2.3851446714233800e-47 0.0000000000000000e+00  -1.2448841184631973e-45 5.0924785096463978e-46 0.0000000000000000e+00  -8.7021051945350588e-46 -5.4963550173982820e-46 0.0000000000000000e+00  -1.3480346396876290e-44 7.8104739241700455e-45 0.0000000000000000e+00  -5.8047900572153503e-44 1.3294919304907983e-44 0.0000000000000000e+00  -3.6095054908360624e-44 -1.6922771297526136e-44 0.0000000000000000e+00  -1.1447929905797607e-43 6.2814932410668134e-44 0.0000000000000000e+00  -8.4211152725021617e-43 2.2377373229696268e-43 0.0000000000000000e+00  -1.9301463913606456e-42 1.9085981563647951e-43 0.0000000000000000e+00  -2.5127983940046929e-42 5.8951837195734085e-44 0.0000000000000000e+00  -2.0155223313948736e-42 -1.8820011199878787e-43 0.0000000000000000e+00  -8.6220363223094351e-43 -2.4208437813239001e-43 0.0000000000000000e+00  -1.1347112490762995e-43 -6.2294294206883461e-44 0.0000000000000000e+00  -3.8651810033808087e-44 1.7878324568025451e-44 0.0000000000000000e+00  -6.3241914004973379e-44 -1.0475030442902987e-44 0.0000000000000000e+00  -1.5038614395999188e-44 -7.6129782312341761e-45 0.0000000000000000e+00  -9.9524967165059368e-46 5.4891986950084366e-46 0.0000000000000000e+00  -1.4083409678754926e-45 -5.2203811733907215e-46 0.0000000000000000e+00  -1.1231834723767587e-46 -2.7677928437318229e-47 0.0000000000000000e+00  -1.0203174617503651e-46 -2.0813394155861367e-47 0.0000000000000000e+00  -1.8725167682511899e-47 -1.1625603478184010e-47 0.0000000000000000e+00  -4.0845303370693790e-48 1.9589198017496561e-49 0.0000000000000000e+00  -1.4967913866234465e-48 -9.1042276816290273e-49 0.0000000000000000e+00  -1.6307676771490597e-49 2.3831939433364816e-50 0.0000000000000000e+00  -7.5082530048441914e-50 -4.3078082360067321e-50 0.0000000000000000e+00  -8.2396487733685767e-51 6.2154979763944745e-52 0.0000000000000000e+00  -3.1666473086579389e-51 -1.7412576743178894e-51 0.0000000000000000e+00  -5.1168875537260629e-52 -1.1221864529266598e-52 0.0000000000000000e+00  -8.2488956477729320e-53 -3.4694620622985411e-53 0.0000000000000000e+00  -2.6778433522132521e-53 -1.2888772194508388e-53 0.0000000000000000e+00  -1.1932721614503516e-54 3.1742738072841056e-55 0.0000000000000000e+00  -1.0718607893749287e-54 -6.6781115677017286e-55 0.0000000000000000e+00  -5.1421363094997900e-56 8.1777920510161873e-57 0.0000000000000000e+00  -2.3520673933123640e-56 -1.3014271634636057e-56 0.0000000000000000e+00  -4.8525396969434753e-57 -2.4820554460110320e-57 0.0000000000000000e+00  -2.4490300746148597e-58 8.4146877684810622e-59 0.0000000000000000e+00  -2.1727850938282504e-58 -1.3097490604904088e-58 0.0000000000000000e+00  -1.9973843676017305e-59 -6.0692398198077383e-60 0.0000000000000000e+00  -2.3784239848246473e-60 -3.3529217010563250e-61 0.0000000000000000e+00  -1.2983359983290404e-60 -7.5201872751893357e-61 0.0000000000000000e+00  -7.7100526485005305e-62 -2.1223572720041219e-62 0.0000000000000000e+00  -1.3620571234360388e-62 -2.9002364878589464e-63 0.0000000000000000e+00  -6.6716989077674365e-63 -3.7529208974168674e-63 0.0000000000000000e+00  -4.7973508947965153e-64 -1.8046377911965388e-64 0.0000000000000000e+00  -4.3631130562102544e-65 9.5024214153454064e-67 0.0000000000000000e+00  -2.9600881156657962e-65 -1.6499216864157986e-65 0.0000000000000000e+00  -3.4262747537818053e-66 -1.9757510168825106e-66 0.0000000000000000e+00  -8.9597190790842979e-68 5.4453070730584612e-68 0.0000000000000000e+00  -8.6604842597866096e-68 -4.1544791362715612e-68 0.0000000000000000e+00  -2.0747791132716064e-68 -1.2787375116458778e-68 0.0000000000000000e+00  -1.1348805354471561e-69 -5.1128407904728970e-70 0.0000000000000000e+00  -8.7885007745568264e-71 1.3734561931517228e-71 0.0000000000000000e+00  -6.9214408599104579e-71 -3.6450904134146063e-71 0.0000000000000000e+00  -1.2502275272656314e-71 -7.6413407524432402e-72 0.0000000000000000e+00  -5.9882436430507610e-73 -2.7454692498184953e-73 0.0000000000000000e+00  -3.9221203122688522e-74 7.4089821266298983e-75 0.0000000000000000e+00  -3.1588009170784708e-74 -1.4770246518908244e-74 0.0000000000000000e+00  -6.5937202151581413e-75 -3.3543690177585849e-75 0.0000000000000000e+00  -7.1807612260022085e-76 -3.1063993909112814e-76 0.0000000000000000e+00  -8.5485359586406888e-76 -1.6231436810541033e-75 0.0000000000000000e+00  -4.7713411923158861e-75 -1.3947864869273339e-74 0.0000000000000000e+00  4.3592389886630388e-75 -8.3020378092505333e-75 0.0000000000000000e+00  -1.6264008864040727e-73 -3.4298440069251374e-73 0.0000000000000000e+00  -9.2616907024294559e-71 -1.0090056668108959e-70 0.0000000000000000e+00  -7.4829373695122468e-70 -1.3197351362789719e-69 0.0000000000000000e+00  -1.0944154918542678e-69 -3.6546614737011677e-69 0.0000000000000000e+00  -7.7291563935706037e-68 -1.7140970633514513e-67 0.0000000000000000e+00  -6.4997800879071279e-68 -3.2625412820291304e-67 0.0000000000000000e+00  -6.7556133050855426e-66 -1.3528849503497599e-65 0.0000000000000000e+00  -4.4927415323553667e-66 -2.1338075707949758e-65 0.0000000000000000e+00  -9.0109907391555722e-65 -1.5621999907799761e-64 0.0000000000000000e+00  1.7095046205016857e-65 -2.1025999334650924e-64 0.0000000000000000e+00  -4.2436031633294442e-62 -6.4270698026596268e-62 0.0000000000000000e+00  -6.9397921525647217e-62 -1.7250792722114153e-61 0.0000000000000000e+00  -2.3048395093235329e-62 -2.7301689097552029e-61 0.0000000000000000e+00  -5.6868437659138143e-60 -1.1401041825972013e-59 0.0000000000000000e+00  4.7142693325128610e-60 -1.4984536255640573e-59 0.0000000000000000e+00  -2.8695333363224532e-59 -4.7702036279119167e-59 0.0000000000000000e+00  8.7174548876783698e-60 -6.0793575175858509e-59 0.0000000000000000e+00  2.2957612800050425e-59 -3.9534121301482526e-59 0.0000000000000000e+00  -5.5659811698752935e-58 -8.9923577110083477e-58 0.0000000000000000e+00  -1.3612328277353312e-59 -1.2603514419850020e-57 0.0000000000000000e+00  -4.5700772506402707e-57 -1.1675637228791971e-56 0.0000000000000000e+00  5.6603026468288051e-57 -8.6258428581292790e-57 0.0000000000000000e+00  -5.2504779769714263e-57 -7.3830621015563191e-57 0.0000000000000000e+00  -1.7380030309667061e-56 -3.7883646477299585e-56 0.0000000000000000e+00  2.1238204125495047e-56 -4.0529407378784454e-56 0.0000000000000000e+00  -4.9139778592990297e-57 -9.2428576228011076e-57 0.0000000000000000e+00  -7.9712966472256474e-56 -2.0378421695139274e-55 0.0000000000000000e+00  6.2311496281655941e-56 -5.0721111068230271e-55 0.0000000000000000e+00  -4.2045702794568182e-55 -7.2926253530005164e-55 0.0000000000000000e+00  -4.8282188013633188e-56 -1.8362840849968117e-54 0.0000000000000000e+00  1.6248715270440052e-55 -5.7271178081731125e-55 0.0000000000000000e+00  -5.0743179519652986e-55 -1.6800345869708416e-54 0.0000000000000000e+00  -2.2048541128159299e-54 -7.0886999397590000e-54 0.0000000000000000e+00  2.5213918301653370e-54 -6.0601286256878456e-54 0.0000000000000000e+00  -6.5673747121965907e-55 -2.3944039698212420e-54 0.0000000000000000e+00  5.1903915617208434e-55 -2.8164395941975693e-54 0.0000000000000000e+00  1.2477567324304592e-55 -1.4243774906487806e-54 0.0000000000000000e+00  -2.1259880254562222e-54 -3.4779956007839583e-54 0.0000000000000000e+00  5.5513356539846437e-55 -8.2264975689073342e-54 0.0000000000000000e+00  -3.8313371668821321e-54 -1.3576873203133522e-53 0.0000000000000000e+00  4.5696589530666877e-54 -7.6988337581517031e-54 0.0000000000000000e+00  1.9775726613004274e-55 -6.5014644855705267e-55 0.0000000000000000e+00  -4.6742886543246243e-54 -8.0215670997878738e-54 0.0000000000000000e+00  4.6978521312973591e-54 -7.8622354603431427e-54 0.0000000000000000e+00  -1.6173803114850704e-56 -1.3351882864864386e-55 0.0000000000000000e+00  1.0848432166228657e-56 -2.7686613893065202e-55 0.0000000000000000e+00  2.1475891411165035e-56 -9.8798459387524051e-56 0.0000000000000000e+00  -5.0647624974205939e-54 -9.3516474734479566e-54 0.0000000000000000e+00  5.4028688814217722e-54 -9.4163693608516385e-54 0.0000000000000000e+00  5.5245243914302749e-56 -1.0530309764284382e-55 0.0000000000000000e+00  -1.3946903346084719e-56 -6.2025752584519860e-56 0.0000000000000000e+00  -4.8682948773160241e-55 -9.0322326296934608e-55 0.0000000000000000e+00  -5.6641553503203411e-54 -1.0025625145110084e-53 0.0000000000000000e+00  4.3891515365014893e-54 -1.0510838758695683e-53 0.0000000000000000e+00  -2.9757929023018155e-54 -7.9711740397739222e-54 0.0000000000000000e+00  2.3786875326362097e-54 -8.5624776133697080e-54 0.0000000000000000e+00  2.1921472957816810e-54 -3.3190322175608876e-54 0.0000000000000000e+00  -5.3072616499747231e-55 -1.4766013568305381e-54 0.0000000000000000e+00  8.1658988677488693e-55 -1.5794805283866099e-54 0.0000000000000000e+00  -4.8099658458660769e-55 -9.7999084727093428e-55 0.0000000000000000e+00  5.0136431561253230e-55 -8.8928355599782262e-55 0.0000000000000000e+00  -1.5327500660636786e-56 -2.6804118196896986e-56 0.0000000000000000e+00  -4.3786543962042746e-56 -1.7185333791203752e-55 0.0000000000000000e+00  4.0931552351574679e-56 -1.7502746356272253e-55 0.0000000000000000e+00  4.7283564766213548e-57 -6.9074517460461258e-56 0.0000000000000000e+00  -2.6963572848254421e-56 -6.5199127683832378e-56 0.0000000000000000e+00  3.2284655805747127e-56 -6.4414465344557141e-56 0.0000000000000000e+00  -2.8083764745080935e-57 -2.8709237996241931e-56 0.0000000000000000e+00  1.2749750600603502e-56 -3.0131118370544434e-56 0.0000000000000000e+00  9.8680157667706115e-58 -2.4075997116268144e-57 0.0000000000000000e+00  -4.3134894868399478e-57 -7.6018443494593437e-57 0.0000000000000000e+00  4.1899667780734680e-57 -1.1042323700111634e-56 0.0000000000000000e+00  3.0807009561540498e-58 -1.0238920067493216e-57 0.0000000000000000e+00  1.4188009991828876e-58 -5.037886