<?xml version="1.0"?>
<VTKFile type="UnstructuredGrid"  version="0.1"  >
<UnstructuredGrid>
<Piece  NumberOfPoints="11902" NumberOfCells="23402">
<Points>
<DataArray  type="Float64"  NumberOfComponents="3"  format="ascii">-5 -5 0  5 -5 0  5 5 0  -5 5 0  1.124448875308128 0.0008350657151814252 0  -4.9 -5 0  -4.8 -5 0  -4.7 -5 0  -4.6 -5 0  -4.5 -5 0  -4.4 -5 0  -4.3 -5 0  -4.2 -5 0  -4.1 -5 0  -4 -5 0  -3.9 -5 0  -3.8 -5 0  -3.7 -5 0  -3.6 -5 0  -3.5 -5 0  -3.4 -5 0  -3.3 -5 0  -3.2 -5 0  -3.1 -5 0  -3 -5 0  -2.9 -5 0  -2.8 -5 0  -2.7 -5 0  -2.6 -5 0  -2.5 -5 0  -2.4 -5 0  -2.3 -5 0  -2.2 -5 0  -2.1 -5 0  -2 -5 0  -1.9 -5 0  -1.8 -5 0  -1.7 -5 0  -1.6 -5 0  -1.5 -5 0  -1.4 -5 0  -1.3 -5 0  -1.2 -5 0  -1.1 -5 0  -1 -5 0  -0.9000000000000004 -5 0  -0.7999999999999998 -5 0  -0.7000000000000002 -5 0  -0.5999999999999996 -5 0  -0.5 -5 0  -0.4000000000000004 -5 0  -0.2999999999999998 -5 0  -0.2000000000000002 -5 0  -0.09999999999999964 -5 0  0 -5 0  0.09999999999999964 -5 0  0.2000000000000002 -5 0  0.2999999999999998 -5 0  0.4000000000000004 -5 0  0.5 -5 0  0.5999999999999996 -5 0  0.7000000000000002 -5 0  0.7999999999999998 -5 0  0.9000000000000004 -5 0  1 -5 0  1.1 -5 0  1.2 -5 0  1.3 -5 0  1.4 -5 0  1.5 -5 0  1.6 -5 0  1.7 -5 0  1.8 -5 0  1.9 -5 0  2 -5 0  2.1 -5 0  2.2 -5 0  2.3 -5 0  2.4 -5 0  2.5 -5 0  2.6 -5 0  2.7 -5 0  2.8 -5 0  2.9 -5 0  3 -5 0  3.1 -5 0  3.199999999999999 -5 0  3.300000000000001 -5 0  3.4 -5 0  3.5 -5 0  3.6 -5 0  3.699999999999999 -5 0  3.800000000000001 -5 0  3.9 -5 0  4 -5 0  4.1 -5 0  4.199999999999999 -5 0  4.300000000000001 -5 0  4.4 -5 0  4.5 -5 0  4.6 -5 0  4.699999999999999 -5 0  4.800000000000001 -5 0  4.9 -5 0  5 -4.9 0  5 -4.8 0  5 -4.7 0  5 -4.6 0  5 -4.5 0  5 -4.4 0  5 -4.3 0  5 -4.2 0  5 -4.1 0  5 -4 0  5 -3.9 0  5 -3.8 0  5 -3.7 0  5 -3.6 0  5 -3.5 0  5 -3.4 0  5 -3.3 0  5 -3.2 0  5 -3.1 0  5 -3 0  5 -2.9 0  5 -2.8 0  5 -2.7 0  5 -2.6 0  5 -2.5 0  5 -2.4 0  5 -2.3 0  5 -2.2 0  5 -2.1 0  5 -2 0  5 -1.9 0  5 -1.8 0  5 -1.7 0  5 -1.6 0  5 -1.5 0  5 -1.4 0  5 -1.3 0  5 -1.2 0  5 -1.1 0  5 -1 0  5 -0.9000000000000004 0  5 -0.7999999999999998 0  5 -0.7000000000000002 0  5 -0.5999999999999996 0  5 -0.5 0  5 -0.4000000000000004 0  5 -0.2999999999999998 0  5 -0.2000000000000002 0  5 -0.09999999999999964 0  5 0 0  5 0.09999999999999964 0  5 0.2000000000000002 0  5 0.2999999999999998 0  5 0.4000000000000004 0  5 0.5 0  5 0.5999999999999996 0  5 0.7000000000000002 0  5 0.7999999999999998 0  5 0.9000000000000004 0  5 1 0  5 1.1 0  5 1.2 0  5 1.3 0  5 1.4 0  5 1.5 0  5 1.6 0  5 1.7 0  5 1.8 0  5 1.9 0  5 2 0  5 2.1 0  5 2.2 0  5 2.3 0  5 2.4 0  5 2.5 0  5 2.6 0  5 2.7 0  5 2.8 0  5 2.9 0  5 3 0  5 3.1 0  5 3.199999999999999 0  5 3.300000000000001 0  5 3.4 0  5 3.5 0  5 3.6 0  5 3.699999999999999 0  5 3.800000000000001 0  5 3.9 0  5 4 0  5 4.1 0  5 4.199999999999999 0  5 4.300000000000001 0  5 4.4 0  5 4.5 0  5 4.6 0  5 4.699999999999999 0  5 4.800000000000001 0  5 4.9 0  4.9 5 0  4.8 5 0  4.7 5 0  4.6 5 0  4.5 5 0  4.4 5 0  4.3 5 0  4.2 5 0  4.1 5 0  4 5 0  3.9 5 0  3.8 5 0  3.7 5 0  3.6 5 0  3.5 5 0  3.4 5 0  3.3 5 0  3.2 5 0  3.1 5 0  3 5 0  2.9 5 0  2.8 5 0  2.7 5 0  2.6 5 0  2.5 5 0  2.4 5 0  2.3 5 0  2.2 5 0  2.1 5 0  2 5 0  1.9 5 0  1.8 5 0  1.7 5 0  1.6 5 0  1.5 5 0  1.4 5 0  1.3 5 0  1.2 5 0  1.1 5 0  1 5 0  0.9000000000000004 5 0  0.7999999999999998 5 0  0.7000000000000002 5 0  0.5999999999999996 5 0  0.5 5 0  0.4000000000000004 5 0  0.2999999999999998 5 0  0.2000000000000002 5 0  0.09999999999999964 5 0  0 5 0  -0.09999999999999964 5 0  -0.2000000000000002 5 0  -0.2999999999999998 5 0  -0.4000000000000004 5 0  -0.5 5 0  -0.5999999999999996 5 0  -0.7000000000000002 5 0  -0.7999999999999998 5 0  -0.9000000000000004 5 0  -1 5 0  -1.1 5 0  -1.2 5 0  -1.3 5 0  -1.4 5 0  -1.5 5 0  -1.6 5 0  -1.7 5 0  -1.8 5 0  -1.9 5 0  -2 5 0  -2.1 5 0  -2.2 5 0  -2.3 5 0  -2.4 5 0  -2.5 5 0  -2.6 5 0  -2.7 5 0  -2.8 5 0  -2.9 5 0  -3 5 0  -3.1 5 0  -3.199999999999999 5 0  -3.300000000000001 5 0  -3.4 5 0  -3.5 5 0  -3.6 5 0  -3.699999999999999 5 0  -3.800000000000001 5 0  -3.9 5 0  -4 5 0  -4.1 5 0  -4.199999999999999 5 0  -4.300000000000001 5 0  -4.4 5 0  -4.5 5 0  -4.6 5 0  -4.699999999999999 5 0  -4.800000000000001 5 0  -4.9 5 0  -5 4.9 0  -5 4.8 0  -5 4.7 0  -5 4.6 0  -5 4.5 0  -5 4.4 0  -5 4.3 0  -5 4.2 0  -5 4.1 0  -5 4 0  -5 3.9 0  -5 3.8 0  -5 3.7 0  -5 3.6 0  -5 3.5 0  -5 3.4 0  -5 3.3 0  -5 3.2 0  -5 3.1 0  -5 3 0  -5 2.9 0  -5 2.8 0  -5 2.7 0  -5 2.6 0  -5 2.5 0  -5 2.4 0  -5 2.3 0  -5 2.2 0  -5 2.1 0  -5 2 0  -5 1.9 0  -5 1.8 0  -5 1.7 0  -5 1.6 0  -5 1.5 0  -5 1.4 0  -5 1.3 0  -5 1.2 0  -5 1.1 0  -5 1 0  -5 0.9000000000000004 0  -5 0.7999999999999998 0  -5 0.7000000000000002 0  -5 0.5999999999999996 0  -5 0.5 0  -5 0.4000000000000004 0  -5 0.2999999999999998 0  -5 0.2000000000000002 0  -5 0.09999999999999964 0  -5 0 0  -5 -0.09999999999999964 0  -5 -0.2000000000000002 0  -5 -0.2999999999999998 0  -5 -0.4000000000000004 0  -5 -0.5 0  -5 -0.5999999999999996 0  -5 -0.7000000000000002 0  -5 -0.7999999999999998 0  -5 -0.9000000000000004 0  -5 -1 0  -5 -1.1 0  -5 -1.2 0  -5 -1.3 0  -5 -1.4 0  -5 -1.5 0  -5 -1.6 0  -5 -1.7 0  -5 -1.8 0  -5 -1.9 0  -5 -2 0  -5 -2.1 0  -5 -2.2 0  -5 -2.3 0  -5 -2.4 0  -5 -2.5 0  -5 -2.6 0  -5 -2.7 0  -5 -2.8 0  -5 -2.9 0  -5 -3 0  -5 -3.1 0  -5 -3.199999999999999 0  -5 -3.300000000000001 0  -5 -3.4 0  -5 -3.5 0  -5 -3.6 0  -5 -3.699999999999999 0  -5 -3.800000000000001 0  -5 -3.9 0  -5 -4 0  -5 -4.1 0  -5 -4.199999999999999 0  -5 -4.300000000000001 0  -5 -4.4 0  -5 -4.5 0  -5 -4.6 0  -5 -4.699999999999999 0  -5 -4.800000000000001 0  -5 -4.9 0  1.11900372677376 0.1003463863728149 0  1.101985301081182 0.1995744736365378 0  1.073277303920032 0.2973106590835336 0  1.035382917717407 0.3905730970304522 0  0.9867197501145096 0.4815392862526027 0  0.9288067509347003 0.567208422437289 0  0.86095748135253 0.6470251791400434 0  0.7839581694764718 0.7200855153749391 0  0.7000437026572267 0.7863602679995081 0  0.6091046997000013 0.845200460853487 0  0.511571686130516 0.8952716264521363 0  0.409042258216238 0.9366084742702603 0  0.3037338603582139 0.9690976080625562 0  0.1944297879885323 0.9912360854106131 0  0.08435751053485674 1.00417501514 0  -0.02698324553455496 1.006768916304934 0  -0.1380910868333763 0.9986629437264752 0  -0.2482180563478859 0.9815659162765523 0  -0.355896147933945 0.9547114156062771 0  -0.4597220584910546 0.9179686193351091 0  -0.5587453359838707 0.8725884795791785 0  -0.6525900324917605 0.8180094092525486 0  -0.7399410843505442 0.7555598220477466 0  -0.8201636711493587 0.6857280425131508 0  -0.8926075746148884 0.608138202761769 0  -0.9556979931068816 0.5250262695223716 0  -1.009974404795558 0.4372244970470155 0  -1.053613547851834 0.3444587212837407 0  -1.08649294327037 0.248885705692653 0  -1.108831615887116 0.150870592121896 0  -1.120194314673147 0.05083427809975759 0  -1.120221515307181 -0.04978210168992193 0  -1.108880176933268 -0.1496445104273383 0  -1.087700756106894 -0.247644447372745 0  -1.053527865547629 -0.3439433095375571 0  -1.010254942310872 -0.4361016040304331 0  -0.9562664657097353 -0.5241181204120592 0  -0.8933422210828067 -0.6069302534361066 0  -0.820891613927959 -0.6838058140305217 0  -0.7402055670543934 -0.7533140010457716 0  -0.6522401376636296 -0.8150903476127418 0  -0.5590942408684433 -0.8698766818072006 0  -0.4583852368318366 -0.9155044635808598 0  -0.3544425422364371 -0.9528423104134798 0  -0.2465939799533721 -0.9801731392600957 0  -0.1369538832071325 -0.997691828301017 0  -0.02625881999389938 -1.006280927497896 0  0.08476464265627377 -1.00312772422735 0  0.1957624275897889 -0.9899149235655507 0  0.304395758167569 -0.9677931842951423 0  0.4110337865065199 -0.9354422403229645 0  0.5123793867888156 -0.8943219227372413 0  0.6095663500137873 -0.844442385854272 0  0.7002886529848524 -0.786817245600649 0  0.7841391715891114 -0.7204576076519542 0  0.8606163085968358 -0.6465468263500032 0  0.9280384449811074 -0.566497575426184 0  0.9868630121862023 -0.4810916701242958 0  1.03641804227144 -0.3906666963784051 0  1.074269996267893 -0.296653133878816 0  1.102077618128533 -0.1990409377408174 0  1.119030883609349 -0.1000610394553617 0  -2.449145209570401 4.919191119689495 0  -2.449071254043894 -4.911666917089935 0  4.911618666908491 2.448736679850549 0  4.91963425974949 -2.450121866239678 0  2.446904940792086 -4.897103486309557 0  2.441314357725279 4.900821211439021 0  -4.91163585407446 -2.448753843927514 0  -4.911636067705434 2.448757590125531 0  -1.749119085552356 4.912554010678955 0  -1.744879532027641 -4.915933358877932 0  4.92211115731252 1.744831733053855 0  4.910854391210338 -1.748704308706416 0  -4.91112951444474 -1.748425588481434 0  -4.911939833922778 1.748161366513728 0  1.746429283107289 4.906525328487946 0  1.74791940792085 -4.894872530064776 0  -1.149306967501092 4.910663041249996 0  -1.130116327352662 -4.918420215888891 0  -4.911270645963111 -1.148601943534505 0  -4.911095873386722 1.148401372225363 0  1.14427125539813 -4.914683239415519 0  1.149311283179432 4.910655262371099 0  4.911428090626044 1.146882680813464 0  4.922004855445303 -1.152586228598442 0  -0.5469113469348658 -4.912012516284233 0  -0.5466704868766626 4.920510864038929 0  -4.910343931839695 -0.5490833269543441 0  -4.910369239946013 0.5476368467068891 0  4.909703849481981 -0.5494089094453654 0  4.921054212047582 0.5461150315292139 0  0.5427168133518625 -4.899185396258192 0  0.5514031536149703 4.917405487081796 0  -4.912677994747337 -3.048967444823425 0  4.919196714273742 3.046940358552249 0  4.912194727594437 -3.048954150257977 0  -4.913522070179271 3.046053625571219 0  3.055808243118618 -4.918158116841635 0  -3.049177074431999 -4.912147068540154 0  3.052732824468548 4.914211066895025 0  -3.048619427598679 4.913030570811987 0  -4.909579586164759 -0.04994515170994402 0  0.04513477005472774 -4.913978017382162 0  0.04958425711322142 4.920850902184638 0  4.916464369534875 -0.05132486679505027 0  3.5460213582941 -4.919569431399433 0  -3.5493369902567 4.91251135270
[...]
<PointData  Vectors="f_1206"> 
<DataArray  type="Float64"  Name="f_1206"  NumberOfComponents="3" format="ascii">2.6559658580597916e-76 2.6559658580597916e-76 0.0000000000000000e+00  -2.8445085011136539e-76 2.8445085011136539e-76 0.0000000000000000e+00  -8.5659604778844198e-78 -8.5659604778844198e-78 0.0000000000000000e+00  3.0308186857304783e-76 -3.0308186857304783e-76 0.0000000000000000e+00  -6.5174129957748284e-01 -1.3381273236970850e-02 0.0000000000000000e+00  4.1642945754507658e-75 6.6076722545216656e-75 0.0000000000000000e+00  2.0839907413141279e-75 2.0878580341484045e-74 0.0000000000000000e+00  -3.4011170696448803e-75 6.7674240784338493e-75 0.0000000000000000e+00  3.9943050916640996e-72 6.6732172682703161e-72 0.0000000000000000e+00  5.3085857060772035e-71 1.3465556918660510e-70 0.0000000000000000e+00  -7.8989242595121905e-72 4.5534373953022154e-71 0.0000000000000000e+00  3.2252517705646835e-69 6.1701413490394552e-69 0.0000000000000000e+00  5.1443290440985667e-68 9.4133549804542124e-68 0.0000000000000000e+00  -3.0504946620390433e-68 1.4988891568198312e-67 0.0000000000000000e+00  1.2718242524356935e-67 3.9858584245346260e-67 0.0000000000000000e+00  1.2782458667363288e-68 8.7781433910492748e-67 0.0000000000000000e+00  5.4241709437342509e-64 8.8453139264185384e-64 0.0000000000000000e+00  4.7707926680780294e-65 2.4417557036127449e-63 0.0000000000000000e+00  1.3409293524745162e-62 2.2054147657967710e-62 0.0000000000000000e+00  8.0305936542243535e-63 8.3212371151546602e-62 0.0000000000000000e+00  6.8818857477654904e-61 1.1059798200288959e-60 0.0000000000000000e+00  4.0308214955705902e-60 7.0295195875580534e-60 0.0000000000000000e+00  -2.8229288161667088e-60 7.6821487885231116e-60 0.0000000000000000e+00  5.6136151349500622e-59 1.1401898551576278e-58 0.0000000000000000e+00  -1.7418059204419715e-59 1.1635187405706392e-58 0.0000000000000000e+00  -2.9724215139246653e-59 6.8187315253482932e-59 0.0000000000000000e+00  1.7830775093993430e-58 3.3162464853498856e-58 0.0000000000000000e+00  7.2206248671649595e-58 2.0943184980525786e-57 0.0000000000000000e+00  2.8265219347219226e-57 6.2527257552243731e-57 0.0000000000000000e+00  -3.3638289505371860e-57 5.7140591297336179e-57 0.0000000000000000e+00  -3.4753814971537620e-58 1.0952936435214908e-57 0.0000000000000000e+00  1.8824428362589309e-56 2.9455496070541874e-56 0.0000000000000000e+00  -1.3923565979363997e-56 3.5208485414216258e-56 0.0000000000000000e+00  1.1737691759431084e-56 2.9018963898203593e-56 0.0000000000000000e+00  8.6049791781412224e-56 2.1037492278681299e-55 0.0000000000000000e+00  -2.4490274448425774e-56 5.7420785616106581e-55 0.0000000000000000e+00  5.1224225032106291e-57 8.6479336969965930e-57 0.0000000000000000e+00  5.4500566249624791e-56 1.3854414468823075e-55 0.0000000000000000e+00  1.5222645842066823e-55 6.1799678678311950e-55 0.0000000000000000e+00  -2.1940016609892547e-55 3.5027113964941581e-55 0.0000000000000000e+00  9.6500165179611596e-55 1.7288936508736746e-54 0.0000000000000000e+00  -4.3213062988110881e-55 4.3596740081598686e-54 0.0000000000000000e+00  -2.2309000194835473e-55 2.6811930956981747e-54 0.0000000000000000e+00  -9.4060293988020639e-56 9.4359390632136466e-55 0.0000000000000000e+00  -1.1070732663707351e-55 1.8170630775425118e-55 0.0000000000000000e+00  2.7012941528032532e-54 5.2456724492531041e-54 0.0000000000000000e+00  -2.1127191592786802e-54 4.1308022236788615e-54 0.0000000000000000e+00  -7.0328217559403517e-55 8.0562764758596649e-55 0.0000000000000000e+00  -1.2906022369103365e-55 2.7097159125559295e-55 0.0000000000000000e+00  9.0930924390098631e-55 1.4476008201589281e-54 0.0000000000000000e+00  9.2437343903544160e-55 6.1576268449470929e-54 0.0000000000000000e+00  -1.1021899199755610e-54 5.8983705948934058e-54 0.0000000000000000e+00  5.0299283989030681e-55 4.6496166811262897e-54 0.0000000000000000e+00  1.8770295983616099e-56 5.7942616030113516e-54 0.0000000000000000e+00  2.9475768867131824e-55 6.1524628568838461e-54 0.0000000000000000e+00  -1.2323794580370395e-54 2.0448424808197597e-54 0.0000000000000000e+00  -6.3141116407990281e-55 1.4729020834609065e-53 0.0000000000000000e+00  4.3609718235463923e-54 7.4630385883264798e-54 0.0000000000000000e+00  -4.2481058644691028e-54 8.1045376179301235e-54 0.0000000000000000e+00  1.8783155697077416e-54 3.9524921626234959e-54 0.0000000000000000e+00  -7.2090745451313963e-55 9.5029326785365388e-54 0.0000000000000000e+00  1.3004962936602838e-54 9.3263133446032087e-54 0.0000000000000000e+00  -1.6483015488163164e-54 4.4026346614647139e-54 0.0000000000000000e+00  -9.0561995186654251e-55 2.4088515057718459e-54 0.0000000000000000e+00  3.2593633779170701e-55 1.2983528543524522e-54 0.0000000000000000e+00  2.5978185426081071e-55 2.5367183421490742e-54 0.0000000000000000e+00  -7.7477960295497033e-56 3.4907482219783116e-54 0.0000000000000000e+00  -6.9755968932675052e-55 1.4854187242900265e-54 0.0000000000000000e+00  2.3320407084236634e-55 4.4129950797115684e-55 0.0000000000000000e+00  -2.2680067609356849e-55 6.0373493053751682e-55 0.0000000000000000e+00  4.9379138274323372e-56 2.3951831232262886e-55 0.0000000000000000e+00  1.8315432666163128e-55 9.5133118353178928e-55 0.0000000000000000e+00  -3.2485371855172054e-55 5.3227904918912047e-55 0.0000000000000000e+00  -1.5660526065737341e-56 4.8324090001585028e-56 0.0000000000000000e+00  -1.1200508475879438e-57 1.1340625805298364e-56 0.0000000000000000e+00  6.6459430058675288e-57 2.3507707173280316e-56 0.0000000000000000e+00  -8.8653347300704892e-57 1.5078575994147003e-56 0.0000000000000000e+00  1.7171305916653565e-57 2.8757911525352798e-57 0.0000000000000000e+00  -1.2278087631274729e-57 2.7322854048963747e-57 0.0000000000000000e+00  5.1096837996807075e-57 7.7760131218088852e-57 0.0000000000000000e+00  -4.4807628760945517e-57 1.1278645683345376e-56 0.0000000000000000e+00  -1.7928228260889003e-58 9.4061156051828035e-58 0.0000000000000000e+00  -2.3661450742857786e-58 4.6667238388802933e-58 0.0000000000000000e+00  -7.7958908139160772e-61 8.8107964792375108e-59 0.0000000000000000e+00  -2.4218586337971122e-59 6.4366534347498668e-59 0.0000000000000000e+00  -7.0496592762671970e-60 2.5036412507835095e-59 0.0000000000000000e+00  -4.3516091879556318e-60 2.2407807618096037e-59 0.0000000000000000e+00  -3.0389262911705870e-60 7.1831045894838643e-60 0.0000000000000000e+00  -8.4575408047669042e-62 4.4393512083013214e-61 0.0000000000000000e+00  -1.0681712694052641e-61 2.2390370561175899e-61 0.0000000000000000e+00  -3.5642961321090723e-62 5.6897087435460860e-62 0.0000000000000000e+00  -3.8862684718587761e-64 6.7138628906910434e-64 0.0000000000000000e+00  -2.4181865989232122e-65 5.1798634903959640e-65 0.0000000000000000e+00  3.6871504972952411e-66 1.0372044714756145e-65 0.0000000000000000e+00  -4.8213017752702553e-66 9.2768780242495689e-66 0.0000000000000000e+00  -6.6718148062266314e-68 2.7731251198310560e-67 0.0000000000000000e+00  -7.8252431131038905e-68 1.2938698943471866e-67 0.0000000000000000e+00  -8.0361304646165116e-69 1.1750879719326155e-68 0.0000000000000000e+00  -5.6186603559245854e-70 9.5315827498781505e-70 0.0000000000000000e+00  -3.7714504039695045e-71 6.8248663525418099e-71 0.0000000000000000e+00  -1.8753174857686374e-72 3.2051627977114970e-72 0.0000000000000000e+00  -1.2165514817119530e-73 2.7276933946663502e-73 0.0000000000000000e+00  -4.4173394949042301e-75 1.2914629366973668e-74 0.0000000000000000e+00  -2.5470635147371029e-75 4.2420685713471901e-75 0.0000000000000000e+00  -9.7705911527040997e-76 3.5568367344797535e-76 0.0000000000000000e+00  -1.6206946486868221e-75 -2.3886411827156583e-76 0.0000000000000000e+00  -2.4501814461281198e-74 1.1579744231408012e-74 0.0000000000000000e+00  -3.6793902280780946e-74 1.5481300471700810e-75 0.0000000000000000e+00  -3.8854397583654249e-73 1.4313770591556041e-73 0.0000000000000000e+00  -1.0251951722710019e-71 6.2255342433773419e-72 0.0000000000000000e+00  -6.7509999047334857e-71 3.6991760379957688e-71 0.0000000000000000e+00  -1.0611654803571499e-70 3.8916738254252010e-72 0.0000000000000000e+00  -8.9111186890789115e-70 3.2993960605678109e-70 0.0000000000000000e+00  -2.1335927384195551e-68 1.2818984170985707e-68 0.0000000000000000e+00  -1.0259390746327288e-67 5.0897151514155351e-68 0.0000000000000000e+00  -1.0106306506874279e-67 -5.9981323964533604e-68 0.0000000000000000e+00  -3.1743460389939969e-66 1.7378743558334508e-66 0.0000000000000000e+00  -3.1950968395444099e-65 1.8220543072236540e-65 0.0000000000000000e+00  -5.3888599987811141e-65 5.0162051522485099e-66 0.0000000000000000e+00  -4.4450148433641371e-64 1.4380798487040208e-64 0.0000000000000000e+00  -7.0211990818569673e-63 4.3295109939220901e-63 0.0000000000000000e+00  -1.5090219641163156e-62 3.7205882683277732e-63 0.0000000000000000e+00  -8.4464766715300032e-62 1.9526361429131913e-62 0.0000000000000000e+00  -1.3612428334392238e-60 8.4458795427284253e-61 0.0000000000000000e+00  -2.4195402615529843e-60 3.3505378666965055e-61 0.0000000000000000e+00  -2.1227294690635895e-59 7.3293366188671304e-60 0.0000000000000000e+00  -2.4293723271362394e-58 1.4789169901733672e-58 0.0000000000000000e+00  -2.5795267249197463e-58 -9.3101321603897257e-59 0.0000000000000000e+00  -6.0020977950129084e-57 2.7492630501846637e-57 0.0000000000000000e+00  -2.4945541921557999e-56 1.2233030134602496e-56 0.0000000000000000e+00  -5.5552312574521815e-56 -8.5474872710385950e-57 0.0000000000000000e+00  -1.0172291149402277e-54 6.3876235928766109e-55 0.0000000000000000e+00  -1.1173838674851486e-54 -3.4104411481756408e-55 0.0000000000000000e+00  -2.4198029327856846e-53 1.2494204368285669e-53 0.0000000000000000e+00  -6.6210809993608685e-53 2.9382562809499314e-53 0.0000000000000000e+00  -4.3680687396161805e-52 1.2038868060973294e-52 0.0000000000000000e+00  -2.6811761221507807e-51 1.6319970352663029e-51 0.0000000000000000e+00  -7.6645756323033213e-51 -2.0732505519231785e-52 0.0000000000000000e+00  -7.2378804808652638e-50 4.5033757965408866e-50 0.0000000000000000e+00  -1.6161359899971483e-49 -1.4407766934009520e-50 0.0000000000000000e+00  -1.7380850875192797e-48 9.8784518194245187e-49 0.0000000000000000e+00  -4.3402324076218740e-48 -1.9803350790616585e-49 0.0000000000000000e+00  -2.0223161117018616e-47 1.0835097457767772e-47 0.0000000000000000e+00  -1.1043497097066980e-46 1.8522830039549511e-47 0.0000000000000000e+00  -1.0263710457425260e-46 2.3977498651489862e-47 0.0000000000000000e+00  -1.2441820914623350e-45 5.1194301175053174e-46 0.0000000000000000e+00  -8.7079931243190836e-46 -5.5269084409671083e-46 0.0000000000000000e+00  -1.3472084683019322e-44 7.8539804926634467e-45 0.0000000000000000e+00  -5.8033192813277662e-44 1.3368891461211732e-44 0.0000000000000000e+00  -3.6104613986179350e-44 -1.7021333054743151e-44 0.0000000000000000e+00  -1.1444272625939961e-43 6.3180251624758104e-44 0.0000000000000000e+00  -8.4198123568771075e-43 2.2507870059614505e-43 0.0000000000000000e+00  -1.9299806134082034e-42 1.9197354166180780e-43 0.0000000000000000e+00  -2.5126225230994162e-42 5.9300450939244201e-44 0.0000000000000000e+00  -2.0153565762463071e-42 -1.8929846498617111e-43 0.0000000000000000e+00  -8.6206968432503193e-43 -2.4349773505229653e-43 0.0000000000000000e+00  -1.1343536031445687e-43 -6.2656726545980406e-44 0.0000000000000000e+00  -3.8661834566120475e-44 1.7982461144113564e-44 0.0000000000000000e+00  -6.3229605903780382e-44 -1.0532936904315345e-44 0.0000000000000000e+00  -1.5030588104506242e-44 -7.6553900850551600e-45 0.0000000000000000e+00  -9.9583609416741560e-46 5.5197133530434912e-46 0.0000000000000000e+00  -1.4076252268486897e-45 -5.2480383674116944e-46 0.0000000000000000e+00  -1.1228001250325657e-46 -2.7823881335601402e-47 0.0000000000000000e+00  -1.0199611839274355e-46 -2.0914641672431118e-47 0.0000000000000000e+00  -1.8706333329681131e-47 -1.1683322492542653e-47 0.0000000000000000e+00  -4.0847061365428389e-48 1.9711814721040633e-49 0.0000000000000000e+00  -1.4951589865006523e-48 -9.1464601748976206e-49 0.0000000000000000e+00  -1.6311616078771993e-49 2.3951220962530025e-50 0.0000000000000000e+00  -7.5000170022399886e-50 -4.3263664620206041e-50 0.0000000000000000e+00  -8.2407211238687341e-51 6.2470993428589121e-52 0.0000000000000000e+00  -3.1631903985100248e-51 -1.7481857317479076e-51 0.0000000000000000e+00  -5.1146000910271125e-52 -1.1261686480437921e-52 0.0000000000000000e+00  -8.2418870697303462e-53 -3.4821173936287411e-53 0.0000000000000000e+00  -2.6752339588324696e-53 -1.2932424434519435e-53 0.0000000000000000e+00  -1.1939136109929107e-54 3.1848831243534202e-55 0.0000000000000000e+00  -1.0705248101433587e-54 -6.6987580390389335e-55 0.0000000000000000e+00  -5.1438165491141829e-56 8.2059381476705175e-57 0.0000000000000000e+00  -2.3495285526344199e-56 -1.3050670972824329e-56 0.0000000000000000e+00  -4.8478355370070812e-57 -2.4884234299367077e-57 0.0000000000000000e+00  -2.4506161008317562e-58 8.4360197778978067e-59 0.0000000000000000e+00  -2.1704055558025446e-58 -1.3127941577142552e-58 0.0000000000000000e+00  -1.9963464215191567e-59 -6.0816774839271566e-60 0.0000000000000000e+00  -2.3778482040843784e-60 -3.3598825063372848e-61 0.0000000000000000e+00  -1.2971064791470298e-60 -7.5344735555949288e-61 0.0000000000000000e+00  -7.7068839413418375e-62 -2.1258154395696986e-62 0.0000000000000000e+00  -1.3616168639936465e-62 -2.9051168168046997e-63 0.0000000000000000e+00  -6.6663509601394051e-63 -3.7586588409922607e-63 0.0000000000000000e+00  -4.7950006582841136e-64 -1.8070617253064893e-64 0.0000000000000000e+00  -4.3632360121640817e-65 9.5151005583926254e-67 0.0000000000000000e+00  -2.9581209914943977e-65 -1.6518956692313251e-65 0.0000000000000000e+00  -3.4241235407580920e-66 -1.9778562813640155e-66 0.0000000000000000e+00  -8.9656116092684752e-68 5.4510666937736030e-68 0.0000000000000000e+00  -8.6565400190770259e-68 -4.1582320636160739e-68 0.0000000000000000e+00  -2.0736914676750930e-68 -1.2797540914167188e-68 0.0000000000000000e+00  -1.1345110679309219e-69 -5.1162220107914734e-70 0.0000000000000000e+00  -8.7894772890111654e-71 1.3743498531576751e-71 0.0000000000000000e+00  -6.9192517433180867e-71 -3.6470656752135000e-71 0.0000000000000000e+00  -1.2498441843393819e-71 -7.6447629677462009e-72 0.0000000000000000e+00  -5.9872027228377555e-73 -2.7463879219596887e-73 0.0000000000000000e+00  -3.9223901225220159e-74 7.4113640256121652e-75 0.0000000000000000e+00  -3.1584277964439003e-74 -1.4773519024027183e-74 0.0000000000000000e+00  -6.5932086273181252e-75 -3.3548159620525797e-75 0.0000000000000000e+00  -7.1806183992181015e-76 -3.1065238133380774e-76 0.0000000000000000e+00  -8.5491004901598274e-76 -1.6230944841010356e-75 0.0000000000000000e+00  -4.7717090033721838e-75 -1.3947542754848823e-74 0.0000000000000000e+00  4.3605387432208863e-75 -8.3031614723626943e-75 0.0000000000000000e+00  -1.6269047070099048e-73 -3.4294086621045639e-73 0.0000000000000000e+00  -9.2656684883953229e-71 -1.0086644725458514e-70 0.0000000000000000e+00  -7.4868966890271733e-70 -1.3193988390397129e-69 0.0000000000000000e+00  -1.0950937201534397e-69 -3.6540907306320132e-69 0.0000000000000000e+00  -7.7345297953766383e-68 -1.7136487808091559e-67 0.0000000000000000e+00  -6.5050498953492583e-68 -3.2621081911233268e-67 0.0000000000000000e+00  -6.7613808262604879e-66 -1.3524132542686573e-65 0.0000000000000000e+00  -4.4973099194321969e-66 -2.1334434469880527e-65 0.0000000000000000e+00  -9.0208728998614989e-65 -1.5614225810153393e-64 0.0000000000000000e+00  1.7116105853493018e-65 -2.1027616736412382e-64 0.0000000000000000e+00  -4.2490269283774325e-62 -6.4229368478838694e-62 0.0000000000000000e+00  -6.9497439669343154e-62 -1.7243442275135103e-61 0.0000000000000000e+00  -2.3084232283650965e-62 -2.7299107657549852e-61 0.0000000000000000e+00  -5.6959043317091558e-60 -1.1394562768507105e-59 0.0000000000000000e+00  4.7233771518219009e-60 -1.4990576868364297e-59 0.0000000000000000e+00  -2.8748771433184206e-59 -4.7666095722974070e-59 0.0000000000000000e+00  8.7351699910458589e-60 -6.0805008257253321e-59 0.0000000000000000e+00  2.3008369498597629e-59 -3.9565427037079142e-59 0.0000000000000000e+00  -5.5782978751585608e-58 -8.9847647909587026e-58 0.0000000000000000e+00  -1.3644919349127313e-59 -1.2603323219305114e-57 0.0000000000000000e+00  -4.5810136229952859e-57 -1.1669206825750761e-56 0.0000000000000000e+00  5.6756152868397205e-57 -8.6340459144703030e-57 0.0000000000000000e+00  -5.2648234739007812e-57 -7.3754408549175439e-57 0.0000000000000000e+00  -1.7430183778732004e-56 -3.7858299747932789e-56 0.0000000000000000e+00  2.1303714140629984e-56 -4.0560322622848503e-56 0.0000000000000000e+00  -4.9292643254560576e-57 -9.2357127992864344e-57 0.0000000000000000e+00  -7.9966796507277813e-56 -2.0366868253281221e-55 0.0000000000000000e+00  6.2557277233120693e-56 -5.0729305408843201e-55 0.0000000000000000e+00  -4.2193044068052810e-55 -7.2867522208285424e-55 0.0000000000000000e+00  -4.8374000732860716e-56 -1.8361921413620548e-54 0.0000000000000000e+00  1.6310115806129977e-55 -5.7292534925414274e-55 0.0000000000000000e+00  -5.0930738140397416e-55 -1.6793475735631595e-54 0.0000000000000000e+00  -2.2133377012408450e-54 -7.0858470536897720e-54 0.0000000000000000e+00  2.5319584700361599e-54 -6.0629116536150257e-54 0.0000000000000000e+00  -6.5939651741366068e-55 -2.3936166555047489e-54 0.0000000000000000e+00  5.2137639900240231e-55 -2.8168828842250266e-54 0.0000000000000000e+00  1.2537473645816956e-55 -1.4244468065316552e-54 0.0000000000000000e+00  -2.1354249883200501e-54 -3.4761031204142243e-54 0.0000000000000000e+00  5.5792499904952936e-55 -8.2265828163342405e-54 0.0000000000000000e+00  -3.8485938330732552e-54 -1.3573687749035754e-53 0.0000000000000000e+00  4.5909918924046914e-54 -7.7014606850888009e-54 0.0000000000000000e+00  1.9869828962303819e-55 -6.5022246072550529e-55 0.0000000000000000e+00  -4.6963830027926178e-54 -8.0194618288011583e-54 0.0000000000000000e+00  4.7203346460097603e-54 -7.8634660589312009e-54 0.0000000000000000e+00  -1.6251378476717492e-56 -1.3351552098342107e-55 0.0000000000000000e+00  1.0901555978816829e-56 -2.7685574877602972e-55 0.0000000000000000e+00  2.1579279377908925e-56 -9.8798142246823800e-56 0.0000000000000000e+00  -5.0891397580629658e-54 -9.3519951848742120e-54 0.0000000000000000e+00  5.4287271221554263e-54 -9.4149445201598555e-54 0.0000000000000000e+00  5.5508357173095460e-56 -1.0528375511971544e-55 0.0000000000000000e+00  -1.4013828759190888e-56 -6.2029375552308178e-56 0.0000000000000000e+00  -4.8912326920038027e-55 -9.0346113843779088e-55 0.0000000000000000e+00  -5.6905422614246970e-54 -1.0029001121510712e-53 0.0000000000000000e+00  4.4092466270797036e-54 -1.0507660464081467e-53 0.0000000000000000e+00  -2.9892564415340381e-54 -7.9735414514626311e-54 0.0000000000000000e+00  2.3892646490670957e-54 -8.5603727171483099e-54 0.0000000000000000e+00  2.2016919246215993e-54 -3.3168914766371244e-54 0.0000000000000000e+00  -5.3300833855494860e-55 -1.4771436686234536e-54 0.0000000000000000e+00  8.1995340711751181e-55 -1.5785389167876093e-54 0.0000000000000000e+00  -4.8299587848815104e-55 -9.8053410213836121e-55 0.0000000000000000e+00  5.0332787295195573e-55 -8.8865087204406017e-55 0.0000000000000000e+00  -1.5387189140981088e-56 -2.6823602065601757e-56 0.0000000000000000e+00  -4.3959338551358700e-56 -1.7190841275841445e-55 0.0000000000000000e+00  4.1071602143409581e-56 -1.7496891774975204e-55 0.0000000000000000e+00  4.7414824403835828e-57 -6.9067076826856103e-56 0.0000000000000000e+00  -2.7055578118935366e-56 -6.5237435326378176e-56 0.0000000000000000e+00  3.2389314486785290e-56 -6.4367743443629757e-56 0.0000000000000000e+00  -2.8172184755373198e-57 -2.8713328907073675e-56 0.0000000000000000e+00  1.2786705946676999e-56 -3.0112425139634121e-56 0.0000000000000000e+00  9.8954312804873084e-58 -2.4061582001331626e-57 0.0000000000000000e+00  -4.3256004356863812e-57 -7.6081460301923417e-57 0.0000000000000000e+00  4.2004595830573795e-57 -1.1036324005551696e-56 0.0000000000000000e+00  3.0883775782697039e-58 -1.0234523476853825e-57 0.0000000000000000e+00  1.4221522243983911e-58 -5.0358