<?xml version="1.0"?>
<VTKFile type="UnstructuredGrid"  version="0.1"  >
<UnstructuredGrid>
<Piece  NumberOfPoints="11902" NumberOfCells="23402">
<Points>
<DataArray  type="Float64"  NumberOfComponents="3"  format="ascii">-5 -5 0  5 -5 0  5 5 0  -5 5 0  1.215527763197815 0.001348698950877598 0  -4.9 -5 0  -4.8 -5 0  -4.7 -5 0  -4.6 -5 0  -4.5 -5 0  -4.4 -5 0  -4.3 -5 0  -4.2 -5 0  -4.1 -5 0  -4 -5 0  -3.9 -5 0  -3.8 -5 0  -3.7 -5 0  -3.6 -5 0  -3.5 -5 0  -3.4 -5 0  -3.3 -5 0  -3.2 -5 0  -3.1 -5 0  -3 -5 0  -2.9 -5 0  -2.8 -5 0  -2.7 -5 0  -2.6 -5 0  -2.5 -5 0  -2.4 -5 0  -2.3 -5 0  -2.2 -5 0  -2.1 -5 0  -2 -5 0  -1.9 -5 0  -1.8 -5 0  -1.7 -5 0  -1.6 -5 0  -1.5 -5 0  -1.4 -5 0  -1.3 -5 0  -1.2 -5 0  -1.1 -5 0  -1 -5 0  -0.9000000000000004 -5 0  -0.7999999999999998 -5 0  -0.7000000000000002 -5 0  -0.5999999999999996 -5 0  -0.5 -5 0  -0.4000000000000004 -5 0  -0.2999999999999998 -5 0  -0.2000000000000002 -5 0  -0.09999999999999964 -5 0  0 -5 0  0.09999999999999964 -5 0  0.2000000000000002 -5 0  0.2999999999999998 -5 0  0.4000000000000004 -5 0  0.5 -5 0  0.5999999999999996 -5 0  0.7000000000000002 -5 0  0.7999999999999998 -5 0  0.9000000000000004 -5 0  1 -5 0  1.1 -5 0  1.2 -5 0  1.3 -5 0  1.4 -5 0  1.5 -5 0  1.6 -5 0  1.7 -5 0  1.8 -5 0  1.9 -5 0  2 -5 0  2.1 -5 0  2.2 -5 0  2.3 -5 0  2.4 -5 0  2.5 -5 0  2.6 -5 0  2.7 -5 0  2.8 -5 0  2.9 -5 0  3 -5 0  3.1 -5 0  3.199999999999999 -5 0  3.300000000000001 -5 0  3.4 -5 0  3.5 -5 0  3.6 -5 0  3.699999999999999 -5 0  3.800000000000001 -5 0  3.9 -5 0  4 -5 0  4.1 -5 0  4.199999999999999 -5 0  4.300000000000001 -5 0  4.4 -5 0  4.5 -5 0  4.6 -5 0  4.699999999999999 -5 0  4.800000000000001 -5 0  4.9 -5 0  5 -4.9 0  5 -4.8 0  5 -4.7 0  5 -4.6 0  5 -4.5 0  5 -4.4 0  5 -4.3 0  5 -4.2 0  5 -4.1 0  5 -4 0  5 -3.9 0  5 -3.8 0  5 -3.7 0  5 -3.6 0  5 -3.5 0  5 -3.4 0  5 -3.3 0  5 -3.2 0  5 -3.1 0  5 -3 0  5 -2.9 0  5 -2.8 0  5 -2.7 0  5 -2.6 0  5 -2.5 0  5 -2.4 0  5 -2.3 0  5 -2.2 0  5 -2.1 0  5 -2 0  5 -1.9 0  5 -1.8 0  5 -1.7 0  5 -1.6 0  5 -1.5 0  5 -1.4 0  5 -1.3 0  5 -1.2 0  5 -1.1 0  5 -1 0  5 -0.9000000000000004 0  5 -0.7999999999999998 0  5 -0.7000000000000002 0  5 -0.5999999999999996 0  5 -0.5 0  5 -0.4000000000000004 0  5 -0.2999999999999998 0  5 -0.2000000000000002 0  5 -0.09999999999999964 0  5 0 0  5 0.09999999999999964 0  5 0.2000000000000002 0  5 0.2999999999999998 0  5 0.4000000000000004 0  5 0.5 0  5 0.5999999999999996 0  5 0.7000000000000002 0  5 0.7999999999999998 0  5 0.9000000000000004 0  5 1 0  5 1.1 0  5 1.2 0  5 1.3 0  5 1.4 0  5 1.5 0  5 1.6 0  5 1.7 0  5 1.8 0  5 1.9 0  5 2 0  5 2.1 0  5 2.2 0  5 2.3 0  5 2.4 0  5 2.5 0  5 2.6 0  5 2.7 0  5 2.8 0  5 2.9 0  5 3 0  5 3.1 0  5 3.199999999999999 0  5 3.300000000000001 0  5 3.4 0  5 3.5 0  5 3.6 0  5 3.699999999999999 0  5 3.800000000000001 0  5 3.9 0  5 4 0  5 4.1 0  5 4.199999999999999 0  5 4.300000000000001 0  5 4.4 0  5 4.5 0  5 4.6 0  5 4.699999999999999 0  5 4.800000000000001 0  5 4.9 0  4.9 5 0  4.8 5 0  4.7 5 0  4.6 5 0  4.5 5 0  4.4 5 0  4.3 5 0  4.2 5 0  4.1 5 0  4 5 0  3.9 5 0  3.8 5 0  3.7 5 0  3.6 5 0  3.5 5 0  3.4 5 0  3.3 5 0  3.2 5 0  3.1 5 0  3 5 0  2.9 5 0  2.8 5 0  2.7 5 0  2.6 5 0  2.5 5 0  2.4 5 0  2.3 5 0  2.2 5 0  2.1 5 0  2 5 0  1.9 5 0  1.8 5 0  1.7 5 0  1.6 5 0  1.5 5 0  1.4 5 0  1.3 5 0  1.2 5 0  1.1 5 0  1 5 0  0.9000000000000004 5 0  0.7999999999999998 5 0  0.7000000000000002 5 0  0.5999999999999996 5 0  0.5 5 0  0.4000000000000004 5 0  0.2999999999999998 5 0  0.2000000000000002 5 0  0.09999999999999964 5 0  0 5 0  -0.09999999999999964 5 0  -0.2000000000000002 5 0  -0.2999999999999998 5 0  -0.4000000000000004 5 0  -0.5 5 0  -0.5999999999999996 5 0  -0.7000000000000002 5 0  -0.7999999999999998 5 0  -0.9000000000000004 5 0  -1 5 0  -1.1 5 0  -1.2 5 0  -1.3 5 0  -1.4 5 0  -1.5 5 0  -1.6 5 0  -1.7 5 0  -1.8 5 0  -1.9 5 0  -2 5 0  -2.1 5 0  -2.2 5 0  -2.3 5 0  -2.4 5 0  -2.5 5 0  -2.6 5 0  -2.7 5 0  -2.8 5 0  -2.9 5 0  -3 5 0  -3.1 5 0  -3.199999999999999 5 0  -3.300000000000001 5 0  -3.4 5 0  -3.5 5 0  -3.6 5 0  -3.699999999999999 5 0  -3.800000000000001 5 0  -3.9 5 0  -4 5 0  -4.1 5 0  -4.199999999999999 5 0  -4.300000000000001 5 0  -4.4 5 0  -4.5 5 0  -4.6 5 0  -4.699999999999999 5 0  -4.800000000000001 5 0  -4.9 5 0  -5 4.9 0  -5 4.8 0  -5 4.7 0  -5 4.6 0  -5 4.5 0  -5 4.4 0  -5 4.3 0  -5 4.2 0  -5 4.1 0  -5 4 0  -5 3.9 0  -5 3.8 0  -5 3.7 0  -5 3.6 0  -5 3.5 0  -5 3.4 0  -5 3.3 0  -5 3.2 0  -5 3.1 0  -5 3 0  -5 2.9 0  -5 2.8 0  -5 2.7 0  -5 2.6 0  -5 2.5 0  -5 2.4 0  -5 2.3 0  -5 2.2 0  -5 2.1 0  -5 2 0  -5 1.9 0  -5 1.8 0  -5 1.7 0  -5 1.6 0  -5 1.5 0  -5 1.4 0  -5 1.3 0  -5 1.2 0  -5 1.1 0  -5 1 0  -5 0.9000000000000004 0  -5 0.7999999999999998 0  -5 0.7000000000000002 0  -5 0.5999999999999996 0  -5 0.5 0  -5 0.4000000000000004 0  -5 0.2999999999999998 0  -5 0.2000000000000002 0  -5 0.09999999999999964 0  -5 0 0  -5 -0.09999999999999964 0  -5 -0.2000000000000002 0  -5 -0.2999999999999998 0  -5 -0.4000000000000004 0  -5 -0.5 0  -5 -0.5999999999999996 0  -5 -0.7000000000000002 0  -5 -0.7999999999999998 0  -5 -0.9000000000000004 0  -5 -1 0  -5 -1.1 0  -5 -1.2 0  -5 -1.3 0  -5 -1.4 0  -5 -1.5 0  -5 -1.6 0  -5 -1.7 0  -5 -1.8 0  -5 -1.9 0  -5 -2 0  -5 -2.1 0  -5 -2.2 0  -5 -2.3 0  -5 -2.4 0  -5 -2.5 0  -5 -2.6 0  -5 -2.7 0  -5 -2.8 0  -5 -2.9 0  -5 -3 0  -5 -3.1 0  -5 -3.199999999999999 0  -5 -3.300000000000001 0  -5 -3.4 0  -5 -3.5 0  -5 -3.6 0  -5 -3.699999999999999 0  -5 -3.800000000000001 0  -5 -3.9 0  -5 -4 0  -5 -4.1 0  -5 -4.199999999999999 0  -5 -4.300000000000001 0  -5 -4.4 0  -5 -4.5 0  -5 -4.6 0  -5 -4.699999999999999 0  -5 -4.800000000000001 0  -5 -4.9 0  1.209282126722958 0.09843309581901356 0  1.189997957565027 0.1961978106951039 0  1.157997177672489 0.2932083749061978 0  1.116726753397764 0.3841344880617533 0  1.062832713707035 0.4746952168829168 0  0.9996906749073089 0.5596623837450735 0  0.9253670855916671 0.6394359725232285 0  0.8419071872830859 0.7124167053814842 0  0.751575079348735 0.7779260068892099 0  0.6525051344603904 0.8362242453128486 0  0.5462047041907242 0.8875162861507687 0  0.4362765533432575 0.9297364142722039 0  0.3242307112544098 0.9626116408996347 0  0.2056787553963327 0.9848836719158831 0  0.08904779267781131 1.000441969405835 0  -0.02772220467076011 1.003293699630812 0  -0.1448349234839426 0.9926817609789192 0  -0.2647441699887679 0.9747708678444184 0  -0.3806064908464897 0.9489610116090126 0  -0.4907502548452236 0.9125217399241798 0  -0.5965876105709769 0.8667153309751111 0  -0.6971917999882666 0.812050776943988 0  -0.790424888126269 0.7487522076363846 0  -0.8776711747724222 0.6777105289675048 0  -0.9579401496417238 0.5993870584854882 0  -1.027540780008487 0.5173008813946027 0  -1.087279808829714 0.4306632222211325 0  -1.135773657872024 0.3388293152466378 0  -1.172031642140538 0.2454359716830774 0  -1.196221492821552 0.1494742162177707 0  -1.208412934519385 0.05072387174094226 0  -1.208391777583418 -0.04880640385094741 0  -1.196110352418942 -0.1471533917282705 0  -1.17254467748371 -0.2430520042333285 0  -1.134953789931683 -0.3385804432100284 0  -1.087591423405845 -0.4296179504011387 0  -1.028642669223168 -0.5165288331249047 0  -0.959688310344936 -0.5981141280040839 0  -0.8798671446748344 -0.6751924621093744 0  -0.7923861165192587 -0.7450284096545375 0  -0.6976572188604551 -0.8061757605858995 0  -0.5966191075343603 -0.8602779498924108 0  -0.4876133449096631 -0.907738210450636 0  -0.3766141805077616 -0.9460377672868874 0  -0.2616383786004826 -0.9736293394007098 0  -0.143452543365776 -0.9919031527109612 0  -0.02758141109068913 -1.002369419483928 0  0.08960430575040668 -0.9973238024668337 0  0.2090925185568336 -0.9823716780423513 0  0.3261146105757382 -0.9609449897827581 0  0.4399533133516049 -0.9283217994556212 0  0.5480870344452333 -0.8865814176195274 0  0.6532878722172873 -0.8359675476850807 0  0.7517055051650859 -0.7790083419776055 0  0.8419524844755043 -0.7132240646026881 0  0.9248259230231086 -0.6389571494271691 0  0.9980080914603835 -0.5590273091670833 0  1.062653254909985 -0.474045740067747 0  1.11772046738129 -0.3841820868449986 0  1.159519393554229 -0.2915527403808285 0  1.190339334090373 -0.1953244476544626 0  1.209334060653525 -0.09796794012163797 0  -2.448715964198878 4.918397433602163 0  -2.448603993496075 -4.91080154380228 0  4.910732794031663 2.448113142172746 0  4.918830371049456 -2.449554846971707 0  2.446361230155611 -4.896086634085971 0  2.440788320727691 4.899837521761507 0  -4.910757448581743 -2.448137233018271 0  -4.910755355533282 2.448141085992773 0  -1.748675840902784 4.911411687634942 0  -1.744455650238325 -4.914837028729754 0  4.920991818947709 1.744267431968258 0  4.909576440184845 -1.748057366127369 0  -4.90986590150416 -1.747788396218491 0  -4.910685131327425 1.74753093298388 0  1.745958692908166 4.905297675841316 0  1.747392238487266 -4.893494456344361 0  -1.148954436201305 4.909280377645714 0  -1.129799535450495 -4.917156481798776 0  -4.909688594878317 -1.148077623672457 0  -4.909508493419017 1.147877853486913 0  1.143941889016746 -4.913360188726278 0  1.148963023230978 4.909268422533556 0  4.909832597214352 1.146354259953908 0  4.920603266672154 -1.152118722702532 0  -0.5467278468654275 -4.910511631081131 0  -0.5465047451048739 4.919150587530846 0  -4.908505764641897 -0.5487918212113152 0  -4.908529998959267 0.5473486184600137 0  4.907834639139339 -0.5491118090721981 0  4.91941897793789 0.5458577946446023 0  0.5425159991352358 -4.897461071637493 0  0.5512344862982295 4.915990761174986 0  -4.912085524756709 -3.048457891986382 0  4.918643593914132 3.046463426193665 0  4.91159543347701 -3.048436198766133 0  -4.912932322567932 3.04554812553708 0  3.055425116085117 -4.9175762001638 0  -3.048765308248657 -4.911525184634603 0  3.052329674255914 4.913599493406093 0  -3.048210043927196 4.912413371628736 0  -4.907645526798155 -0.04991601528163285 0  0.04512354216966052 -4.912465765037211 0  0.0495716006494428 4.91945548376019 0  4.914660343553319 -0.05129758188546934 0  3.545717618343663 -4.919161945089652 0  -3.54900666244670
[...]
<PointData  Vectors="f_2662"> 
<DataArray  type="Float64"  Name="f_2662"  NumberOfComponents="3" format="ascii">2.6559658580599776e-76 2.6559658580599776e-76 0.0000000000000000e+00  -2.8445085011138392e-76 2.8445085011138392e-76 0.0000000000000000e+00  -8.5659604779097093e-78 -8.5659604779097093e-78 0.0000000000000000e+00  3.0308186857310287e-76 -3.0308186857310287e-76 0.0000000000000000e+00  -3.4112547480689603e-01 -6.4435116552229469e-03 0.0000000000000000e+00  4.1655071315795042e-75 6.6066084328699953e-75 0.0000000000000000e+00  2.0827993824155812e-75 2.0879607980238066e-74 0.0000000000000000e+00  -3.4046430805703391e-75 6.7704953938766212e-75 0.0000000000000000e+00  3.9987607286696650e-72 6.6693394854540554e-72 0.0000000000000000e+00  5.3149596334372523e-71 1.3459979275637895e-70 0.0000000000000000e+00  -7.9148604818855596e-72 4.5547962105402864e-71 0.0000000000000000e+00  3.2321757728391596e-69 6.1642578616575242e-69 0.0000000000000000e+00  5.1573600388702239e-68 9.4024193911987397e-68 0.0000000000000000e+00  -3.0613374558737232e-68 1.4997677195477116e-67 0.0000000000000000e+00  1.2756109349375016e-67 3.9827262787848480e-67 0.0000000000000000e+00  1.2673239367162952e-68 8.7788131758334688e-67 0.0000000000000000e+00  5.4452037692668673e-64 8.8285871022094948e-64 0.0000000000000000e+00  4.7516244832478438e-65 2.4418340023349053e-63 0.0000000000000000e+00  1.3472127724254929e-62 2.2006151878597861e-62 0.0000000000000000e+00  8.0580109155858934e-63 8.3188909998994304e-62 0.0000000000000000e+00  6.9195027605983094e-61 1.1032270477819581e-60 0.0000000000000000e+00  4.0547354139371564e-60 7.0124949207269620e-60 0.0000000000000000e+00  -2.8411564527838422e-60 7.6947101146506482e-60 0.0000000000000000e+00  5.6503969634991438e-59 1.1376679442595836e-58 0.0000000000000000e+00  -1.7546423204405118e-59 1.1643517088047179e-58 0.0000000000000000e+00  -2.9956647860940042e-59 6.8333498202656510e-59 0.0000000000000000e+00  1.7974676488010304e-58 3.3073579140404329e-58 0.0000000000000000e+00  7.2791504891641591e-58 2.0907023926218970e-57 0.0000000000000000e+00  2.8519506003683193e-57 6.2380777970514940e-57 0.0000000000000000e+00  -3.3961970570236035e-57 5.7317841046908240e-57 0.0000000000000000e+00  -3.5103942777996321e-58 1.0971395454420736e-57 0.0000000000000000e+00  1.9018803773538883e-56 2.9355272727825437e-56 0.0000000000000000e+00  -1.4080731915785496e-56 3.5282536115283999e-56 0.0000000000000000e+00  1.1868136148108989e-56 2.8956439598244028e-56 0.0000000000000000e+00  8.7033956149923987e-56 2.0991737402503609e-55 0.0000000000000000e+00  -2.4945962760889193e-56 5.7430584963310409e-55 0.0000000000000000e+00  5.1874664673440040e-57 8.6216852648609995e-57 0.0000000000000000e+00  5.5200323014838652e-56 1.3826610825003513e-55 0.0000000000000000e+00  1.5419832193968780e-55 6.1722042019948626e-55 0.0000000000000000e+00  -2.2252396221904351e-55 3.5128421117022814e-55 0.0000000000000000e+00  9.7876223381617595e-55 1.7244441580568288e-54 0.0000000000000000e+00  -4.3944336973567066e-55 4.3610077938647149e-54 0.0000000000000000e+00  -2.2690867651536352e-55 2.6818023041849362e-54 0.0000000000000000e+00  -9.5625134829349969e-56 9.4387243692122681e-55 0.0000000000000000e+00  -1.1248139824013883e-55 1.8208636308944577e-55 0.0000000000000000e+00  2.7446086079225688e-54 5.2364202029454572e-54 0.0000000000000000e+00  -2.1475632833393930e-54 4.1369897498054869e-54 0.0000000000000000e+00  -7.1505178361140512e-55 8.0747537842231245e-55 0.0000000000000000e+00  -1.3126738580663803e-55 2.7123107057676537e-55 0.0000000000000000e+00  9.2483351227710348e-55 1.4457324786305504e-54 0.0000000000000000e+00  9.3998975780549254e-55 6.1552115538868760e-54 0.0000000000000000e+00  -1.1216564506204878e-54 5.8987095910288242e-54 0.0000000000000000e+00  5.1164850477517523e-55 4.6484249785600729e-54 0.0000000000000000e+00  1.9002659170659875e-56 5.7932655012130598e-54 0.0000000000000000e+00  2.9992910573596222e-55 6.1514342542488534e-54 0.0000000000000000e+00  -1.2540180941353207e-54 2.0443210950995251e-54 0.0000000000000000e+00  -6.4186513139643131e-55 1.4724625391323461e-53 0.0000000000000000e+00  4.4370450767004825e-54 7.4676786878806890e-54 0.0000000000000000e+00  -4.3215476836126734e-54 8.0979310666176356e-54 0.0000000000000000e+00  1.9106124800749713e-54 3.9558426071074589e-54 0.0000000000000000e+00  -7.3223160053986374e-55 9.4997169133922100e-54 0.0000000000000000e+00  1.3232615790438192e-54 9.3282152726123573e-54 0.0000000000000000e+00  -1.6755172823076365e-54 4.3978641101799634e-54 0.0000000000000000e+00  -9.2008276398434433e-55 2.4056867056327951e-54 0.0000000000000000e+00  3.3131325245887517e-55 1.2993249707874252e-54 0.0000000000000000e+00  2.6420542031894767e-55 2.5374035749273667e-54 0.0000000000000000e+00  -7.8100612196315203e-56 3.4900403429263682e-54 0.0000000000000000e+00  -7.0783056432784654e-55 1.4823742185390469e-54 0.0000000000000000e+00  2.3663679472443850e-55 4.4231725021857077e-55 0.0000000000000000e+00  -2.2992707700119134e-55 6.0264580358182872e-55 0.0000000000000000e+00  5.0096864056436383e-56 2.3974105630430480e-55 0.0000000000000000e+00  1.8577456566175307e-55 9.5218107498823996e-55 0.0000000000000000e+00  -3.2899429152383950e-55 5.3062219833903119e-55 0.0000000000000000e+00  -1.5846920149203197e-56 4.8241702230756556e-56 0.0000000000000000e+00  -1.1312573472974223e-57 1.1334468616787273e-56 0.0000000000000000e+00  6.7269329252009108e-57 2.3542481310228248e-56 0.0000000000000000e+00  -8.9610939016993589e-57 1.5031414002990547e-56 0.0000000000000000e+00  1.7356661806108602e-57 2.8849254575866173e-57 0.0000000000000000e+00  -1.2401384862111219e-57 2.7257863320425432e-57 0.0000000000000000e+00  5.1595814769673719e-57 7.8029463648250910e-57 0.0000000000000000e+00  -4.5198093108910213e-57 1.1255685090542768e-56 0.0000000000000000e+00  -1.8084109089610161e-58 9.3969530629353775e-58 0.0000000000000000e+00  -2.3854368806919564e-58 4.6549174062312130e-58 0.0000000000000000e+00  -7.8564685209788380e-61 8.8104156218767359e-59 0.0000000000000000e+00  -2.4395519581390970e-59 6.4251608444203399e-59 0.0000000000000000e+00  -7.0980295121733032e-60 2.5004053714177042e-59 0.0000000000000000e+00  -4.3758006600191021e-60 2.2390094656702288e-59 0.0000000000000000e+00  -3.0562609337521537e-60 7.1706277841249180e-60 0.0000000000000000e+00  -8.5052284198014214e-62 4.4359110429300481e-61 0.0000000000000000e+00  -1.0737090803232251e-61 2.2349374572708443e-61 0.0000000000000000e+00  -3.5807448338993337e-62 5.6771433651475390e-62 0.0000000000000000e+00  -3.9031906762805484e-64 6.7007761310271928e-64 0.0000000000000000e+00  -2.4274723821417200e-65 5.1724992472006221e-65 0.0000000000000000e+00  3.7021855606664370e-66 1.0383849286581029e-65 0.0000000000000000e+00  -4.8362442163339363e-66 9.2646443863600067e-66 0.0000000000000000e+00  -6.6916610250720420e-68 2.7714942715921183e-67 0.0000000000000000e+00  -7.8452940517343899e-68 1.2921975088182363e-67 0.0000000000000000e+00  -8.0538023548999150e-69 1.1735967390564707e-68 0.0000000000000000e+00  -5.6291517769146268e-70 9.5226500892537487e-70 0.0000000000000000e+00  -3.7771795855654986e-71 6.8199483074621985e-71 0.0000000000000000e+00  -1.8775557963463446e-72 3.2032293308306821e-72 0.0000000000000000e+00  -1.2174109055387829e-73 2.7269449322266381e-73 0.0000000000000000e+00  -4.4200770257376828e-75 1.2912247343665711e-74 0.0000000000000000e+00  -2.5478250210892819e-75 4.2414044625406926e-75 0.0000000000000000e+00  -9.7693020853478434e-76 3.5579624778755477e-76 0.0000000000000000e+00  -1.6210184157730285e-75 -2.3914853344277670e-76 0.0000000000000000e+00  -2.4492037535475528e-74 1.1588318145438194e-74 0.0000000000000000e+00  -3.6791945144644325e-74 1.5498579532608972e-75 0.0000000000000000e+00  -3.8835865943962807e-73 1.4330100011998360e-73 0.0000000000000000e+00  -1.0240660857752761e-71 6.2356225532774818e-72 0.0000000000000000e+00  -6.7429507194801131e-71 3.7064458800563133e-71 0.0000000000000000e+00  -1.0610658410164146e-70 3.9007955557256812e-72 0.0000000000000000e+00  -8.9026977347345985e-70 3.3070819691695012e-70 0.0000000000000000e+00  -2.1296424618090298e-68 1.2855937868394584e-68 0.0000000000000000e+00  -1.0241881546425430e-67 5.1063890343418965e-68 0.0000000000000000e+00  -1.0129624746421682e-67 -6.0208994046121185e-68 0.0000000000000000e+00  -3.1675086725728434e-66 1.7445653660809807e-66 0.0000000000000000e+00  -3.1872238382808951e-65 1.8299597049882413e-65 0.0000000000000000e+00  -5.3865109937446735e-65 5.0404258591124613e-66 0.0000000000000000e+00  -4.4383279167132839e-64 1.4449324467339935e-64 0.0000000000000000e+00  -6.9988539892620544e-63 4.3534788740280280e-63 0.0000000000000000e+00  -1.5069786152455710e-62 3.7432166107981178e-63 0.0000000000000000e+00  -8.4360695957926354e-62 1.9638715434295920e-62 0.0000000000000000e+00  -1.3562308943037087e-60 8.5041417987699010e-61 0.0000000000000000e+00  -2.4174501993057990e-60 3.3758288575039010e-61 0.0000000000000000e+00  -2.1181647732703328e-59 7.3842429729420184e-60 0.0000000000000000e+00  -2.4196203855594787e-58 1.4913916552885914e-58 0.0000000000000000e+00  -2.5859010706534492e-58 -9.3959164738137868e-59 0.0000000000000000e+00  -5.9831637822980117e-57 2.7749253838053165e-57 0.0000000000000000e+00  -2.4858756402278447e-56 1.2357727475324648e-56 0.0000000000000000e+00  -5.5616268275957494e-56 -8.6550069326669024e-57 0.0000000000000000e+00  -1.0125813862777439e-54 6.4595628024827969e-55 0.0000000000000000e+00  -1.1198913338348731e-54 -3.4519823530290992e-55 0.0000000000000000e+00  -2.4106001304117660e-53 1.2648114048370731e-53 0.0000000000000000e+00  -6.5994779255051968e-53 2.9773052755772802e-53 0.0000000000000000e+00  -4.3591542984556253e-52 1.2195806951261004e-52 0.0000000000000000e+00  -2.6693735080386275e-51 1.6556268768974836e-51 0.0000000000000000e+00  -7.6655440533232340e-51 -2.1257865569601415e-52 0.0000000000000000e+00  -7.2065157326197520e-50 4.5740904709518212e-50 0.0000000000000000e+00  -1.6169442919677232e-49 -1.4686428837363119e-50 0.0000000000000000e+00  -1.7316207131399515e-48 1.0045287888391321e-48 0.0000000000000000e+00  -4.3409171723919602e-48 -2.0250286982138808e-49 0.0000000000000000e+00  -2.0158984718817590e-47 1.1030994985604984e-47 0.0000000000000000e+00  -1.1031536096480294e-46 1.8846173015848035e-47 0.0000000000000000e+00  -1.0251699587535212e-46 2.4440094694947807e-47 0.0000000000000000e+00  -1.2416135758480376e-45 5.2183407393833695e-46 0.0000000000000000e+00  -8.7295436498533189e-46 -5.6390870296572438e-46 0.0000000000000000e+00  -1.3441845204809238e-44 8.0137201916355329e-45 0.0000000000000000e+00  -5.7979358243383948e-44 1.3640486832140487e-44 0.0000000000000000e+00  -3.6139613952747510e-44 -1.7383363083349037e-44 0.0000000000000000e+00  -1.1430881947150112e-43 6.4522098322640862e-44 0.0000000000000000e+00  -8.4150416158697395e-43 2.2987207320792530e-43 0.0000000000000000e+00  -1.9293735247840593e-42 1.9606447804651993e-43 0.0000000000000000e+00  -2.5119783882807457e-42 6.0581203389409366e-44 0.0000000000000000e+00  -2.0147494000350496e-42 -1.9333287431998358e-43 0.0000000000000000e+00  -8.6157901142872045e-43 -2.4868924185612509e-43 0.0000000000000000e+00  -1.1330435770070331e-43 -6.3987959451713779e-44 0.0000000000000000e+00  -3.8698554410296985e-44 1.8364964438273908e-44 0.0000000000000000e+00  -6.3184544702456330e-44 -1.0745523785858285e-44 0.0000000000000000e+00  -1.5001203184579394e-44 -7.8111059065833465e-45 0.0000000000000000e+00  -9.9798298049630600e-46 5.6317462410691703e-46 0.0000000000000000e+00  -1.4050060638662119e-45 -5.3495353231688960e-46 0.0000000000000000e+00  -1.1213974068322568e-46 -2.8359484608083711e-47 0.0000000000000000e+00  -1.0186583345952502e-46 -2.1285925689647903e-47 0.0000000000000000e+00  -1.8637451992449911e-47 -1.1895025484042353e-47 0.0000000000000000e+00  -4.0853517051857623e-48 2.0162304747752832e-49 0.0000000000000000e+00  -1.4891921392147460e-48 -9.3012760625274214e-49 0.0000000000000000e+00  -1.6326025211965176e-49 2.4388719902832092e-50 0.0000000000000000e+00  -7.4699286022472282e-50 -4.3943588168427922e-50 0.0000000000000000e+00  -8.2446444763814397e-51 6.3629997995687133e-52 0.0000000000000000e+00  -3.1505682213426634e-51 -1.7735541192547090e-51 0.0000000000000000e+00  -5.1062537886209690e-52 -1.1407390590450564e-52 0.0000000000000000e+00  -8.2163107612080072e-53 -3.5284315954008756e-53 0.0000000000000000e+00  -2.6657156318850508e-53 -1.3092107474394257e-53 0.0000000000000000e+00  -1.1962532685378906e-54 3.2236903350487654e-55 0.0000000000000000e+00  -1.0656538887318463e-54 -6.7742486110094612e-55 0.0000000000000000e+00  -5.1499460174160040e-56 8.3089004046684202e-57 0.0000000000000000e+00  -2.3402765424901789e-56 -1.3183694052984441e-56 0.0000000000000000e+00  -4.8306992900848748e-57 -2.5116863344987324e-57 0.0000000000000000e+00  -2.4563933740209684e-58 8.5139442947729224e-59 0.0000000000000000e+00  -2.1617408876000531e-58 -1.3239136889489126e-58 0.0000000000000000e+00  -1.9925687621812096e-59 -6.1270716044342998e-60 0.0000000000000000e+00  -2.3757524899714678e-60 -3.3852896405062099e-61 0.0000000000000000e+00  -1.2926326147170146e-60 -7.5866035966950269e-61 0.0000000000000000e+00  -7.6953592561611460e-62 -2.1384282214336098e-62 0.0000000000000000e+00  -1.3600154646520671e-62 -2.9229185510941606e-63 0.0000000000000000e+00  -6.6469036338866692e-63 -3.7795830523523674e-63 0.0000000000000000e+00  -4.7864570646557489e-64 -1.8158979725684994e-64 0.0000000000000000e+00  -4.3636829805255725e-65 9.5613213388626772e-67 0.0000000000000000e+00  -2.9509718146002341e-65 -1.6590899673124435e-65 0.0000000000000000e+00  -3.4163070835977886e-66 -1.9855273298157826e-66 0.0000000000000000e+00  -8.9870218989265635e-68 5.4720530109490210e-68 0.0000000000000000e+00  -8.6422127987834854e-68 -4.1719027491769649e-68 0.0000000000000000e+00  -2.0697414598093539e-68 -1.2834564087073540e-68 0.0000000000000000e+00  -1.1331696296378672e-69 -5.1285328858440579e-70 0.0000000000000000e+00  -8.7930227142497930e-71 1.3776035992037719e-71 0.0000000000000000e+00  -6.9113054479106602e-71 -3.6542558957886600e-71 0.0000000000000000e+00  -1.2484529524721858e-71 -7.6572178955101474e-72 0.0000000000000000e+00  -5.9834260045456786e-73 -2.7497304819566971e-73 0.0000000000000000e+00  -3.9233690556158243e-74 7.4200304469895956e-75 0.0000000000000000e+00  -3.1570743323781193e-74 -1.4785423212826689e-74 0.0000000000000000e+00  -6.5913532555066460e-75 -3.3564414592142530e-75 0.0000000000000000e+00  -7.1801005770397824e-76 -3.1069761811734743e-76 0.0000000000000000e+00  -8.5511474788084573e-76 -1.6229155934830364e-75 0.0000000000000000e+00  -4.7730424324839669e-75 -1.3946371696665112e-74 0.0000000000000000e+00  4.3652543821927047e-75 -8.3072497298157657e-75 0.0000000000000000e+00  -1.6287326625291102e-73 -3.4278246953490051e-73 0.0000000000000000e+00  -9.2801063184884488e-71 -1.0074225768720723e-70 0.0000000000000000e+00  -7.5012704530955037e-70 -1.3181745122225603e-69 0.0000000000000000e+00  -1.0975565678144264e-69 -3.6520123405635255e-69 0.0000000000000000e+00  -7.7540457782062909e-68 -1.7120160337847281e-67 0.0000000000000000e+00  -6.5241968449135123e-68 -3.2605301825721619e-67 0.0000000000000000e+00  -6.7823382732692612e-66 -1.3506944032223622e-65 0.0000000000000000e+00  -4.5139181730090879e-66 -2.1321159366316474e-65 0.0000000000000000e+00  -9.0568078151598604e-65 -1.5585876451484819e-64 0.0000000000000000e+00  1.7192718256973356e-65 -2.1033517316596027e-64 0.0000000000000000e+00  -4.2687606745731408e-62 -6.4078569386973584e-62 0.0000000000000000e+00  -6.9859686573326188e-62 -1.7216610429239734e-61 0.0000000000000000e+00  -2.3214728299679739e-62 -2.7289680906738832e-61 0.0000000000000000e+00  -5.7289006020368370e-60 -1.1370900274833732e-59 0.0000000000000000e+00  4.7565795299969094e-60 -1.5012661361918181e-59 0.0000000000000000e+00  -2.8943543144417989e-59 -4.7534723265035553e-59 0.0000000000000000e+00  8.7997739356920846e-60 -6.0846822439551993e-59 0.0000000000000000e+00  2.3193571358832242e-59 -3.9679986192260791e-59 0.0000000000000000e+00  -5.6232395251668191e-58 -8.9569793541891171e-58 0.0000000000000000e+00  -1.3763907416180385e-59 -1.2602623136025157e-57 0.0000000000000000e+00  -4.6209405515669965e-57 -1.1645661966437056e-56 0.0000000000000000e+00  5.7315767743989315e-57 -8.6641124678770016e-57 0.0000000000000000e+00  -5.3172547233334454e-57 -7.3475045518963024e-57 0.0000000000000000e+00  -1.7613574664438206e-56 -3.7765342641106699e-56 0.0000000000000000e+00  2.1543408266247219e-56 -4.0673777529225586e-56 0.0000000000000000e+00  -4.9852003031857115e-57 -9.2094906728102500e-57 0.0000000000000000e+00  -8.0895826833241171e-56 -2.0324454972814966e-55 0.0000000000000000e+00  6.3458824822167353e-56 -5.0759468819096594e-55 0.0000000000000000e+00  -4.2732880392558487e-55 -7.2651685005713757e-55 0.0000000000000000e+00  -4.8707158340202479e-56 -1.8358555632853696e-54 0.0000000000000000e+00  1.6535281876898349e-55 -5.7371093702093915e-55 0.0000000000000000e+00  -5.1618362448200569e-55 -1.6768211463302213e-54 0.0000000000000000e+00  -2.2444546722771051e-54 -7.0753503082448223e-54 0.0000000000000000e+00  2.5707594952789902e-54 -6.0731632650061256e-54 0.0000000000000000e+00  -6.6915600676529927e-55 -2.3907178324684425e-54 0.0000000000000000e+00  5.2996735293903512e-55 -2.8185177760458741e-54 0.0000000000000000e+00  1.2757864721838822e-55 -1.4247029513286038e-54 0.0000000000000000e+00  -2.1701061964606244e-54 -3.4691260989763113e-54 0.0000000000000000e+00  5.6820129807897125e-55 -8.2269003127545514e-54 0.0000000000000000e+00  -3.9120257456562745e-54 -1.3561940562310897e-53 0.0000000000000000e+00  4.6694498707049519e-54 -7.7111536498607231e-54 0.0000000000000000e+00  2.0216019561708701e-55 -6.5050305904881727e-55 0.0000000000000000e+00  -4.7776569885534326e-54 -8.0116918548285435e-54 0.0000000000000000e+00  4.8030525870534473e-54 -7.8680093648518361e-54 0.0000000000000000e+00  -1.6536803917715297e-56 -1.3350330880595836e-55 0.0000000000000000e+00  1.1097081320577735e-56 -2.7681740162466168e-55 0.0000000000000000e+00  2.1959700698389914e-56 -9.8796979263729984e-56 0.0000000000000000e+00  -5.1788370055297971e-54 -9.3532771094797377e-54 0.0000000000000000e+00  5.5238655466272020e-54 -9.4096873457552191e-54 0.0000000000000000e+00  5.6476336770601538e-56 -1.0521238862494578e-55 0.0000000000000000e+00  -1.4260071844295968e-56 -6.2042745616065488e-56 0.0000000000000000e+00  -4.9756056399332415e-55 -9.0433873854092008e-55 0.0000000000000000e+00  -5.7875856595685234e-54 -1.0041454066011384e-53 0.0000000000000000e+00  4.4831311464694479e-54 -1.0495939526691512e-53 0.0000000000000000e+00  -3.0387497638468539e-54 -7.9822705183554415e-54 0.0000000000000000e+00  2.4281374258243246e-54 -8.5526136119947897e-54 0.0000000000000000e+00  2.2367599728619729e-54 -3.3090028018395961e-54 0.0000000000000000e+00  -5.4139186966602223e-55 -1.4791417610464846e-54 0.0000000000000000e+00  8.3230187346174041e-55 -1.5750717182823976e-54 0.0000000000000000e+00  -4.9033674900395652e-55 -9.8253475009159669e-55 0.0000000000000000e+00  5.1053197222135348e-55 -8.8632275867020473e-55 0.0000000000000000e+00  -1.5606168150837659e-56 -2.6895303607945710e-56 0.0000000000000000e+00  -4.4593346097685959e-56 -1.7211111324083330e-55 0.0000000000000000e+00  4.1584594342173762e-56 -1.7475383252997820e-55 0.0000000000000000e+00  4.7894307812810301e-57 -6.9039792579762548e-56 0.0000000000000000e+00  -2.7392589109969961e-56 -6.5378164120784759e-56 0.0000000000000000e+00  3.2772472594868187e-56 -6.4196206607392599e-56 0.0000000000000000e+00  -2.8495778199765327e-57 -2.8728347322022099e-56 0.0000000000000000e+00  1.2921849276491210e-56 -3.0043869144731790e-56 0.0000000000000000e+00  9.9956479747288865e-58 -2.4008736426048050e-57 0.0000000000000000e+00  -4.3698765091896989e-57 -7.6312502270172063e-57 0.0000000000000000e+00  4.2387828552160063e-57 -1.1014348721323160e-56 0.0000000000000000e+00  3.1164146053572321e-58 -1.0218420496707044e-57 0.0000000000000000e+00  1.4343869603845467e-58 -5.0286