<?xml version="1.0"?>
<VTKFile type="UnstructuredGrid"  version="0.1"  >
<UnstructuredGrid>
<Piece  NumberOfPoints="11902" NumberOfCells="23402">
<Points>
<DataArray  type="Float64"  NumberOfComponents="3"  format="ascii">-5 -5 0  5 -5 0  5 5 0  -5 5 0  1.219370407094949 0.001359465498024146 0  -4.9 -5 0  -4.8 -5 0  -4.7 -5 0  -4.6 -5 0  -4.5 -5 0  -4.4 -5 0  -4.3 -5 0  -4.2 -5 0  -4.1 -5 0  -4 -5 0  -3.9 -5 0  -3.8 -5 0  -3.7 -5 0  -3.6 -5 0  -3.5 -5 0  -3.4 -5 0  -3.3 -5 0  -3.2 -5 0  -3.1 -5 0  -3 -5 0  -2.9 -5 0  -2.8 -5 0  -2.7 -5 0  -2.6 -5 0  -2.5 -5 0  -2.4 -5 0  -2.3 -5 0  -2.2 -5 0  -2.1 -5 0  -2 -5 0  -1.9 -5 0  -1.8 -5 0  -1.7 -5 0  -1.6 -5 0  -1.5 -5 0  -1.4 -5 0  -1.3 -5 0  -1.2 -5 0  -1.1 -5 0  -1 -5 0  -0.9000000000000004 -5 0  -0.7999999999999998 -5 0  -0.7000000000000002 -5 0  -0.5999999999999996 -5 0  -0.5 -5 0  -0.4000000000000004 -5 0  -0.2999999999999998 -5 0  -0.2000000000000002 -5 0  -0.09999999999999964 -5 0  0 -5 0  0.09999999999999964 -5 0  0.2000000000000002 -5 0  0.2999999999999998 -5 0  0.4000000000000004 -5 0  0.5 -5 0  0.5999999999999996 -5 0  0.7000000000000002 -5 0  0.7999999999999998 -5 0  0.9000000000000004 -5 0  1 -5 0  1.1 -5 0  1.2 -5 0  1.3 -5 0  1.4 -5 0  1.5 -5 0  1.6 -5 0  1.7 -5 0  1.8 -5 0  1.9 -5 0  2 -5 0  2.1 -5 0  2.2 -5 0  2.3 -5 0  2.4 -5 0  2.5 -5 0  2.6 -5 0  2.7 -5 0  2.8 -5 0  2.9 -5 0  3 -5 0  3.1 -5 0  3.199999999999999 -5 0  3.300000000000001 -5 0  3.4 -5 0  3.5 -5 0  3.6 -5 0  3.699999999999999 -5 0  3.800000000000001 -5 0  3.9 -5 0  4 -5 0  4.1 -5 0  4.199999999999999 -5 0  4.300000000000001 -5 0  4.4 -5 0  4.5 -5 0  4.6 -5 0  4.699999999999999 -5 0  4.800000000000001 -5 0  4.9 -5 0  5 -4.9 0  5 -4.8 0  5 -4.7 0  5 -4.6 0  5 -4.5 0  5 -4.4 0  5 -4.3 0  5 -4.2 0  5 -4.1 0  5 -4 0  5 -3.9 0  5 -3.8 0  5 -3.7 0  5 -3.6 0  5 -3.5 0  5 -3.4 0  5 -3.3 0  5 -3.2 0  5 -3.1 0  5 -3 0  5 -2.9 0  5 -2.8 0  5 -2.7 0  5 -2.6 0  5 -2.5 0  5 -2.4 0  5 -2.3 0  5 -2.2 0  5 -2.1 0  5 -2 0  5 -1.9 0  5 -1.8 0  5 -1.7 0  5 -1.6 0  5 -1.5 0  5 -1.4 0  5 -1.3 0  5 -1.2 0  5 -1.1 0  5 -1 0  5 -0.9000000000000004 0  5 -0.7999999999999998 0  5 -0.7000000000000002 0  5 -0.5999999999999996 0  5 -0.5 0  5 -0.4000000000000004 0  5 -0.2999999999999998 0  5 -0.2000000000000002 0  5 -0.09999999999999964 0  5 0 0  5 0.09999999999999964 0  5 0.2000000000000002 0  5 0.2999999999999998 0  5 0.4000000000000004 0  5 0.5 0  5 0.5999999999999996 0  5 0.7000000000000002 0  5 0.7999999999999998 0  5 0.9000000000000004 0  5 1 0  5 1.1 0  5 1.2 0  5 1.3 0  5 1.4 0  5 1.5 0  5 1.6 0  5 1.7 0  5 1.8 0  5 1.9 0  5 2 0  5 2.1 0  5 2.2 0  5 2.3 0  5 2.4 0  5 2.5 0  5 2.6 0  5 2.7 0  5 2.8 0  5 2.9 0  5 3 0  5 3.1 0  5 3.199999999999999 0  5 3.300000000000001 0  5 3.4 0  5 3.5 0  5 3.6 0  5 3.699999999999999 0  5 3.800000000000001 0  5 3.9 0  5 4 0  5 4.1 0  5 4.199999999999999 0  5 4.300000000000001 0  5 4.4 0  5 4.5 0  5 4.6 0  5 4.699999999999999 0  5 4.800000000000001 0  5 4.9 0  4.9 5 0  4.8 5 0  4.7 5 0  4.6 5 0  4.5 5 0  4.4 5 0  4.3 5 0  4.2 5 0  4.1 5 0  4 5 0  3.9 5 0  3.8 5 0  3.7 5 0  3.6 5 0  3.5 5 0  3.4 5 0  3.3 5 0  3.2 5 0  3.1 5 0  3 5 0  2.9 5 0  2.8 5 0  2.7 5 0  2.6 5 0  2.5 5 0  2.4 5 0  2.3 5 0  2.2 5 0  2.1 5 0  2 5 0  1.9 5 0  1.8 5 0  1.7 5 0  1.6 5 0  1.5 5 0  1.4 5 0  1.3 5 0  1.2 5 0  1.1 5 0  1 5 0  0.9000000000000004 5 0  0.7999999999999998 5 0  0.7000000000000002 5 0  0.5999999999999996 5 0  0.5 5 0  0.4000000000000004 5 0  0.2999999999999998 5 0  0.2000000000000002 5 0  0.09999999999999964 5 0  0 5 0  -0.09999999999999964 5 0  -0.2000000000000002 5 0  -0.2999999999999998 5 0  -0.4000000000000004 5 0  -0.5 5 0  -0.5999999999999996 5 0  -0.7000000000000002 5 0  -0.7999999999999998 5 0  -0.9000000000000004 5 0  -1 5 0  -1.1 5 0  -1.2 5 0  -1.3 5 0  -1.4 5 0  -1.5 5 0  -1.6 5 0  -1.7 5 0  -1.8 5 0  -1.9 5 0  -2 5 0  -2.1 5 0  -2.2 5 0  -2.3 5 0  -2.4 5 0  -2.5 5 0  -2.6 5 0  -2.7 5 0  -2.8 5 0  -2.9 5 0  -3 5 0  -3.1 5 0  -3.199999999999999 5 0  -3.300000000000001 5 0  -3.4 5 0  -3.5 5 0  -3.6 5 0  -3.699999999999999 5 0  -3.800000000000001 5 0  -3.9 5 0  -4 5 0  -4.1 5 0  -4.199999999999999 5 0  -4.300000000000001 5 0  -4.4 5 0  -4.5 5 0  -4.6 5 0  -4.699999999999999 5 0  -4.800000000000001 5 0  -4.9 5 0  -5 4.9 0  -5 4.8 0  -5 4.7 0  -5 4.6 0  -5 4.5 0  -5 4.4 0  -5 4.3 0  -5 4.2 0  -5 4.1 0  -5 4 0  -5 3.9 0  -5 3.8 0  -5 3.7 0  -5 3.6 0  -5 3.5 0  -5 3.4 0  -5 3.3 0  -5 3.2 0  -5 3.1 0  -5 3 0  -5 2.9 0  -5 2.8 0  -5 2.7 0  -5 2.6 0  -5 2.5 0  -5 2.4 0  -5 2.3 0  -5 2.2 0  -5 2.1 0  -5 2 0  -5 1.9 0  -5 1.8 0  -5 1.7 0  -5 1.6 0  -5 1.5 0  -5 1.4 0  -5 1.3 0  -5 1.2 0  -5 1.1 0  -5 1 0  -5 0.9000000000000004 0  -5 0.7999999999999998 0  -5 0.7000000000000002 0  -5 0.5999999999999996 0  -5 0.5 0  -5 0.4000000000000004 0  -5 0.2999999999999998 0  -5 0.2000000000000002 0  -5 0.09999999999999964 0  -5 0 0  -5 -0.09999999999999964 0  -5 -0.2000000000000002 0  -5 -0.2999999999999998 0  -5 -0.4000000000000004 0  -5 -0.5 0  -5 -0.5999999999999996 0  -5 -0.7000000000000002 0  -5 -0.7999999999999998 0  -5 -0.9000000000000004 0  -5 -1 0  -5 -1.1 0  -5 -1.2 0  -5 -1.3 0  -5 -1.4 0  -5 -1.5 0  -5 -1.6 0  -5 -1.7 0  -5 -1.8 0  -5 -1.9 0  -5 -2 0  -5 -2.1 0  -5 -2.2 0  -5 -2.3 0  -5 -2.4 0  -5 -2.5 0  -5 -2.6 0  -5 -2.7 0  -5 -2.8 0  -5 -2.9 0  -5 -3 0  -5 -3.1 0  -5 -3.199999999999999 0  -5 -3.300000000000001 0  -5 -3.4 0  -5 -3.5 0  -5 -3.6 0  -5 -3.699999999999999 0  -5 -3.800000000000001 0  -5 -3.9 0  -5 -4 0  -5 -4.1 0  -5 -4.199999999999999 0  -5 -4.300000000000001 0  -5 -4.4 0  -5 -4.5 0  -5 -4.6 0  -5 -4.699999999999999 0  -5 -4.800000000000001 0  -5 -4.9 0  1.21304256023224 0.09824920432912441 0  1.19361585822927 0.1959203159958061 0  1.161463382213047 0.2928743269522006 0  1.120023216549372 0.3836566384087851 0  1.065842079836969 0.4741958007886123 0  1.002463997855644 0.5591348453651086 0  0.9278266452124787 0.6389077236534711 0  0.8440943623536808 0.7119515093643936 0  0.7535569688505328 0.7774263596158751 0  0.6541248636554279 0.8356608097346695 0  0.5474214071272463 0.8870685655414946 0  0.4372456249360687 0.9293762750068946 0  0.3250192751973786 0.962259808079636 0  0.2060169143135748 0.9844792334045676 0  0.08914478372947213 1.000293270243477 0  -0.02771650954795473 1.003164641983793 0  -0.1449574610314604 0.9923228823335131 0  -0.2653946796784555 0.9743593076263013 0  -0.3815685864134096 0.9486470559021127 0  -0.4918637105571264 0.9122245211263085 0  -0.5979927083786233 0.8663568057041459 0  -0.6988261490360375 0.8117166252331126 0  -0.792230964487822 0.7483100675671779 0  -0.8797965229890402 0.6771263793264185 0  -0.9604803564126848 0.5987364186987304 0  -1.030423310691033 0.5167371963789836 0  -1.090397765583431 0.4301657775881138 0  -1.139169874727792 0.3383924095482677 0  -1.175603220062813 0.2451780233810388 0  -1.199855457666237 0.1493687171004509 0  -1.212054319114857 0.0507148557552517 0  -1.212029485827284 -0.04876395194041428 0  -1.199735766424128 -0.146993887777213 0  -1.176034603212921 -0.2427127893023666 0  -1.138257379760741 -0.3381753948348759 0  -1.090694301909866 -0.4291758770430986 0  -1.031552304522355 -0.5160042780807066 0  -0.9622816222871264 -0.5974864015258685 0  -0.8820737361143787 -0.6746188240103684 0  -0.7943234193727066 -0.7445533480017137 0  -0.6993850969142892 -0.8056690905278389 0  -0.5979770513556562 -0.8597084329031152 0  -0.4886351537967046 -0.9073345958813536 0  -0.3773984030010543 -0.9457035908212449 0  -0.2622406716254492 -0.9732742457072694 0  -0.1435805238116995 -0.9915787207432439 0  -0.02764190618224417 -1.002237144979489 0  0.08967532870878915 -0.9970243355873889 0  0.2095590892007647 -0.9819176416189316 0  0.3269623525800548 -0.9605982916814116 0  0.4409820984926286 -0.9279673082689176 0  0.5493498558658403 -0.8861387159560589 0  0.6549199205739057 -0.8354371963328627 0  0.7536773626457437 -0.7785284138659777 0  0.8441388083294517 -0.7127791619558029 0  0.9272767456661724 -0.6384566939297125 0  1.00071384614314 -0.558501209916441 0  1.065667573690068 -0.4735198941210396 0  1.121008846105507 -0.3837024419057506 0  1.163007834949037 -0.2911744292341082 0  1.193978838802353 -0.1950404789980514 0  1.213105301284336 -0.09778845631844825 0  -2.448701009319342 4.918369888128428 0  -2.448587707622917 -4.910771503178721 0  4.910702059924374 2.448091584239647 0  4.918802477080241 -2.449535243620372 0  2.44634227845814 -4.896051341262934 0  2.440769990703846 4.899803384196113 0  -4.910726963378591 -2.448115909678395 0  -4.910724797517517 2.448119765986832 0  -1.748660353904645 4.911371935606814 0  -1.744440833725073 -4.914798866722501 0  4.920952937405294 1.744247895734072 0  4.909532042700413 -1.748034971348255 0  -4.909821994941844 -1.747766333558529 0  -4.910641542190206 1.747509101372192 0  1.745942246391473 4.905254957156196 0  1.747373807315865 -4.893446494989854 0  -1.148942092077502 4.909232163508126 0  -1.129788438457301 -4.917112400218758 0  -4.909633565239158 -1.148059450025735 0  -4.909453285102838 1.147859701790333 0  1.143930344912718 -4.913314045903348 0  1.148950823578169 4.909220065188756 0  4.909777113867077 1.146335944153815 0  4.920554523249157 -1.152102522043462 0  -0.5467214125078266 -4.910459206616524 0  -0.5464989338657567 4.919103087691981 0  -4.908441774988703 -0.5487817109773908 0  -4.908465975652017 0.5473386136218051 0  4.907769579662384 -0.5491015067394946 0  4.919362064837183 0.5458488690743468 0  0.5425089459557791 -4.897400845965613 0  0.5512285670687715 4.915941361417221 0  -4.91206498051939 -3.048440286912891 0  4.918624421263481 3.046446952864257 0  4.911574655897495 -3.048418308015632 0  -4.912911878392768 3.045530661289426 0  3.055411794790298 -4.917556049542384 0  -3.048750990174227 -4.91150364450794 0  3.052315660622476 4.913578318008232 0  -3.048195814132534 4.912391997935464 0  -4.907578181955459 -0.04991500866477998 0  0.04512314228451774 -4.912412921778696 0  0.04957115369589158 4.919406735716004 0  4.914597536952193 -0.05129663825993819 0  3.54570707546217 -4.919147857368423 0  -3.548995199
[...]
<PointData  Vectors="f_2766"> 
<DataArray  type="Float64"  Name="f_2766"  NumberOfComponents="3" format="ascii">2.6559658580599843e-76 2.6559658580599843e-76 0.0000000000000000e+00  -2.8445085011138465e-76 2.8445085011138465e-76 0.0000000000000000e+00  -8.5659604779107103e-78 -8.5659604779107103e-78 0.0000000000000000e+00  3.0308186857310508e-76 -3.0308186857310508e-76 0.0000000000000000e+00  -3.2788267917392494e-01 -6.1746301353602156e-03 0.0000000000000000e+00  4.1655489285672110e-75 6.6065716252773955e-75 0.0000000000000000e+00  2.0827582825379891e-75 2.0879643565655138e-74 0.0000000000000000e+00  -3.4047646748907176e-75 6.7706017055760747e-75 0.0000000000000000e+00  3.9989143878698728e-72 6.6692052523999065e-72 0.0000000000000000e+00  5.3151794578290286e-71 1.3459786191796893e-70 0.0000000000000000e+00  -7.9154103674393057e-72 4.5548432735268691e-71 0.0000000000000000e+00  3.2324147084970150e-69 6.1640540675698449e-69 0.0000000000000000e+00  5.1578098405067354e-68 9.4020404942427583e-68 0.0000000000000000e+00  -3.0617119481306072e-68 1.4997981790765856e-67 0.0000000000000000e+00  1.2757416743589853e-67 3.9826177281655131e-67 0.0000000000000000e+00  1.2669452427642691e-68 8.7788365181058635e-67 0.0000000000000000e+00  5.4459304783057815e-64 8.8280069735637826e-64 0.0000000000000000e+00  4.7509573735034772e-65 2.4418367560080786e-63 0.0000000000000000e+00  1.3474300026146524e-62 2.2004486223271285e-62 0.0000000000000000e+00  8.0589571703830060e-63 8.3188097009803004e-62 0.0000000000000000e+00  6.9208040389108682e-61 1.1031314550870100e-60 0.0000000000000000e+00  4.0555629723451448e-60 7.0119034940105977e-60 0.0000000000000000e+00  -2.8417874970972550e-60 7.6951466780112724e-60 0.0000000000000000e+00  5.6516704268492073e-59 1.1375802906129224e-58 0.0000000000000000e+00  -1.7550870459714536e-59 1.1643806804892622e-58 0.0000000000000000e+00  -2.9964703397528959e-59 6.8338584522384004e-59 0.0000000000000000e+00  1.7979664714085572e-58 3.3070485788214974e-58 0.0000000000000000e+00  7.2811793368932010e-58 2.0905765417469290e-57 0.0000000000000000e+00  2.8528327447927053e-57 6.2375676158608593e-57 0.0000000000000000e+00  -3.3973205356147503e-57 5.7324017981674821e-57 0.0000000000000000e+00  -3.5116099822486420e-58 1.0972039021754504e-57 0.0000000000000000e+00  1.9025554333372389e-56 2.9351777925336458e-56 0.0000000000000000e+00  -1.4086194409498371e-56 3.5285120476530557e-56 0.0000000000000000e+00  1.1872669265853167e-56 2.8954257893780350e-56 0.0000000000000000e+00  8.7068167694212655e-56 2.0990140359777275e-55 0.0000000000000000e+00  -2.4961869568232009e-56 5.7430929776296380e-55 0.0000000000000000e+00  5.1897298840314521e-57 8.6207680486505103e-57 0.0000000000000000e+00  5.5224676333916372e-56 1.3825639135971749e-55 0.0000000000000000e+00  1.5426695296529391e-55 6.1719328420581538e-55 0.0000000000000000e+00  -2.2263280995509054e-55 3.5131965993925096e-55 0.0000000000000000e+00  9.7924172472688740e-55 1.7242884611433360e-54 0.0000000000000000e+00  -4.3969872679282411e-55 4.3610545993301458e-54 0.0000000000000000e+00  -2.2704203614948946e-55 2.6818236918463661e-54 0.0000000000000000e+00  -9.5679768872107255e-56 9.4388220595359502e-55 0.0000000000000000e+00  -1.1254330994991953e-55 1.8209968186637626e-55 0.0000000000000000e+00  2.7461202124924950e-54 5.2360959620280876e-54 0.0000000000000000e+00  -2.1487797680477895e-54 4.1372066582818577e-54 0.0000000000000000e+00  -7.1546277775115339e-55 8.0754015930620438e-55 0.0000000000000000e+00  -1.3134448299165998e-55 2.7124017007439451e-55 0.0000000000000000e+00  9.2537576671356323e-55 1.4456669664652390e-54 0.0000000000000000e+00  9.4053514342110654e-55 6.1551268482429371e-54 0.0000000000000000e+00  -1.1223367337590594e-54 5.8987214291066518e-54 0.0000000000000000e+00  5.1195088100003671e-55 4.6483831763844850e-54 0.0000000000000000e+00  1.9010741176874134e-56 5.7932305338523598e-54 0.0000000000000000e+00  3.0010982393464045e-55 6.1513981636574923e-54 0.0000000000000000e+00  -1.2547742014494927e-54 2.0443027092688573e-54 0.0000000000000000e+00  -6.4223002364370806e-55 1.4724471065905759e-53 0.0000000000000000e+00  4.4397029521271542e-54 7.4678418643822762e-54 0.0000000000000000e+00  -4.3241132302620512e-54 8.0976989131791249e-54 0.0000000000000000e+00  1.9117406097110233e-54 3.9559603126165346e-54 0.0000000000000000e+00  -7.3262655980878437e-55 9.4996041115490206e-54 0.0000000000000000e+00  1.3240569760609572e-54 9.3282821620888978e-54 0.0000000000000000e+00  -1.6764673251396854e-54 4.3976967086536327e-54 0.0000000000000000e+00  -9.2058737938109830e-55 2.4055757233121817e-54 0.0000000000000000e+00  3.3150094345705897e-55 1.2993590850894464e-54 0.0000000000000000e+00  2.6435989368349131e-55 2.5374276477253813e-54 0.0000000000000000e+00  -7.8122061821199032e-56 3.4900156265897008e-54 0.0000000000000000e+00  -7.0818851938616273e-55 1.4822675991727924e-54 0.0000000000000000e+00  2.3675643005230189e-55 4.4235289178984843e-55 0.0000000000000000e+00  -2.3003594639528674e-55 6.0260769872393376e-55 0.0000000000000000e+00  5.0121872744269013e-56 2.3974885559787182e-55 0.0000000000000000e+00  1.8586584353239515e-55 9.5221082715337241e-55 0.0000000000000000e+00  -3.2913834973784375e-55 5.3056429100237069e-55 0.0000000000000000e+00  -1.5853400250921096e-56 4.8238825083266923e-56 0.0000000000000000e+00  -1.1316462123780348e-57 1.1334253969018719e-56 0.0000000000000000e+00  6.7297492575172735e-57 2.3543696023565188e-56 0.0000000000000000e+00  -8.9644200044862672e-57 1.5029768726208581e-56 0.0000000000000000e+00  1.7363099932168391e-57 2.8852441125160017e-57 0.0000000000000000e+00  -1.2405664812444460e-57 2.7255597669990474e-57 0.0000000000000000e+00  5.1613131538703537e-57 7.8038850564397645e-57 0.0000000000000000e+00  -4.5211631674463356e-57 1.1254885626976387e-56 0.0000000000000000e+00  -1.8089513938566661e-58 9.3966340367293625e-58 0.0000000000000000e+00  -2.3861054805557461e-58 4.6545065235619843e-58 0.0000000000000000e+00  -7.8585673933919334e-61 8.8104023725258594e-59 0.0000000000000000e+00  -2.4401647503521689e-59 6.4247611765428515e-59 0.0000000000000000e+00  -7.0997041503892892e-60 2.5002928839999508e-59 0.0000000000000000e+00  -4.3766372712893092e-60 2.2389479616885004e-59 0.0000000000000000e+00  -3.0568605228880559e-60 7.1701944866254088e-60 0.0000000000000000e+00  -8.5068778348821250e-62 4.4357915770549736e-61 0.0000000000000000e+00  -1.0739005532069450e-61 2.2347951450791986e-61 0.0000000000000000e+00  -3.5813133261690421e-62 5.6767073650492592e-62 0.0000000000000000e+00  -3.9037754078180505e-64 6.7003221401254138e-64 0.0000000000000000e+00  -2.4277931146609479e-65 5.1722438822182260e-65 0.0000000000000000e+00  3.7027049550300391e-66 1.0384258693695785e-65 0.0000000000000000e+00  -4.8367600645316017e-66 9.2642203984340014e-66 0.0000000000000000e+00  -6.6923461111649771e-68 2.7714377549133985e-67 0.0000000000000000e+00  -7.8459860024757034e-68 1.2921395701754003e-67 0.0000000000000000e+00  -8.0544120666571774e-69 1.1735450885381705e-68 0.0000000000000000e+00  -5.6295136658222675e-70 9.5223407699451960e-70 0.0000000000000000e+00  -3.7773771597915914e-71 6.8197780472029866e-71 0.0000000000000000e+00  -1.8776329708242065e-72 3.2031624084622699e-72 0.0000000000000000e+00  -1.2174405276093183e-73 2.7269190347615364e-73 0.0000000000000000e+00  -4.4201713820377094e-75 1.2912164922830641e-74 0.0000000000000000e+00  -2.5478512633873518e-75 4.2413814880402706e-75 0.0000000000000000e+00  -9.7692576610702011e-76 3.5580014238231466e-76 0.0000000000000000e+00  -1.6210295756900406e-75 -2.3915837484568914e-76 0.0000000000000000e+00  -2.4491700545709877e-74 1.1588614813145924e-74 0.0000000000000000e+00  -3.6791877672255511e-74 1.5499177531143230e-75 0.0000000000000000e+00  -3.8835227082879646e-73 1.4330665128698390e-73 0.0000000000000000e+00  -1.0240271520954260e-71 6.2359717645759328e-72 0.0000000000000000e+00  -6.7426731245375943e-71 3.7066975627757599e-71 0.0000000000000000e+00  -1.0610624042172168e-70 3.9011113947858585e-72 0.0000000000000000e+00  -8.9024072807057194e-70 3.3073480886029125e-70 0.0000000000000000e+00  -2.1295061811283232e-68 1.2857217615951816e-68 0.0000000000000000e+00  -1.0241277413265776e-67 5.1069665428876634e-68 0.0000000000000000e+00  -1.0130429453161917e-67 -6.0216880782584360e-68 0.0000000000000000e+00  -3.1672727126464946e-66 1.7447971535487163e-66 0.0000000000000000e+00  -3.1869520969273533e-65 1.8302335985939295e-65 0.0000000000000000e+00  -5.3864299041301725e-65 5.0412651355013890e-66 0.0000000000000000e+00  -4.4380970871945693e-64 1.4451698871121573e-64 0.0000000000000000e+00  -6.9980824499684598e-63 4.3543095565641034e-63 0.0000000000000000e+00  -1.5069080505991291e-62 3.7440009796025049e-63 0.0000000000000000e+00  -8.4357102447461686e-62 1.9642609444725474e-62 0.0000000000000000e+00  -1.3560577714968793e-60 8.5061617942091181e-61 0.0000000000000000e+00  -2.4173779909735897e-60 3.3767058598604888e-61 0.0000000000000000e+00  -2.1180070740858408e-59 7.3861468725669468e-60 0.0000000000000000e+00  -2.4192833847146625e-58 1.4918243365290068e-58 0.0000000000000000e+00  -2.5861213983758379e-58 -9.3988924527853101e-59 0.0000000000000000e+00  -5.9825093118426805e-57 2.7758156691537002e-57 0.0000000000000000e+00  -2.4855755826681794e-56 1.2362054572557663e-56 0.0000000000000000e+00  -5.5618481025354207e-56 -8.6587402448416092e-57 0.0000000000000000e+00  -1.0124206425652552e-54 6.4620599092981632e-55 0.0000000000000000e+00  -1.1199780787104439e-54 -3.4534246714103860e-55 0.0000000000000000e+00  -2.4102817502102508e-53 1.2653458002212554e-53 0.0000000000000000e+00  -6.5987303344205840e-53 2.9786614839020777e-53 0.0000000000000000e+00  -4.3588458289685549e-52 1.2201257076377901e-52 0.0000000000000000e+00  -2.6689649278019416e-51 1.6564478384639502e-51 0.0000000000000000e+00  -7.6655777351113014e-51 -2.1276154075756301e-52 0.0000000000000000e+00  -7.2054295660055765e-50 4.5765481360474026e-50 0.0000000000000000e+00  -1.6169723188514015e-49 -1.4696122261351392e-50 0.0000000000000000e+00  -1.7313967721343463e-48 1.0051088172172230e-48 0.0000000000000000e+00  -4.3409409600330560e-48 -2.0265846327484973e-49 0.0000000000000000e+00  -2.0156760726201622e-47 1.1037807999269766e-47 0.0000000000000000e+00  -1.1031121643945815e-46 1.8857415999461719e-47 0.0000000000000000e+00  -1.0251283223260231e-46 2.4456188983878936e-47 0.0000000000000000e+00  -1.2415245356395825e-45 5.2217819953415433e-46 0.0000000000000000e+00  -8.7302908877469000e-46 -5.6429910370838138e-46 0.0000000000000000e+00  -1.3440796675891422e-44 8.0192794745054941e-45 0.0000000000000000e+00  -5.7977491530875490e-44 1.3649938888023199e-44 0.0000000000000000e+00  -3.6140827627421676e-44 -1.7395965888637286e-44 0.0000000000000000e+00  -1.1430417606198952e-43 6.4568809600847139e-44 0.0000000000000000e+00  -8.4148761769838719e-43 2.3003893902180584e-43 0.0000000000000000e+00  -1.9293524679911036e-42 1.9620689220028916e-43 0.0000000000000000e+00  -2.5119560408693078e-42 6.0625796251765413e-44 0.0000000000000000e+00  -2.0147283264158670e-42 -1.9347331495836730e-43 0.0000000000000000e+00  -8.6156197886111154e-43 -2.4886996395271269e-43 0.0000000000000000e+00  -1.1329981054558813e-43 -6.4034300072059228e-44 0.0000000000000000e+00  -3.8699829004263396e-44 1.8378279596844927e-44 0.0000000000000000e+00  -6.3182981472512008e-44 -1.0752921388613454e-44 0.0000000000000000e+00  -1.5000183767476276e-44 -7.8165248303436110e-45 0.0000000000000000e+00  -9.9805745833954058e-46 5.6356449426565191e-46 0.0000000000000000e+00  -1.4049152356851594e-45 -5.3530663015591225e-46 0.0000000000000000e+00  -1.1213487653553447e-46 -2.8378117309862965e-47 0.0000000000000000e+00  -1.0186131781958353e-46 -2.1298835776547206e-47 0.0000000000000000e+00  -1.8635064384763075e-47 -1.1902387708194980e-47 0.0000000000000000e+00  -4.0853741501638358e-48 2.0177988731466550e-49 0.0000000000000000e+00  -1.4889853948295677e-48 -9.3066579810884141e-49 0.0000000000000000e+00  -1.6326524722462006e-49 2.4403934272127741e-50 0.0000000000000000e+00  -7.4688864840279352e-50 -4.3967215741539702e-50 0.0000000000000000e+00  -8.2447805050849228e-51 6.3670301378753388e-52 0.0000000000000000e+00  -3.1501312191827929e-51 -1.7744353584660181e-51 0.0000000000000000e+00  -5.1059649681989068e-52 -1.1412449525578582e-52 0.0000000000000000e+00  -8.2154256050366941e-53 -3.5300398722847309e-53 0.0000000000000000e+00  -2.6653863156896749e-53 -1.3097651011156078e-53 0.0000000000000000e+00  -1.1963342123183510e-54 3.2250375101747215e-55 0.0000000000000000e+00  -1.0654854195325103e-54 -6.7768685692329344e-55 0.0000000000000000e+00  -5.1501580949033199e-56 8.3124748669560909e-57 0.0000000000000000e+00  -2.3399566506530311e-56 -1.3188309328800566e-56 0.0000000000000000e+00  -4.8301069501791970e-57 -2.5124932543547429e-57 0.0000000000000000e+00  -2.4565930676567072e-58 8.5166471873132031e-59 0.0000000000000000e+00  -2.1614414602647516e-58 -1.3242992971668965e-58 0.0000000000000000e+00  -1.9924382587320525e-59 -6.1286453081384628e-60 0.0000000000000000e+00  -2.3756800881437993e-60 -3.3861704895057902e-61 0.0000000000000000e+00  -1.2924780831777174e-60 -7.5884106018539770e-61 0.0000000000000000e+00  -7.6949613017044632e-62 -2.1388653050034707e-62 0.0000000000000000e+00  -1.3599601637657945e-62 -2.9235354911200048e-63 0.0000000000000000e+00  -6.6462321826488430e-63 -3.7803080850793651e-63 0.0000000000000000e+00  -4.7861621469487966e-64 -1.8162040913473794e-64 0.0000000000000000e+00  -4.3636984094601778e-65 9.5629225910315814e-67 0.0000000000000000e+00  -2.9507250700335760e-65 -1.6593391686439627e-65 0.0000000000000000e+00  -3.4160373487145234e-66 -1.9857930099178467e-66 0.0000000000000000e+00  -8.9877607310130613e-68 5.4727798477884192e-68 0.0000000000000000e+00  -8.6417184854273179e-68 -4.1723761345526794e-68 0.0000000000000000e+00  -2.0696051968087381e-68 -1.2835845952032995e-68 0.0000000000000000e+00  -1.1331233628336570e-69 -5.1289590543494801e-70 0.0000000000000000e+00  -8.7931449964716023e-71 1.3777162340382115e-71 0.0000000000000000e+00  -6.9110314215214912e-71 -3.6545047630055073e-71 0.0000000000000000e+00  -1.2484049828891074e-71 -7.6576489263148862e-72 0.0000000000000000e+00  -5.9832958093451437e-73 -2.7498461366047298e-73 0.0000000000000000e+00  -3.9234028023018572e-74 7.4203303091334832e-75 0.0000000000000000e+00  -3.1570276825375446e-74 -1.4785835034151966e-74 0.0000000000000000e+00  -6.5912893164156888e-75 -3.3564976840861824e-75 0.0000000000000000e+00  -7.1800827366436690e-76 -3.1069918242875970e-76 0.0000000000000000e+00  -8.5512180105653282e-76 -1.6229094067074264e-75 0.0000000000000000e+00  -4.7730883702115040e-75 -1.3946331203167390e-74 0.0000000000000000e+00  4.3654169442254989e-75 -8.3073911875620312e-75 0.0000000000000000e+00  -1.6287956788470112e-73 -3.4277698873989171e-73 0.0000000000000000e+00  -9.2806042075262801e-71 -1.0073795908291037e-70 0.0000000000000000e+00  -7.5017662226809806e-70 -1.3181321262800039e-69 0.0000000000000000e+00  -1.0976415334754608e-69 -3.6519403706659214e-69 0.0000000000000000e+00  -7.7547191676457927e-68 -1.7119594859676674e-67 0.0000000000000000e+00  -6.5248577179120286e-68 -3.2604755121866602e-67 0.0000000000000000e+00  -6.7830617021203260e-66 -1.3506348476415077e-65 0.0000000000000000e+00  -4.5144917214394088e-66 -2.1320699196541058e-65 0.0000000000000000e+00  -9.0580490540843487e-65 -1.5584893527276097e-64 0.0000000000000000e+00  1.7195365551916980e-65 -2.1033721981034204e-64 0.0000000000000000e+00  -4.2694426474868824e-62 -6.4073338162116267e-62 0.0000000000000000e+00  -6.9872210486936036e-62 -1.7215679224668771e-61 0.0000000000000000e+00  -2.3219241449739817e-62 -2.7289353632240545e-61 0.0000000000000000e+00  -5.7300418752024952e-60 -1.1370078681282136e-59 0.0000000000000000e+00  4.7577290191374126e-60 -1.5013428945263813e-59 0.0000000000000000e+00  -2.8950285133137027e-59 -4.7530158077984255e-59 0.0000000000000000e+00  8.8020113348761091e-60 -6.0848276262234881e-59 0.0000000000000000e+00  2.3199988645817902e-59 -3.9683971471530548e-59 0.0000000000000000e+00  -5.6247967720176325e-58 -8.9560127498672913e-58 0.0000000000000000e+00  -1.3768032638498390e-59 -1.2602598767347664e-57 0.0000000000000000e+00  -4.6223247486751693e-57 -1.1644842419036631e-56 0.0000000000000000e+00  5.7335187470323922e-57 -8.6651600992523070e-57 0.0000000000000000e+00  -5.3190743318673765e-57 -7.3465310642292056e-57 0.0000000000000000e+00  -1.7619942028658644e-56 -3.7762101760977775e-56 0.0000000000000000e+00  2.1551735507020876e-56 -4.0677735700529730e-56 0.0000000000000000e+00  -4.9871437325183446e-57 -9.2085757751046725e-57 0.0000000000000000e+00  -8.0928112135781917e-56 -2.0322974780446762e-55 0.0000000000000000e+00  6.3490221693075497e-56 -5.0760524415311867e-55 0.0000000000000000e+00  -4.2751659398065422e-55 -7.2644144168408268e-55 0.0000000000000000e+00  -4.8718636609614371e-56 -1.8358438512656357e-54 0.0000000000000000e+00  1.6543121497141346e-55 -5.7373840988999948e-55 0.0000000000000000e+00  -5.1642297071593280e-55 -1.6767328187822062e-54 0.0000000000000000e+00  -2.2455382854006279e-54 -7.0749831262843629e-54 0.0000000000000000e+00  2.5721121949122454e-54 -6.0735223150114310e-54 0.0000000000000000e+00  -6.6949608773408095e-55 -2.3906163552303661e-54 0.0000000000000000e+00  5.3026714997902583e-55 -2.8185751118936982e-54 0.0000000000000000e+00  1.2765562449663861e-55 -1.4247119538797505e-54 0.0000000000000000e+00  -2.1713162531124481e-54 -3.4688815108598632e-54 0.0000000000000000e+00  5.6856046850759019e-55 -8.2269115717430160e-54 0.0000000000000000e+00  -3.9142393907966365e-54 -1.3561528620425529e-53 0.0000000000000000e+00  4.6721893923883456e-54 -7.7114937944472624e-54 0.0000000000000000e+00  2.0228111135688123e-55 -6.5051291194222738e-55 0.0000000000000000e+00  -4.7804953921741020e-54 -8.0114190971496926e-54 0.0000000000000000e+00  4.8059419950384390e-54 -7.8681689571857885e-54 0.0000000000000000e+00  -1.6546774431283804e-56 -1.3350287970399147e-55 0.0000000000000000e+00  1.1103913926127369e-56 -2.7681605629682946e-55 0.0000000000000000e+00  2.1972990483326243e-56 -9.8796939239572311e-56 0.0000000000000000e+00  -5.1819705216229617e-54 -9.3533219202511344e-54 0.0000000000000000e+00  5.5271888806665832e-54 -9.4095030514232051e-54 0.0000000000000000e+00  5.6510147307069214e-56 -1.0520988639409451e-55 0.0000000000000000e+00  -1.4268673819557435e-56 -6.2043214402041972e-56 0.0000000000000000e+00  -4.9785522251052338e-55 -9.0436951053751436e-55 0.0000000000000000e+00  -5.7909741767092328e-54 -1.0041890670233160e-53 0.0000000000000000e+00  4.4857103516824128e-54 -1.0495528664701610e-53 0.0000000000000000e+00  -3.0404772104829187e-54 -7.9825764570275478e-54 0.0000000000000000e+00  2.4294938541153164e-54 -8.5523417338816022e-54 0.0000000000000000e+00  2.2379832900061018e-54 -3.3087264686909270e-54 0.0000000000000000e+00  -5.4168427254030389e-55 -1.4792117403697123e-54 0.0000000000000000e+00  8.3273231640944328e-55 -1.5749503569451825e-54 0.0000000000000000e+00  -4.9059266705793489e-55 -9.8260478737393390e-55 0.0000000000000000e+00  5.1078293398965513e-55 -8.8624132292501404e-55 0.0000000000000000e+00  -1.5613796050212754e-56 -2.6897811727037679e-56 0.0000000000000000e+00  -4.4615433751902863e-56 -1.7211820474031241e-55 0.0000000000000000e+00  4.1602436813547921e-56 -1.7474632112833785e-55 0.0000000000000000e+00  4.7910941184891956e-57 -6.9038841525151594e-56 0.0000000000000000e+00  -2.7404310869084978e-56 -6.5383078538745081e-56 0.0000000000000000e+00  3.2785792693563149e-56 -6.4190219770095748e-56 0.0000000000000000e+00  -2.8507024130839804e-57 -2.8728871372739675e-56 0.0000000000000000e+00  1.2926542401848713e-56 -3.0041479098674836e-56 0.0000000000000000e+00  9.9991268979072635e-58 -2.4006894800881368e-57 0.0000000000000000e+00  -4.3714136663216495e-57 -7.6320554675080761e-57 0.0000000000000000e+00  4.2401121317829426e-57 -1.1013583568471628e-56 0.0000000000000000e+00  3.1173870766264881e-58 -1.0217859829121509e-57 0.0000000000000000e+00  1.4348111678537039e-58 -5.0283