<?xml version="1.0"?>
<VTKFile type="UnstructuredGrid"  version="0.1"  >
<UnstructuredGrid>
<Piece  NumberOfPoints="11902" NumberOfCells="23402">
<Points>
<DataArray  type="Float64"  NumberOfComponents="3"  format="ascii">-5 -5 0  5 -5 0  5 5 0  -5 5 0  1.261671113010833 0.00131346724352455 0  -4.9 -5 0  -4.8 -5 0  -4.7 -5 0  -4.6 -5 0  -4.5 -5 0  -4.4 -5 0  -4.3 -5 0  -4.2 -5 0  -4.1 -5 0  -4 -5 0  -3.9 -5 0  -3.8 -5 0  -3.7 -5 0  -3.6 -5 0  -3.5 -5 0  -3.4 -5 0  -3.3 -5 0  -3.2 -5 0  -3.1 -5 0  -3 -5 0  -2.9 -5 0  -2.8 -5 0  -2.7 -5 0  -2.6 -5 0  -2.5 -5 0  -2.4 -5 0  -2.3 -5 0  -2.2 -5 0  -2.1 -5 0  -2 -5 0  -1.9 -5 0  -1.8 -5 0  -1.7 -5 0  -1.6 -5 0  -1.5 -5 0  -1.4 -5 0  -1.3 -5 0  -1.2 -5 0  -1.1 -5 0  -1 -5 0  -0.9000000000000004 -5 0  -0.7999999999999998 -5 0  -0.7000000000000002 -5 0  -0.5999999999999996 -5 0  -0.5 -5 0  -0.4000000000000004 -5 0  -0.2999999999999998 -5 0  -0.2000000000000002 -5 0  -0.09999999999999964 -5 0  0 -5 0  0.09999999999999964 -5 0  0.2000000000000002 -5 0  0.2999999999999998 -5 0  0.4000000000000004 -5 0  0.5 -5 0  0.5999999999999996 -5 0  0.7000000000000002 -5 0  0.7999999999999998 -5 0  0.9000000000000004 -5 0  1 -5 0  1.1 -5 0  1.2 -5 0  1.3 -5 0  1.4 -5 0  1.5 -5 0  1.6 -5 0  1.7 -5 0  1.8 -5 0  1.9 -5 0  2 -5 0  2.1 -5 0  2.2 -5 0  2.3 -5 0  2.4 -5 0  2.5 -5 0  2.6 -5 0  2.7 -5 0  2.8 -5 0  2.9 -5 0  3 -5 0  3.1 -5 0  3.199999999999999 -5 0  3.300000000000001 -5 0  3.4 -5 0  3.5 -5 0  3.6 -5 0  3.699999999999999 -5 0  3.800000000000001 -5 0  3.9 -5 0  4 -5 0  4.1 -5 0  4.199999999999999 -5 0  4.300000000000001 -5 0  4.4 -5 0  4.5 -5 0  4.6 -5 0  4.699999999999999 -5 0  4.800000000000001 -5 0  4.9 -5 0  5 -4.9 0  5 -4.8 0  5 -4.7 0  5 -4.6 0  5 -4.5 0  5 -4.4 0  5 -4.3 0  5 -4.2 0  5 -4.1 0  5 -4 0  5 -3.9 0  5 -3.8 0  5 -3.7 0  5 -3.6 0  5 -3.5 0  5 -3.4 0  5 -3.3 0  5 -3.2 0  5 -3.1 0  5 -3 0  5 -2.9 0  5 -2.8 0  5 -2.7 0  5 -2.6 0  5 -2.5 0  5 -2.4 0  5 -2.3 0  5 -2.2 0  5 -2.1 0  5 -2 0  5 -1.9 0  5 -1.8 0  5 -1.7 0  5 -1.6 0  5 -1.5 0  5 -1.4 0  5 -1.3 0  5 -1.2 0  5 -1.1 0  5 -1 0  5 -0.9000000000000004 0  5 -0.7999999999999998 0  5 -0.7000000000000002 0  5 -0.5999999999999996 0  5 -0.5 0  5 -0.4000000000000004 0  5 -0.2999999999999998 0  5 -0.2000000000000002 0  5 -0.09999999999999964 0  5 0 0  5 0.09999999999999964 0  5 0.2000000000000002 0  5 0.2999999999999998 0  5 0.4000000000000004 0  5 0.5 0  5 0.5999999999999996 0  5 0.7000000000000002 0  5 0.7999999999999998 0  5 0.9000000000000004 0  5 1 0  5 1.1 0  5 1.2 0  5 1.3 0  5 1.4 0  5 1.5 0  5 1.6 0  5 1.7 0  5 1.8 0  5 1.9 0  5 2 0  5 2.1 0  5 2.2 0  5 2.3 0  5 2.4 0  5 2.5 0  5 2.6 0  5 2.7 0  5 2.8 0  5 2.9 0  5 3 0  5 3.1 0  5 3.199999999999999 0  5 3.300000000000001 0  5 3.4 0  5 3.5 0  5 3.6 0  5 3.699999999999999 0  5 3.800000000000001 0  5 3.9 0  5 4 0  5 4.1 0  5 4.199999999999999 0  5 4.300000000000001 0  5 4.4 0  5 4.5 0  5 4.6 0  5 4.699999999999999 0  5 4.800000000000001 0  5 4.9 0  4.9 5 0  4.8 5 0  4.7 5 0  4.6 5 0  4.5 5 0  4.4 5 0  4.3 5 0  4.2 5 0  4.1 5 0  4 5 0  3.9 5 0  3.8 5 0  3.7 5 0  3.6 5 0  3.5 5 0  3.4 5 0  3.3 5 0  3.2 5 0  3.1 5 0  3 5 0  2.9 5 0  2.8 5 0  2.7 5 0  2.6 5 0  2.5 5 0  2.4 5 0  2.3 5 0  2.2 5 0  2.1 5 0  2 5 0  1.9 5 0  1.8 5 0  1.7 5 0  1.6 5 0  1.5 5 0  1.4 5 0  1.3 5 0  1.2 5 0  1.1 5 0  1 5 0  0.9000000000000004 5 0  0.7999999999999998 5 0  0.7000000000000002 5 0  0.5999999999999996 5 0  0.5 5 0  0.4000000000000004 5 0  0.2999999999999998 5 0  0.2000000000000002 5 0  0.09999999999999964 5 0  0 5 0  -0.09999999999999964 5 0  -0.2000000000000002 5 0  -0.2999999999999998 5 0  -0.4000000000000004 5 0  -0.5 5 0  -0.5999999999999996 5 0  -0.7000000000000002 5 0  -0.7999999999999998 5 0  -0.9000000000000004 5 0  -1 5 0  -1.1 5 0  -1.2 5 0  -1.3 5 0  -1.4 5 0  -1.5 5 0  -1.6 5 0  -1.7 5 0  -1.8 5 0  -1.9 5 0  -2 5 0  -2.1 5 0  -2.2 5 0  -2.3 5 0  -2.4 5 0  -2.5 5 0  -2.6 5 0  -2.7 5 0  -2.8 5 0  -2.9 5 0  -3 5 0  -3.1 5 0  -3.199999999999999 5 0  -3.300000000000001 5 0  -3.4 5 0  -3.5 5 0  -3.6 5 0  -3.699999999999999 5 0  -3.800000000000001 5 0  -3.9 5 0  -4 5 0  -4.1 5 0  -4.199999999999999 5 0  -4.300000000000001 5 0  -4.4 5 0  -4.5 5 0  -4.6 5 0  -4.699999999999999 5 0  -4.800000000000001 5 0  -4.9 5 0  -5 4.9 0  -5 4.8 0  -5 4.7 0  -5 4.6 0  -5 4.5 0  -5 4.4 0  -5 4.3 0  -5 4.2 0  -5 4.1 0  -5 4 0  -5 3.9 0  -5 3.8 0  -5 3.7 0  -5 3.6 0  -5 3.5 0  -5 3.4 0  -5 3.3 0  -5 3.2 0  -5 3.1 0  -5 3 0  -5 2.9 0  -5 2.8 0  -5 2.7 0  -5 2.6 0  -5 2.5 0  -5 2.4 0  -5 2.3 0  -5 2.2 0  -5 2.1 0  -5 2 0  -5 1.9 0  -5 1.8 0  -5 1.7 0  -5 1.6 0  -5 1.5 0  -5 1.4 0  -5 1.3 0  -5 1.2 0  -5 1.1 0  -5 1 0  -5 0.9000000000000004 0  -5 0.7999999999999998 0  -5 0.7000000000000002 0  -5 0.5999999999999996 0  -5 0.5 0  -5 0.4000000000000004 0  -5 0.2999999999999998 0  -5 0.2000000000000002 0  -5 0.09999999999999964 0  -5 0 0  -5 -0.09999999999999964 0  -5 -0.2000000000000002 0  -5 -0.2999999999999998 0  -5 -0.4000000000000004 0  -5 -0.5 0  -5 -0.5999999999999996 0  -5 -0.7000000000000002 0  -5 -0.7999999999999998 0  -5 -0.9000000000000004 0  -5 -1 0  -5 -1.1 0  -5 -1.2 0  -5 -1.3 0  -5 -1.4 0  -5 -1.5 0  -5 -1.6 0  -5 -1.7 0  -5 -1.8 0  -5 -1.9 0  -5 -2 0  -5 -2.1 0  -5 -2.2 0  -5 -2.3 0  -5 -2.4 0  -5 -2.5 0  -5 -2.6 0  -5 -2.7 0  -5 -2.8 0  -5 -2.9 0  -5 -3 0  -5 -3.1 0  -5 -3.199999999999999 0  -5 -3.300000000000001 0  -5 -3.4 0  -5 -3.5 0  -5 -3.6 0  -5 -3.699999999999999 0  -5 -3.800000000000001 0  -5 -3.9 0  -5 -4 0  -5 -4.1 0  -5 -4.199999999999999 0  -5 -4.300000000000001 0  -5 -4.4 0  -5 -4.5 0  -5 -4.6 0  -5 -4.699999999999999 0  -5 -4.800000000000001 0  -5 -4.9 0  1.253469199132288 0.09424161804966626 0  1.231542737768337 0.191956371831649 0  1.198031789825617 0.2884961578949962 0  1.155206134843791 0.3769756508507055 0  1.096978218138502 0.4679039025308758 0  1.030921219295475 0.5519204707676532 0  0.9523813372765397 0.6320897412368152 0  0.8653152049309665 0.7069086344950078 0  0.7734850865940421 0.7723193243774968 0  0.6711731722717806 0.8297110295584289 0  0.5587246579710454 0.8819571967427138 0  0.4458584063522708 0.9266454251364636 0  0.3339334440766809 0.9586304315222288 0  0.2087559163005574 0.9804205760853477 0  0.08852601675581959 0.9993314922677571 0  -0.02682542999141579 1.002707054655517 0  -0.1444969319098461 0.9889034547822024 0  -0.27268282656054 0.9696427271298708 0  -0.3922396967648826 0.9455046585944978 0  -0.5025698930052941 0.909766336688296 0  -0.6121749646113339 0.8632897405327026 0  -0.7142918202093004 0.8084817894254827 0  -0.8089612172978582 0.743662535192391 0  -0.9002718097650703 0.6699772298276284 0  -0.9862762239180387 0.5900142464442469 0  -1.060894452459962 0.5087679498299584 0  -1.122802105766439 0.4237464519280446 0  -1.17674149613104 0.3310109503835532 0  -1.214554574651901 0.2426593691462617 0  -1.239009713412659 0.1486122636790631 0  -1.249756093106518 0.05195357319168128 0  -1.249715271053354 -0.04973733585436829 0  -1.238986284228139 -0.1456559709026181 0  -1.21416941688442 -0.2375510089362923 0  -1.172431411808699 -0.3324260863276079 0  -1.123142307544632 -0.4244245333690888 0  -1.062717893158983 -0.5086482175567333 0  -0.9887635388004946 -0.5890140276433168 0  -0.9033913154572143 -0.6679016384696587 0  -0.8127077169783906 -0.7395566107328529 0  -0.7169183722813469 -0.8005156379559824 0  -0.6121644619542358 -0.853667962928175 0  -0.4976201215013565 -0.9032703364384796 0  -0.3848475220313853 -0.9431659650685699 0  -0.269351397713926 -0.9694151541541575 0  -0.1429183324648974 -0.9888260882963824 0  -0.02777382682657299 -1.001933671009269 0  0.08757087582902753 -0.9945799125137487 0  0.2146240139996367 -0.9767925865193666 0  0.3366463778113448 -0.9569788368488483 0  0.4500274004521092 -0.9253241370768143 0  0.5612254993012796 -0.8811964614289391 0  0.6722495063101556 -0.8296986961605614 0  0.7734130607394003 -0.7734390566335541 0  0.8651985117347404 -0.7080958808384291 0  0.9511055767241529 -0.6323711030420303 0  1.028346955850912 -0.5507924706647588 0  1.09801814180273 -0.466689814468827 0  1.156006196519823 -0.3773935914593807 0  1.199778387447231 -0.2865590635808811 0  1.232246470195279 -0.1911471855196333 0  1.253860597251458 -0.09408018710074385 0  -2.448541433576584 4.918078214189169 0  -2.448413719825299 -4.910453192714053 0  4.910376364311921 2.447864573195691 0  4.918506874840704 -2.449328942072016 0  2.44613993322851 -4.895677674367873 0  2.440574218447399 4.899441903984993 0  -4.910403615529454 -2.447891250059121 0  -4.910400880939703 2.447895273827696 0  -1.748494712786686 4.910950072995389 0  -1.744282122703137 -4.914393613223864 0  4.920541242282474 1.744042242607493 0  4.909061917796161 -1.747799437323798 0  -4.909356667716773 -1.747533999938973 0  -4.910179803986811 1.747279321300029 0  1.745766044772441 4.904801617166396 0  1.747176456752976 -4.892937512854674 0  -1.148809869071249 4.908719603855755 0  -1.129669325275268 -4.916643479046636 0  -4.909050684060103 -1.147868129819735 0  -4.908868709336166 1.147668701797008 0  1.143806443212138 -4.912823444890749 0  1.14881974736108 4.908705993325501 0  4.909189936478517 1.146143145437709 0  4.920038654274805 -1.151932224419396 0  -0.5466522698758741 -4.909900929970504 0  -0.5464367172655521 4.918597503763542 0  -4.907764244590468 -0.5486752909576851 0  -4.907788203249664 0.5472333569389677 0  4.90708125267839 -0.5489933145009557 0  4.918759942523255 0.5457548540933709 0  0.5424330990764231 -4.896759639563958 0  0.5511647404446303 4.915415563856182 0  -4.911846922806317 -3.048254720747972 0  4.918421098849037 3.046273421848982 0  4.911354313453283 -3.048229935226164 0  -4.91269504109377 3.04534669543656 0  3.055269878994268 -4.917343096512789 0  -3.048598341476623 -4.911275798936231 0  3.052166339051713 4.913354489562645 0  -3.048044266397673 4.912166066520322 0  -4.906865241602105 -0.04990439578818624 0  0.0451188084435637 -4.911850034855916 0  0.04956611526018082 4.918887666786363 0  4.913933113831496 -0.05128687035635703 0  3.545594921650172 -4.918999160274411 0  -3.54887328837026
[...]
<PointData  Vectors="f_5366"> 
<DataArray  type="Float64"  Name="f_5366"  NumberOfComponents="3" format="ascii">2.6559658580600294e-76 2.6559658580600294e-76 0.0000000000000000e+00  -2.8445085011138821e-76 2.8445085011138821e-76 0.0000000000000000e+00  -8.5659604779173644e-78 -8.5659604779173644e-78 0.0000000000000000e+00  3.0308186857311747e-76 -3.0308186857311747e-76 0.0000000000000000e+00  7.8818896243641956e-01 8.7265744599434869e-03 0.0000000000000000e+00  4.1659896527327726e-75 6.6061806389389406e-75 0.0000000000000000e+00  2.0823247394594151e-75 2.0880021730384082e-74 0.0000000000000000e+00  -3.4060470681518777e-75 6.7717312329087261e-75 0.0000000000000000e+00  4.0005349868173970e-72 6.6677790378515839e-72 0.0000000000000000e+00  5.3174978625141762e-71 1.3457734723986329e-70 0.0000000000000000e+00  -7.9212116248878009e-72 4.5553434842573772e-71 0.0000000000000000e+00  3.2349355869954173e-69 6.1618879160566899e-69 0.0000000000000000e+00  5.1625562285177405e-68 9.3980124082969067e-68 0.0000000000000000e+00  -3.0656652039631329e-68 1.5001221452151557e-67 0.0000000000000000e+00  1.2771214797749272e-67 3.9814635000080987e-67 0.0000000000000000e+00  1.2629370995747712e-68 8.7790857665995371e-67 0.0000000000000000e+00  5.4536036155926938e-64 8.8218351637465939e-64 0.0000000000000000e+00  4.7438776417090312e-65 2.4418663724531453e-63 0.0000000000000000e+00  1.3497246430608421e-62 2.1986757150343323e-62 0.0000000000000000e+00  8.0689403058243408e-63 8.3179454165306841e-62 0.0000000000000000e+00  6.9345555902696134e-61 1.1021134607774315e-60 0.0000000000000000e+00  4.0643107473516099e-60 7.0056032167207753e-60 0.0000000000000000e+00  -2.8484600693870429e-60 7.6997989489304073e-60 0.0000000000000000e+00  5.6651364293331458e-59 1.1366461489206777e-58 0.0000000000000000e+00  -1.7597921151068696e-59 1.1646896225980581e-58 0.0000000000000000e+00  -3.0049951660627631e-59 6.8392840749339295e-59 0.0000000000000000e+00  1.8032461023806584e-58 3.3037482574265616e-58 0.0000000000000000e+00  7.3026534065011973e-58 2.0892337993904849e-57 0.0000000000000000e+00  2.8621750776670984e-57 6.2321205808999861e-57 0.0000000000000000e+00  -3.4092236355045236e-57 5.7389999380152624e-57 0.0000000000000000e+00  -3.5244944768598991e-58 1.0978914944239248e-57 0.0000000000000000e+00  1.9097108516901195e-56 2.9314425854948300e-56 0.0000000000000000e+00  -1.4144131884815684e-56 3.5312763245121455e-56 0.0000000000000000e+00  1.1920743461812459e-56 2.8930924797658809e-56 0.0000000000000000e+00  8.7431069996131043e-56 2.0973055883335692e-55 0.0000000000000000e+00  -2.5131186241187430e-56 5.7434645932206134e-55 0.0000000000000000e+00  5.2137599688931090e-57 8.6109458077816093e-57 0.0000000000000000e+00  5.5483253027929268e-56 1.3815232319839140e-55 0.0000000000000000e+00  1.5499570086718893e-55 6.1690262248721407e-55 0.0000000000000000e+00  -2.2378966595930397e-55 3.5169975960364987e-55 0.0000000000000000e+00  9.8433792154909355e-55 1.7226189591516674e-54 0.0000000000000000e+00  -4.4241743686550239e-55 4.3615579007187347e-54 0.0000000000000000e+00  -2.2846206898473376e-55 2.6820537410903877e-54 0.0000000000000000e+00  -9.6261381454706389e-56 9.4398718996310820e-55 0.0000000000000000e+00  -1.1320214869251966e-55 1.8224270463268961e-55 0.0000000000000000e+00  2.7622061907579563e-54 5.2326140865353484e-54 0.0000000000000000e+00  -2.1617293335441481e-54 4.1395367295534393e-54 0.0000000000000000e+00  -7.1983859581839719e-55 8.0823613778939447e-55 0.0000000000000000e+00  -1.3216552239754378e-55 2.7133793440484991e-55 0.0000000000000000e+00  9.3115037790485429e-55 1.4449629748528119e-54 0.0000000000000000e+00  9.4634245312209362e-55 6.1542165044059455e-54 0.0000000000000000e+00  -1.1295837710037275e-54 5.8988483823423018e-54 0.0000000000000000e+00  5.1517135071790064e-55 4.6479338003257519e-54 0.0000000000000000e+00  1.9096730132040819e-56 5.7928543753365118e-54 0.0000000000000000e+00  3.0203524502077287e-55 6.1510100148959387e-54 0.0000000000000000e+00  -1.2628279563127917e-54 2.0441044806412717e-54 0.0000000000000000e+00  -6.4611174139018329e-55 1.4722811319946522e-53 0.0000000000000000e+00  4.4680098916120273e-54 7.4695980219153673e-54 0.0000000000000000e+00  -4.3514326002542741e-54 8.0952014557231013e-54 0.0000000000000000e+00  1.9237525193382326e-54 3.9572262473639544e-54 0.0000000000000000e+00  -7.3682586825471841e-55 9.4983923947366215e-54 0.0000000000000000e+00  1.3325280657798825e-54 9.3290022858688671e-54 0.0000000000000000e+00  -1.6865768935414309e-54 4.3958979685846656e-54 0.0000000000000000e+00  -9.2595457043639979e-55 2.4043839066713234e-54 0.0000000000000000e+00  3.3349813159843073e-55 1.2997256474009585e-54 0.0000000000000000e+00  2.6600419743682162e-55 2.5376865869256820e-54 0.0000000000000000e+00  -7.8347515020857200e-56 3.4897512795599627e-54 0.0000000000000000e+00  -7.1199196445162952e-55 1.4811241706723614e-54 0.0000000000000000e+00  2.3802761429828509e-55 4.4273511683823988e-55 0.0000000000000000e+00  -2.3119188360905992e-55 6.0219942547727354e-55 0.0000000000000000e+00  5.0387553515868453e-56 2.3983248384936807e-55 0.0000000000000000e+00  1.8683533389018054e-55 9.5252977739651611e-55 0.0000000000000000e+00  -3.3066672423995693e-55 5.2994445966446390e-55 0.0000000000000000e+00  -1.5922106052734963e-56 4.8208051929930085e-56 0.0000000000000000e+00  -1.1357624204094290e-57 1.1331961709059013e-56 0.0000000000000000e+00  6.7596156067615092e-57 2.3556691356259503e-56 0.0000000000000000e+00  -8.9996579785716390e-57 1.5012188528485700e-56 0.0000000000000000e+00  1.7431307492368309e-57 2.8886489610635892e-57 0.0000000000000000e+00  -1.2450984355886192e-57 2.7231403766300065e-57 0.0000000000000000e+00  5.1796460513903679e-57 7.8139063700534274e-57 0.0000000000000000e+00  -4.5354855785935704e-57 1.1246358077814370e-56 0.0000000000000000e+00  -1.8146691918974785e-58 9.3932311460656498e-58 0.0000000000000000e+00  -2.3931760395719987e-58 4.6501257436853134e-58 0.0000000000000000e+00  -7.8807569038421818e-61 8.8102611243776626e-59 0.0000000000000000e+00  -2.4466416368034515e-59 6.4205027378508889e-59 0.0000000000000000e+00  -7.1173991366933276e-60 2.4990947397268115e-59 0.0000000000000000e+00  -4.3854695247160673e-60 2.2382935161459504e-59 0.0000000000000000e+00  -3.0631915117972348e-60 7.1655831664591345e-60 0.0000000000000000e+00  -8.5242934093600360e-62 4.4345202159795823e-61 0.0000000000000000e+00  -1.0759217092359756e-61 2.2332811221769658e-61 0.0000000000000000e+00  -3.5873123631099649e-62 5.6720705782961813e-62 0.0000000000000000e+00  -3.9099449256671729e-64 6.6954948170473326e-64 0.0000000000000000e+00  -2.4311762224659448e-65 5.1695294381740640e-65 0.0000000000000000e+00  3.7081841607276808e-66 1.0388611111428213e-65 0.0000000000000000e+00  -4.8421993254230676e-66 9.2597154012049892e-66 0.0000000000000000e+00  -6.6995695270977825e-68 2.7708372812203761e-67 0.0000000000000000e+00  -7.8532804391451189e-68 1.2915241181437410e-67 0.0000000000000000e+00  -8.0608386191847717e-69 1.1729965222816489e-68 0.0000000000000000e+00  -5.6333275796742402e-70 9.5190560581729706e-70 0.0000000000000000e+00  -3.7794591019582913e-71 6.8179702880012645e-71 0.0000000000000000e+00  -1.8784461126195886e-72 3.2024519341767463e-72 0.0000000000000000e+00  -1.2177525851851417e-73 2.7266441469835114e-73 0.0000000000000000e+00  -4.4211653985344983e-75 1.2911290061994894e-74 0.0000000000000000e+00  -2.5481276950006713e-75 4.2411376454639471e-75 0.0000000000000000e+00  -9.7687897001152157e-76 3.5584147836174629e-76 0.0000000000000000e+00  -1.6211471384442671e-75 -2.3926283208693305e-76 0.0000000000000000e+00  -2.4488150582819978e-74 1.1591763658536134e-74 0.0000000000000000e+00  -3.6791166862116455e-74 1.5505524951509868e-75 0.0000000000000000e+00  -3.8828496801063637e-73 1.4336663533136856e-73 0.0000000000000000e+00  -1.0236169827675080e-71 6.2396784682458123e-72 0.0000000000000000e+00  -6.7397486367280974e-71 3.7093690097151361e-71 0.0000000000000000e+00  -1.0610261975935832e-70 3.9044637183927737e-72 0.0000000000000000e+00  -8.8993473284111524e-70 3.3101727227395625e-70 0.0000000000000000e+00  -2.1280705124336067e-68 1.2870800024661173e-68 0.0000000000000000e+00  -1.0234913301938717e-67 5.1130954773183613e-68 0.0000000000000000e+00  -1.0138906003021240e-67 -6.0300573023442502e-68 0.0000000000000000e+00  -3.1647871900125578e-66 1.7472568105986409e-66 0.0000000000000000e+00  -3.1840898510826089e-65 1.8331397797069699e-65 0.0000000000000000e+00  -5.3855758470503229e-65 5.0501694579163828e-66 0.0000000000000000e+00  -4.4356659012451150e-64 1.4476890682819069e-64 0.0000000000000000e+00  -6.9899572255137477e-63 4.3631213660653731e-63 0.0000000000000000e+00  -1.5061649853610745e-62 3.7523204450861861e-63 0.0000000000000000e+00  -8.4319259549820594e-62 1.9683915477767273e-62 0.0000000000000000e+00  -1.3542349737796421e-60 8.5275830843814571e-61 0.0000000000000000e+00  -2.4166177951125657e-60 3.3860047290135477e-61 0.0000000000000000e+00  -2.1163468272761662e-59 7.4063343622903745e-60 0.0000000000000000e+00  -2.4157359945984646e-58 1.4964111697162919e-58 0.0000000000000000e+00  -2.5884403566804639e-58 -9.4304350864640665e-59 0.0000000000000000e+00  -5.9756211098468204e-57 2.7852516451585788e-57 0.0000000000000000e+00  -2.4824179287373504e-56 1.2407908580875662e-56 0.0000000000000000e+00  -5.5641759024916243e-56 -8.6982854497578218e-57 0.0000000000000000e+00  -1.0107293189923007e-54 6.4885161685422514e-55 0.0000000000000000e+00  -1.1208906770950800e-54 -3.4687030447399166e-55 0.0000000000000000e+00  -2.4069323008850120e-53 1.2710064786170077e-53 0.0000000000000000e+00  -6.5908665226428822e-53 2.9930248688320687e-53 0.0000000000000000e+00  -4.3556009740171966e-52 1.2258981443909446e-52 0.0000000000000000e+00  -2.6646678238817958e-51 1.6651407900108791e-51 0.0000000000000000e+00  -7.6659311933431551e-51 -2.1469603260589337e-52 0.0000000000000000e+00  -7.1940080970215669e-50 4.6025667779038508e-50 0.0000000000000000e+00  -1.6172668572672620e-49 -1.4798694770683170e-50 0.0000000000000000e+00  -1.7290423443612330e-48 1.0112483579804165e-48 0.0000000000000000e+00  -4.3411906593080716e-48 -2.0430439339143908e-49 0.0000000000000000e+00  -2.0133383100187914e-47 1.1109911551228822e-47 0.0000000000000000e+00  -1.1026764641680616e-46 1.8976413338024382e-47 0.0000000000000000e+00  -1.0246907772901321e-46 2.4626493275745373e-47 0.0000000000000000e+00  -1.2405888451151049e-45 5.2581961559440229e-46 0.0000000000000000e+00  -8.7381403789887179e-46 -5.6842971714186542e-46 0.0000000000000000e+00  -1.3429782454851399e-44 8.0780988860530288e-45 0.0000000000000000e+00  -5.7957881881945303e-44 1.3749945972370343e-44 0.0000000000000000e+00  -3.6153560754914658e-44 -1.7529294447329301e-44 0.0000000000000000e+00  -1.1425545642249954e-43 6.5062982788793403e-44 0.0000000000000000e+00  -8.4131403771330720e-43 2.3180425381135945e-43 0.0000000000000000e+00  -1.9291313664709680e-42 1.9771353015580832e-43 0.0000000000000000e+00  -2.5117211242445446e-42 6.1097560328270791e-44 0.0000000000000000e+00  -2.0145063453352274e-42 -1.9495904021590660e-43 0.0000000000000000e+00  -8.6138239654296968e-43 -2.5078183500522889e-43 0.0000000000000000e+00  -1.1325187228265975e-43 -6.4524544121587265e-44 0.0000000000000000e+00  -3.8713267165892193e-44 1.8519142241529465e-44 0.0000000000000000e+00  -6.3166521780183962e-44 -1.0831189827307513e-44 0.0000000000000000e+00  -1.4989448535634221e-44 -7.8738574604143005e-45 0.0000000000000000e+00  -9.9884175327847935e-46 5.6768936926711927e-46 0.0000000000000000e+00  -1.4039590232230542e-45 -5.3904283885457232e-46 0.0000000000000000e+00  -1.1208366865422581e-46 -2.8575276434927100e-47 0.0000000000000000e+00  -1.0181378612981487e-46 -2.1435467237385139e-47 0.0000000000000000e+00  -1.8609931395583927e-47 -1.1980300674099714e-47 0.0000000000000000e+00  -4.0856104842180764e-48 2.0343894131711553e-49 0.0000000000000000e+00  -1.4868091831545508e-48 -9.3636226000921357e-49 0.0000000000000000e+00  -1.6331782571589497e-49 2.4564943097179694e-50 0.0000000000000000e+00  -7.4579168942636730e-50 -4.4217342924663519e-50 0.0000000000000000e+00  -8.2462122274887558e-51 6.4096814913980530e-52 0.0000000000000000e+00  -3.1455310322521115e-51 -1.7837660973171487e-51 0.0000000000000000e+00  -5.1029244011991493e-52 -1.1466029369188483e-52 0.0000000000000000e+00  -8.2061072252122766e-53 -3.5470721055845930e-53 0.0000000000000000e+00  -2.6619192508883667e-53 -1.3156369450949814e-53 0.0000000000000000e+00  -1.1971864062077366e-54 3.2393075394140457e-55 0.0000000000000000e+00  -1.0637116026206775e-54 -6.8046256673057670e-55 0.0000000000000000e+00  -5.1523908105507666e-56 8.3503362193122274e-57 0.0000000000000000e+00  -2.3365881575556470e-56 -1.3237216540325644e-56 0.0000000000000000e+00  -4.8238690054908046e-57 -2.5210456065243104e-57 0.0000000000000000e+00  -2.4586960708082359e-58 8.5452951225271456e-59 0.0000000000000000e+00  -2.1582878803304453e-58 -1.3283870517391934e-58 0.0000000000000000e+00  -1.9910636336778545e-59 -6.1453317272627442e-60 0.0000000000000000e+00  -2.3749174707027758e-60 -3.3955100991424993e-61 0.0000000000000000e+00  -1.2908502543576712e-60 -7.6075731931038528e-61 0.0000000000000000e+00  -7.6907687182432535e-62 -2.1435016189597914e-62 0.0000000000000000e+00  -1.3593775692613373e-62 -2.9300791544450287e-63 0.0000000000000000e+00  -6.6391579866252189e-63 -3.7879992491005225e-63 0.0000000000000000e+00  -4.7830547357161101e-64 -1.8194519397375193e-64 0.0000000000000000e+00  -4.3638609771982426e-65 9.5799115114377969e-67 0.0000000000000000e+00  -2.9481250862777231e-65 -1.6619834425851486e-65 0.0000000000000000e+00  -3.4131949664577960e-66 -1.9886124406064670e-66 0.0000000000000000e+00  -8.9955463286981739e-68 5.4804931664324157e-68 0.0000000000000000e+00  -8.6365093211939349e-68 -4.1774003037512330e-68 0.0000000000000000e+00  -2.0681691959920160e-68 -1.2849451626162724e-68 0.0000000000000000e+00  -1.1326357718773188e-69 -5.1334827072981912e-70 0.0000000000000000e+00  -8.7944336855921531e-71 1.3789118157572882e-71 0.0000000000000000e+00  -6.9081435438511187e-71 -3.6571465013811794e-71 0.0000000000000000e+00  -1.2478994498121507e-71 -7.6622244238445814e-72 0.0000000000000000e+00  -5.9819237659122581e-73 -2.7510738409844644e-73 0.0000000000000000e+00  -3.9237584357740583e-74 7.4235134123915768e-75 0.0000000000000000e+00  -3.1565360895308206e-74 -1.4790206514361299e-74 0.0000000000000000e+00  -6.5906155590848116e-75 -3.3570944906629993e-75 0.0000000000000000e+00  -7.1798947598679745e-76 -3.1071578570499116e-76 0.0000000000000000e+00  -8.5519612027418560e-76 -1.6228437390750822e-75 0.0000000000000000e+00  -4.7735723748980163e-75 -1.3945901437943995e-74 0.0000000000000000e+00  4.3671302363081248e-75 -8.3088930088315185e-75 0.0000000000000000e+00  -1.6294598341917058e-73 -3.4271879986167332e-73 0.0000000000000000e+00  -9.2858525071468635e-71 -1.0069231325800852e-70 0.0000000000000000e+00  -7.5069927760198409e-70 -1.3176819781955418e-69 0.0000000000000000e+00  -1.0985373814256131e-69 -3.6511759194731711e-69 0.0000000000000000e+00  -7.7618198662224313e-68 -1.7113587714410670e-67 0.0000000000000000e+00  -6.5318277893143811e-68 -3.2598946078821599e-67 0.0000000000000000e+00  -6.7906919650277349e-66 -1.3500019911233020e-65 0.0000000000000000e+00  -4.5205428639118584e-66 -2.1315807583010256e-65 0.0000000000000000e+00  -9.0711464276525379e-65 -1.5574443196053639e-64 0.0000000000000000e+00  1.7223306560373906e-65 -2.1035898635373486e-64 0.0000000000000000e+00  -4.2766411665200227e-62 -6.4017697024928393e-62 0.0000000000000000e+00  -7.0004445458960243e-62 -1.7205770825955627e-61 0.0000000000000000e+00  -2.3266905632158916e-62 -2.7285870217142992e-61 0.0000000000000000e+00  -5.7420959075463162e-60 -1.1361333070543018e-59 0.0000000000000000e+00  4.7698783498918492e-60 -1.5021607080421389e-59 0.0000000000000000e+00  -2.9021534472346813e-59 -4.7481527205953489e-59 0.0000000000000000e+00  8.8256651781591713e-60 -6.0863770755302251e-59 0.0000000000000000e+00  2.3267859170638884e-59 -3.9726467815267592e-59 0.0000000000000000e+00  -5.6412665978854312e-58 -8.9457054692408372e-58 0.0000000000000000e+00  -1.3811680457231741e-59 -1.2602338768780342e-57 0.0000000000000000e+00  -4.6369702112480614e-57 -1.1636098518657347e-56 0.0000000000000000e+00  5.7540814077177600e-57 -8.6763486355829495e-57 0.0000000000000000e+00  -5.3383425604834612e-57 -7.3361334019331561e-57 0.0000000000000000e+00  -1.7687392185191064e-56 -3.7727468910237529e-56 0.0000000000000000e+00  2.1639990149778941e-56 -4.0720062170183285e-56 0.0000000000000000e+00  -5.0077421809941870e-57 -9.1987912086495411e-57 0.0000000000000000e+00  -8.1270364859541245e-56 -2.0307140706665208e-55 0.0000000000000000e+00  6.3823641902793690e-56 -5.0771849795323746e-55 0.0000000000000000e+00  -4.2950897580764362e-55 -7.2563382766628311e-55 0.0000000000000000e+00  -4.8839395209638851e-56 -1.8357189735500226e-54 0.0000000000000000e+00  1.6626357327036879e-55 -5.7403295735932590e-55 0.0000000000000000e+00  -5.1896358355432687e-55 -1.6757861270064717e-54 0.0000000000000000e+00  -2.2570452568800235e-54 -7.0710452223601936e-54 0.0000000000000000e+00  2.5864901226371646e-54 -6.0773789995483459e-54 0.0000000000000000e+00  -6.7310938791362821e-55 -2.3895270751630991e-54 0.0000000000000000e+00  5.3345639802970900e-55 -2.8191921603118911e-54 0.0000000000000000e+00  1.2847513177000256e-55 -1.4248091804556138e-54 0.0000000000000000e+00  -2.1841869822650099e-54 -3.4662505777338569e-54 0.0000000000000000e+00  5.7238657387719243e-55 -8.2270353548625712e-54 0.0000000000000000e+00  -3.9377889173060407e-54 -1.3557095366737758e-53 0.0000000000000000e+00  4.7013472388083057e-54 -7.7151608951830582e-54 0.0000000000000000e+00  2.0356840089917555e-55 -6.5061938120359551e-55 0.0000000000000000e+00  -4.8107108008130501e-54 -8.0084747175529916e-54 0.0000000000000000e+00  4.8367056905426521e-54 -7.8698980612738652e-54 0.0000000000000000e+00  -1.6652934492669575e-56 -1.3349821972035065e-55 0.0000000000000000e+00  1.1176686269959584e-56 -2.7680162879641178e-55 0.0000000000000000e+00  2.2114500174360094e-56 -9.8796572629495258e-56 0.0000000000000000e+00  -5.2153361560595296e-54 -9.3537885734070728e-54 0.0000000000000000e+00  5.5625731311969348e-54 -9.4075380258598355e-54 0.0000000000000000e+00  5.6870111879202129e-56 -1.0518315378202694e-55 0.0000000000000000e+00  -1.4360263940716945e-56 -6.2048212848232304e-56 0.0000000000000000e+00  -5.0099186476968817e-55 -9.0469879161276712e-55 0.0000000000000000e+00  -5.8270396542513261e-54 -1.0046565643717385e-53 0.0000000000000000e+00  4.5131558141548244e-54 -1.0491127492886589e-53 0.0000000000000000e+00  -3.0588563074758371e-54 -7.9858540323121207e-54 0.0000000000000000e+00  2.4439224118634335e-54 -8.5494289232124305e-54 0.0000000000000000e+00  2.2509926229304804e-54 -3.3057660834565683e-54 0.0000000000000000e+00  -5.4479336407993667e-55 -1.4799613768963726e-54 0.0000000000000000e+00  8.3730689757747459e-55 -1.5736506561123324e-54 0.0000000000000000e+00  -4.9331274289030548e-55 -9.8335488908247820e-55 0.0000000000000000e+00  5.1344861144982966e-55 -8.8536959291899872e-55 0.0000000000000000e+00  -1.5694812928824031e-56 -2.6924655209445056e-56 0.0000000000000000e+00  -4.4850058688254218e-56 -1.7219411986787613e-55 0.0000000000000000e+00  4.1791703365356662e-56 -1.7466601219613615e-55 0.0000000000000000e+00  4.8086998542949133e-57 -6.9028688614441544e-56 0.0000000000000000e+00  -2.7528653174617033e-56 -6.5435617576606672e-56 0.0000000000000000e+00  3.2927029933730054e-56 -6.4126241920754487e-56 0.0000000000000000e+00  -2.8626247054974724e-57 -2.8734468872248445e-56 0.0000000000000000e+00  1.2976261413188750e-56 -3.0015962169129670e-56 0.0000000000000000e+00  1.0035971729345606e-57 -2.3987239381333386e-57 0.0000000000000000e+00  -4.3876948253556427e-57 -7.6406503396293758e-57 0.0000000000000000e+00  4.2541810274795115e-57 -1.1005423127649178e-56 0.0000000000000000e+00  3.1276794697354739e-58 -1.0211880411572115e-57 0.0000000000000000e+00  1.4392995142391371e-58 -5.025646