<?xml version="1.0"?>
<VTKFile type="UnstructuredGrid"  version="0.1"  >
<UnstructuredGrid>
<Piece  NumberOfPoints="11902" NumberOfCells="23402">
<Points>
<DataArray  type="Float64"  NumberOfComponents="3"  format="ascii">-5 -5 0  5 -5 0  5 5 0  -5 5 0  1.247555428817006 0.001370534145506971 0  -4.9 -5 0  -4.8 -5 0  -4.7 -5 0  -4.6 -5 0  -4.5 -5 0  -4.4 -5 0  -4.3 -5 0  -4.2 -5 0  -4.1 -5 0  -4 -5 0  -3.9 -5 0  -3.8 -5 0  -3.7 -5 0  -3.6 -5 0  -3.5 -5 0  -3.4 -5 0  -3.3 -5 0  -3.2 -5 0  -3.1 -5 0  -3 -5 0  -2.9 -5 0  -2.8 -5 0  -2.7 -5 0  -2.6 -5 0  -2.5 -5 0  -2.4 -5 0  -2.3 -5 0  -2.2 -5 0  -2.1 -5 0  -2 -5 0  -1.9 -5 0  -1.8 -5 0  -1.7 -5 0  -1.6 -5 0  -1.5 -5 0  -1.4 -5 0  -1.3 -5 0  -1.2 -5 0  -1.1 -5 0  -1 -5 0  -0.9000000000000004 -5 0  -0.7999999999999998 -5 0  -0.7000000000000002 -5 0  -0.5999999999999996 -5 0  -0.5 -5 0  -0.4000000000000004 -5 0  -0.2999999999999998 -5 0  -0.2000000000000002 -5 0  -0.09999999999999964 -5 0  0 -5 0  0.09999999999999964 -5 0  0.2000000000000002 -5 0  0.2999999999999998 -5 0  0.4000000000000004 -5 0  0.5 -5 0  0.5999999999999996 -5 0  0.7000000000000002 -5 0  0.7999999999999998 -5 0  0.9000000000000004 -5 0  1 -5 0  1.1 -5 0  1.2 -5 0  1.3 -5 0  1.4 -5 0  1.5 -5 0  1.6 -5 0  1.7 -5 0  1.8 -5 0  1.9 -5 0  2 -5 0  2.1 -5 0  2.2 -5 0  2.3 -5 0  2.4 -5 0  2.5 -5 0  2.6 -5 0  2.7 -5 0  2.8 -5 0  2.9 -5 0  3 -5 0  3.1 -5 0  3.199999999999999 -5 0  3.300000000000001 -5 0  3.4 -5 0  3.5 -5 0  3.6 -5 0  3.699999999999999 -5 0  3.800000000000001 -5 0  3.9 -5 0  4 -5 0  4.1 -5 0  4.199999999999999 -5 0  4.300000000000001 -5 0  4.4 -5 0  4.5 -5 0  4.6 -5 0  4.699999999999999 -5 0  4.800000000000001 -5 0  4.9 -5 0  5 -4.9 0  5 -4.8 0  5 -4.7 0  5 -4.6 0  5 -4.5 0  5 -4.4 0  5 -4.3 0  5 -4.2 0  5 -4.1 0  5 -4 0  5 -3.9 0  5 -3.8 0  5 -3.7 0  5 -3.6 0  5 -3.5 0  5 -3.4 0  5 -3.3 0  5 -3.2 0  5 -3.1 0  5 -3 0  5 -2.9 0  5 -2.8 0  5 -2.7 0  5 -2.6 0  5 -2.5 0  5 -2.4 0  5 -2.3 0  5 -2.2 0  5 -2.1 0  5 -2 0  5 -1.9 0  5 -1.8 0  5 -1.7 0  5 -1.6 0  5 -1.5 0  5 -1.4 0  5 -1.3 0  5 -1.2 0  5 -1.1 0  5 -1 0  5 -0.9000000000000004 0  5 -0.7999999999999998 0  5 -0.7000000000000002 0  5 -0.5999999999999996 0  5 -0.5 0  5 -0.4000000000000004 0  5 -0.2999999999999998 0  5 -0.2000000000000002 0  5 -0.09999999999999964 0  5 0 0  5 0.09999999999999964 0  5 0.2000000000000002 0  5 0.2999999999999998 0  5 0.4000000000000004 0  5 0.5 0  5 0.5999999999999996 0  5 0.7000000000000002 0  5 0.7999999999999998 0  5 0.9000000000000004 0  5 1 0  5 1.1 0  5 1.2 0  5 1.3 0  5 1.4 0  5 1.5 0  5 1.6 0  5 1.7 0  5 1.8 0  5 1.9 0  5 2 0  5 2.1 0  5 2.2 0  5 2.3 0  5 2.4 0  5 2.5 0  5 2.6 0  5 2.7 0  5 2.8 0  5 2.9 0  5 3 0  5 3.1 0  5 3.199999999999999 0  5 3.300000000000001 0  5 3.4 0  5 3.5 0  5 3.6 0  5 3.699999999999999 0  5 3.800000000000001 0  5 3.9 0  5 4 0  5 4.1 0  5 4.199999999999999 0  5 4.300000000000001 0  5 4.4 0  5 4.5 0  5 4.6 0  5 4.699999999999999 0  5 4.800000000000001 0  5 4.9 0  4.9 5 0  4.8 5 0  4.7 5 0  4.6 5 0  4.5 5 0  4.4 5 0  4.3 5 0  4.2 5 0  4.1 5 0  4 5 0  3.9 5 0  3.8 5 0  3.7 5 0  3.6 5 0  3.5 5 0  3.4 5 0  3.3 5 0  3.2 5 0  3.1 5 0  3 5 0  2.9 5 0  2.8 5 0  2.7 5 0  2.6 5 0  2.5 5 0  2.4 5 0  2.3 5 0  2.2 5 0  2.1 5 0  2 5 0  1.9 5 0  1.8 5 0  1.7 5 0  1.6 5 0  1.5 5 0  1.4 5 0  1.3 5 0  1.2 5 0  1.1 5 0  1 5 0  0.9000000000000004 5 0  0.7999999999999998 5 0  0.7000000000000002 5 0  0.5999999999999996 5 0  0.5 5 0  0.4000000000000004 5 0  0.2999999999999998 5 0  0.2000000000000002 5 0  0.09999999999999964 5 0  0 5 0  -0.09999999999999964 5 0  -0.2000000000000002 5 0  -0.2999999999999998 5 0  -0.4000000000000004 5 0  -0.5 5 0  -0.5999999999999996 5 0  -0.7000000000000002 5 0  -0.7999999999999998 5 0  -0.9000000000000004 5 0  -1 5 0  -1.1 5 0  -1.2 5 0  -1.3 5 0  -1.4 5 0  -1.5 5 0  -1.6 5 0  -1.7 5 0  -1.8 5 0  -1.9 5 0  -2 5 0  -2.1 5 0  -2.2 5 0  -2.3 5 0  -2.4 5 0  -2.5 5 0  -2.6 5 0  -2.7 5 0  -2.8 5 0  -2.9 5 0  -3 5 0  -3.1 5 0  -3.199999999999999 5 0  -3.300000000000001 5 0  -3.4 5 0  -3.5 5 0  -3.6 5 0  -3.699999999999999 5 0  -3.800000000000001 5 0  -3.9 5 0  -4 5 0  -4.1 5 0  -4.199999999999999 5 0  -4.300000000000001 5 0  -4.4 5 0  -4.5 5 0  -4.6 5 0  -4.699999999999999 5 0  -4.800000000000001 5 0  -4.9 5 0  -5 4.9 0  -5 4.8 0  -5 4.7 0  -5 4.6 0  -5 4.5 0  -5 4.4 0  -5 4.3 0  -5 4.2 0  -5 4.1 0  -5 4 0  -5 3.9 0  -5 3.8 0  -5 3.7 0  -5 3.6 0  -5 3.5 0  -5 3.4 0  -5 3.3 0  -5 3.2 0  -5 3.1 0  -5 3 0  -5 2.9 0  -5 2.8 0  -5 2.7 0  -5 2.6 0  -5 2.5 0  -5 2.4 0  -5 2.3 0  -5 2.2 0  -5 2.1 0  -5 2 0  -5 1.9 0  -5 1.8 0  -5 1.7 0  -5 1.6 0  -5 1.5 0  -5 1.4 0  -5 1.3 0  -5 1.2 0  -5 1.1 0  -5 1 0  -5 0.9000000000000004 0  -5 0.7999999999999998 0  -5 0.7000000000000002 0  -5 0.5999999999999996 0  -5 0.5 0  -5 0.4000000000000004 0  -5 0.2999999999999998 0  -5 0.2000000000000002 0  -5 0.09999999999999964 0  -5 0 0  -5 -0.09999999999999964 0  -5 -0.2000000000000002 0  -5 -0.2999999999999998 0  -5 -0.4000000000000004 0  -5 -0.5 0  -5 -0.5999999999999996 0  -5 -0.7000000000000002 0  -5 -0.7999999999999998 0  -5 -0.9000000000000004 0  -5 -1 0  -5 -1.1 0  -5 -1.2 0  -5 -1.3 0  -5 -1.4 0  -5 -1.5 0  -5 -1.6 0  -5 -1.7 0  -5 -1.8 0  -5 -1.9 0  -5 -2 0  -5 -2.1 0  -5 -2.2 0  -5 -2.3 0  -5 -2.4 0  -5 -2.5 0  -5 -2.6 0  -5 -2.7 0  -5 -2.8 0  -5 -2.9 0  -5 -3 0  -5 -3.1 0  -5 -3.199999999999999 0  -5 -3.300000000000001 0  -5 -3.4 0  -5 -3.5 0  -5 -3.6 0  -5 -3.699999999999999 0  -5 -3.800000000000001 0  -5 -3.9 0  -5 -4 0  -5 -4.1 0  -5 -4.199999999999999 0  -5 -4.300000000000001 0  -5 -4.4 0  -5 -4.5 0  -5 -4.6 0  -5 -4.699999999999999 0  -5 -4.800000000000001 0  -5 -4.9 0  1.240136662019355 0.09622199449906121 0  1.219314577142907 0.1934979215120294 0  1.186149180138183 0.2900788713390152 0  1.143550183861822 0.3795547987146407 0  1.086847033322614 0.4701369968731747 0  1.021862744041512 0.5548197956241672 0  0.944668633050634 0.6345798498339877 0  0.8588434179380957 0.7085650664288285 0  0.767284513071818 0.7739322545828669 0  0.6654338072774008 0.8314995035447957 0  0.5553990029548023 0.8837337151645255 0  0.4436558031584844 0.927197187300575 0  0.3307886343099168 0.959867139423314 0  0.2081152021949647 0.9814775818850757 0  0.08939082333041237 0.9996286769400602 0  -0.02749308971350843 1.002727992619123 0  -0.1452186497763823 0.9897755526606797 0  -0.2700926828168987 0.9713281281162031 0  -0.388449609123188 0.9465976878076334 0  -0.4993043882422894 0.9102922905104185 0  -0.6077098127308966 0.8639492158252793 0  -0.7097604233505417 0.8095151111789275 0  -0.8041308256544307 0.745031039183072 0  -0.8940885173994251 0.6724046190474042 0  -0.9781092877982664 0.5932375832850052 0  -1.050950044226365 0.5120071011334726 0  -1.112361968696947 0.4260429731965303 0  -1.163793931676365 0.3343805298874309 0  -1.201543163385421 0.2432544141467356 0  -1.22604388995015 0.1486534426645443 0  -1.23785669064398 0.05095884007352666 0  -1.237808443392439 -0.04884654408038724 0  -1.225954257821006 -0.1459066408137449 0  -1.201347109698047 -0.2397116941356589 0  -1.161463905392173 -0.3346418364629882 0  -1.112597206998355 -0.4258351735395545 0  -1.052370006501381 -0.5116616342652168 0  -0.9803354478931466 -0.5921718799029465 0  -0.8969303650272028 -0.6700990472815356 0  -0.8072759143262634 -0.7411900542822573 0  -0.7113679736799132 -0.802154631899561 0  -0.607343138342395 -0.8555070279045225 0  -0.4952514342188337 -0.9045396654426213 0  -0.3826462807178355 -0.9437439474661335 0  -0.2667877394789652 -0.9707682096363037 0  -0.1438753674025542 -0.9893426378136192 0  -0.02797044376230565 -1.001880891877627 0  0.08940385955180244 -0.9951763038885483 0  0.2127794566764968 -0.9784812041110794 0  0.3331384950477442 -0.9582929657430307 0  0.4477348452363654 -0.9258592148311755 0  0.5576470202659444 -0.882847191185545 0  0.6663158245548986 -0.8315102289575622 0  0.7673061403799041 -0.7750964392665378 0  0.8589375209527308 -0.7095169533950405 0  0.9440261186266452 -0.6344909512269149 0  1.019438487291701 -0.5540508097868336 0  1.087082790426697 -0.4691811923457542 0  1.144464880101859 -0.379705397234409 0  1.187848847402426 -0.2881044362105052 0  1.219882899177496 -0.1926109537120329 0  1.240360509056531 -0.09587210389197939 0  -2.448596897810562 4.918178691808881 0  -2.448474290870637 -4.910562934156148 0  4.910488819693087 2.447942390109592 0  4.918608919066502 -2.449399578988711 0  2.446210292153274 -4.895806379066228 0  2.44064236801397 4.899566462084307 0  -4.910515364981696 -2.447968291506129 0  -4.910512751905297 2.447972174343131 0  -1.748552389690496 4.911095678148656 0  -1.744337511187457 -4.914533584745539 0  4.920683216074851 1.744112698257649 0  4.909224026018155 -1.747880003613453 0  -4.909517295233612 -1.747613616680813 0  -4.910339111891417 1.747357965946234 0  1.745827568317528 4.904958113805859 0  1.747245244377976 -4.893113177632123 0  -1.148855948172713 4.908896781616392 0  -1.129710979519385 -4.916805672262917 0  -4.90925171384055 -1.14793366648351 0  -4.909070253487826 1.147734026782892 0  1.143849710760141 -4.91299304113773 0  1.148865653977725 4.908883712038874 0  4.909392251965546 1.146209187052087 0  4.920216391875767 -1.151990421979588 0  -0.5466764899342669 -4.910094202033584 0  -0.5464583580789463 4.918772457897872 0  -4.907997775961287 -0.5487117550380691 0  -4.908021777783666 0.547269320817108 0  4.907318284323364 -0.5490302282773095 0  4.918967291668271 0.5457870881205222 0  0.5424596106893548 -4.896981563359324 0  0.5511871989259375 4.915597520326584 0  -4.911922356998384 -3.048318395587642 0  4.918491373831992 3.046332939044635 0  4.911430449207566 -3.048294482148233 0  -4.912769993039807 3.045409756571796 0  3.055319132364991 -4.917416329813319 0  -3.048651384547609 -4.911354239350746 0  3.052218204516814 4.913431503418368 0  -3.048096857346517 4.912243781103133 0  -4.907110919661945 -0.04990807775858461 0  0.04512030276663144 -4.912044940222065 0  0.04956801088757392 4.919067351495335 0  4.914161877772993 -0.05129012413871183 0  3.54563379774215 -4.919050243252458 0  -3.54891554756926
[...]
<PointData  Vectors="f_3910"> 
<DataArray  type="Float64"  Name="f_3910"  NumberOfComponents="3" format="ascii">2.6559658580600221e-76 2.6559658580600221e-76 0.0000000000000000e+00  -2.8445085011138785e-76 2.8445085011138785e-76 0.0000000000000000e+00  -8.5659604779163040e-78 -8.5659604779163040e-78 0.0000000000000000e+00  3.0308186857311545e-76 -3.0308186857311545e-76 0.0000000000000000e+00  -2.2890067130147837e-01 -4.4003468490212555e-03 0.0000000000000000e+00  4.1658383017457847e-75 6.6063160797396193e-75 0.0000000000000000e+00  2.0824736645936009e-75 2.0879890690581987e-74 0.0000000000000000e+00  -3.4056066168869523e-75 6.7713398972564611e-75 0.0000000000000000e+00  3.9999783673482045e-72 6.6682731716064795e-72 0.0000000000000000e+00  5.3167015846270362e-71 1.3458445467289605e-70 0.0000000000000000e+00  -7.9192186413490078e-72 4.5551701316942000e-71 0.0000000000000000e+00  3.2340695242450001e-69 6.1626386485096140e-69 0.0000000000000000e+00  5.1609253746208977e-68 9.3994086509160690e-68 0.0000000000000000e+00  -3.0643064489534404e-68 1.5000098060956604e-67 0.0000000000000000e+00  1.2766473202426758e-67 3.9818636505941637e-67 0.0000000000000000e+00  1.2643176139194398e-68 8.7789990433048698e-67 0.0000000000000000e+00  5.4509658453471049e-64 8.8239757729171443e-64 0.0000000000000000e+00  4.7463213931702553e-65 2.4418560032461498e-63 0.0000000000000000e+00  1.3489355552600117e-62 2.1992908859272446e-62 0.0000000000000000e+00  8.0655107253067991e-63 8.3182449878184074e-62 0.0000000000000000e+00  6.9298250130332463e-61 1.1024668455298895e-60 0.0000000000000000e+00  4.0613008221724828e-60 7.0077908970906982e-60 0.0000000000000000e+00  -2.8461635952736958e-60 7.6981829903108370e-60 0.0000000000000000e+00  5.6605017180628714e-59 1.1369706382946496e-58 0.0000000000000000e+00  -1.7581720512832201e-59 1.1645822490692400e-58 0.0000000000000000e+00  -3.0020592126142996e-59 6.8373978301392086e-59 0.0000000000000000e+00  1.8014275638945597e-58 3.3048958236468194e-58 0.0000000000000000e+00  7.2952567200437185e-58 2.0897006965597226e-57 0.0000000000000000e+00  2.8589555837974683e-57 6.2340158022304662e-57 0.0000000000000000e+00  -3.4051202639930163e-57 5.7367031871252633e-57 0.0000000000000000e+00  -3.5200515506917777e-58 1.0976521046040367e-57 0.0000000000000000e+00  1.9072432102170809e-56 2.9327434406267951e-56 0.0000000000000000e+00  -1.4124140847294544e-56 3.5303129302869010e-56 0.0000000000000000e+00  1.1904157436991524e-56 2.8939055900436311e-56 0.0000000000000000e+00  8.7305841381637023e-56 2.0979010818984234e-55 0.0000000000000000e+00  -2.5072590479119780e-56 5.7433341685504213e-55 0.0000000000000000e+00  5.2054618113250452e-57 8.6143727570672417e-57 0.0000000000000000e+00  5.5393953584642601e-56 1.3818863631012484e-55 0.0000000000000000e+00  1.5474401553729746e-55 6.1700405581201136e-55 0.0000000000000000e+00  -2.2338981815989646e-55 3.5156698088980035e-55 0.0000000000000000e+00  9.8257648671769422e-55 1.7232021735751096e-54 0.0000000000000000e+00  -4.4147641054741173e-55 4.3613815730117291e-54 0.0000000000000000e+00  -2.2797049343698494e-55 2.6819731165397809e-54 0.0000000000000000e+00  -9.6060083889912437e-56 9.4395042884384076e-55 0.0000000000000000e+00  -1.1297419488567400e-55 1.8219266462532207e-55 0.0000000000000000e+00  2.7566405184270329e-54 5.2338323200800857e-54 0.0000000000000000e+00  -2.1572476675283378e-54 4.1387211154183047e-54 0.0000000000000000e+00  -7.1832397428826676e-55 8.0799245962878964e-55 0.0000000000000000e+00  -1.3188127837628346e-55 2.7130369199959571e-55 0.0000000000000000e+00  9.2915122656787562e-55 1.4452095847674495e-54 0.0000000000000000e+00  9.4433215261311578e-55 6.1545353336786196e-54 0.0000000000000000e+00  -1.1270742002589640e-54 5.8988036260657087e-54 0.0000000000000000e+00  5.1405631618707647e-55 4.6480912437376938e-54 0.0000000000000000e+00  1.9066949629782926e-56 5.7929860930912750e-54 0.0000000000000000e+00  3.0136838941012294e-55 6.1511460103582298e-54 0.0000000000000000e+00  -1.2600393645993622e-54 2.0441735541265794e-54 0.0000000000000000e+00  -6.4476932677047361e-55 1.4723392128387218e-53 0.0000000000000000e+00  4.4582098771015165e-54 7.4689845245027339e-54 0.0000000000000000e+00  -4.3419758133983423e-54 8.0960743551001283e-54 0.0000000000000000e+00  1.9195948375871210e-54 3.9567837738457214e-54 0.0000000000000000e+00  -7.3537421821682691e-55 9.4988158883302195e-54 0.0000000000000000e+00  1.3295953680310212e-54 9.3287504580938274e-54 0.0000000000000000e+00  -1.6830795432195532e-54 4.3965265599526027e-54 0.0000000000000000e+00  -9.2409857925449918e-55 2.4048002646261011e-54 0.0000000000000000e+00  3.3280723529658825e-55 1.2995975435995644e-54 0.0000000000000000e+00  2.6543520277147672e-55 2.5375960233680875e-54 0.0000000000000000e+00  -7.8270363677724804e-56 3.4898433535440707e-54 0.0000000000000000e+00  -7.1067787202375342e-55 1.4815232276761707e-54 0.0000000000000000e+00  2.3758841905800963e-55 4.4260172310091691e-55 0.0000000000000000e+00  -2.3079276183291579e-55 6.0234180801607938e-55 0.0000000000000000e+00  5.0295775252173018e-56 2.3980330131193041e-55 0.0000000000000000e+00  1.8650048776044384e-55 9.5241849675804362e-55 0.0000000000000000e+00  -3.3013936121116226e-55 5.3016044516199949e-55 0.0000000000000000e+00  -1.5898412399415390e-56 4.8218768291993047e-56 0.0000000000000000e+00  -1.1343449336876611e-57 1.1332758909590062e-56 0.0000000000000000e+00  6.7493142375113637e-57 2.3552164985342421e-56 0.0000000000000000e+00  -8.9875140367784995e-57 1.5018305543787694e-56 0.0000000000000000e+00  1.7407801459187418e-57 2.8874642650290280e-57 0.0000000000000000e+00  -1.2435373118043974e-57 2.7239817535033809e-57 0.0000000000000000e+00  5.1733319448296310e-57 7.8104220816118105e-57 0.0000000000000000e+00  -4.5305558508719617e-57 1.1249320811011023e-56 0.0000000000000000e+00  -1.8127011358134252e-58 9.3944134062475431e-58 0.0000000000000000e+00  -2.3907431189080405e-58 4.6516471871018010e-58 0.0000000000000000e+00  -7.8731235869804690e-61 8.8103101753768635e-59 0.0000000000000000e+00  -2.4444140244551485e-59 6.4219808675132872e-59 0.0000000000000000e+00  -7.1113147212788319e-60 2.4995105035666432e-59 0.0000000000000000e+00  -4.3824348349817338e-60 2.2385204179485799e-59 0.0000000000000000e+00  -3.0610159262384706e-60 7.1671821727782228e-60 0.0000000000000000e+00  -8.5183088213904990e-62 4.4349610570632983e-61 0.0000000000000000e+00  -1.0752273255868891e-61 2.2338059674133492e-61 0.0000000000000000e+00  -3.5852518946597825e-62 5.6736774426752984e-62 0.0000000000000000e+00  -3.9078261493147324e-64 6.6971674840321948e-64 0.0000000000000000e+00  -2.4300146420620447e-65 5.1704697399607559e-65 0.0000000000000000e+00  3.7063027206121696e-66 1.0387103242557022e-65 0.0000000000000000e+00  -4.8403323190190260e-66 9.2612754277527589e-66 0.0000000000000000e+00  -6.6970902087783034e-68 2.7710452089129659e-67 0.0000000000000000e+00  -7.8507771174249320e-68 1.2917371959224055e-67 0.0000000000000000e+00  -8.0586333966515423e-69 1.1731864178731354e-68 0.0000000000000000e+00  -5.6320189982022240e-70 9.5201929859682597e-70 0.0000000000000000e+00  -3.7787448436572653e-71 6.8185959327222975e-71 0.0000000000000000e+00  -1.8781671675796997e-72 3.2026977995201399e-72 0.0000000000000000e+00  -1.2176455481051275e-73 2.7267392614441812e-73 0.0000000000000000e+00  -4.4208244442947873e-75 1.2911592776688262e-74 0.0000000000000000e+00  -2.5480328824829751e-75 4.2412220135428797e-75 0.0000000000000000e+00  -9.7689502049560351e-76 3.5582717637037256e-76 0.0000000000000000e+00  -1.6211068153754202e-75 -2.3922669041165817e-76 0.0000000000000000e+00  -2.4489368193623584e-74 1.1590674169045734e-74 0.0000000000000000e+00  -3.6791410667441059e-74 1.5503328763345509e-75 0.0000000000000000e+00  -3.8830805272377335e-73 1.4334588089504926e-73 0.0000000000000000e+00  -1.0237576671171025e-71 6.2383960028501084e-72 0.0000000000000000e+00  -6.7407516829708636e-71 3.7084447667697732e-71 0.0000000000000000e+00  -1.0610386153103328e-70 3.9033039807191437e-72 0.0000000000000000e+00  -8.9003968069740042e-70 3.3091955227499891e-70 0.0000000000000000e+00  -2.1285628647654511e-68 1.2866101672529140e-68 0.0000000000000000e+00  -1.0237095686277474e-67 5.1109755801670545e-68 0.0000000000000000e+00  -1.0135999496418452e-67 -6.0271628976243652e-68 0.0000000000000000e+00  -3.1656394383927115e-66 1.7464061746643269e-66 0.0000000000000000e+00  -3.1850711712139034e-65 1.8321348579403228e-65 0.0000000000000000e+00  -5.3858686291429914e-65 5.0470908841737360e-66 0.0000000000000000e+00  -4.4364993615518654e-64 1.4468180613327461e-64 0.0000000000000000e+00  -6.9927422201547143e-63 4.3600754040784243e-63 0.0000000000000000e+00  -1.5064196449002068e-62 3.7494451510536959e-63 0.0000000000000000e+00  -8.4332230070195383e-62 1.9669637805538942e-62 0.0000000000000000e+00  -1.3548595535226988e-60 8.5201814826509157e-61 0.0000000000000000e+00  -2.4168782345453136e-60 3.3827923752518515e-61 0.0000000000000000e+00  -2.1169156302020518e-59 7.3993602635622034e-60 0.0000000000000000e+00  -2.4169510581317032e-58 1.4948270350174011e-58 0.0000000000000000e+00  -2.5876462078439751e-58 -9.4195438907547173e-59 0.0000000000000000e+00  -5.9779799738963316e-57 2.7819936487073857e-57 0.0000000000000000e+00  -2.4834990502836975e-56 1.2392080276837542e-56 0.0000000000000000e+00  -5.5633793327386769e-56 -8.6846428935094453e-57 0.0000000000000000e+00  -1.0113082547123228e-54 6.4793864023191822e-55 0.0000000000000000e+00  -1.1205783624495187e-54 -3.4634319349000299e-55 0.0000000000000000e+00  -2.4080785327726849e-53 1.2690535826843754e-53 0.0000000000000000e+00  -6.5935570444329043e-53 2.9880708351295568e-53 0.0000000000000000e+00  -4.3567112292142564e-52 1.2239070373350320e-52 0.0000000000000000e+00  -2.6661376342479601e-51 1.6621433970094855e-51 0.0000000000000000e+00  -7.6658107518112309e-51 -2.1403005969775209e-52 0.0000000000000000e+00  -7.1979136480998652e-50 4.5935979071539238e-50 0.0000000000000000e+00  -1.6171662469195443e-49 -1.4763362512530080e-50 0.0000000000000000e+00  -1.7298471964162586e-48 1.0091325576377792e-48 0.0000000000000000e+00  -4.3411055397193912e-48 -2.0373772287939900e-49 0.0000000000000000e+00  -2.0141371895699761e-47 1.1085069537479151e-47 0.0000000000000000e+00  -1.1028253828530793e-46 1.8935409065519422e-47 0.0000000000000000e+00  -1.0248402288482019e-46 2.4567831966451569e-47 0.0000000000000000e+00  -1.2409084441096547e-45 5.2456533401849930e-46 0.0000000000000000e+00  -8.7354609793548397e-46 -5.6700719717284439e-46 0.0000000000000000e+00  -1.3433541989852853e-44 8.0578425368003318e-45 0.0000000000000000e+00  -5.7964575840096941e-44 1.3715505089439489e-44 0.0000000000000000e+00  -3.6149223462744533e-44 -1.7483386289473964e-44 0.0000000000000000e+00  -1.1427205398979039e-43 6.4892826413321387e-44 0.0000000000000000e+00  -8.4137317071793025e-43 2.3119641757104838e-43 0.0000000000000000e+00  -1.9292067840371854e-42 1.9719476450908435e-43 0.0000000000000000e+00  -2.5118014008904144e-42 6.0935132848757557e-44 0.0000000000000000e+00  -2.0145824546946690e-42 -1.9444746763051769e-43 0.0000000000000000e+00  -8.6144406262644175e-43 -2.5012353252524798e-43 0.0000000000000000e+00  -1.1326833125466885e-43 -6.4355739151802197e-44 0.0000000000000000e+00  -3.8708652924025402e-44 1.8470639449185607e-44 0.0000000000000000e+00  -6.3172161852198832e-44 -1.0804234134252189e-44 0.0000000000000000e+00  -1.4993127901608696e-44 -7.8541127358389327e-45 0.0000000000000000e+00  -9.9857295253393000e-46 5.6626879581839351e-46 0.0000000000000000e+00  -1.4042866147824424e-45 -5.3775586946334672e-46 0.0000000000000000e+00  -1.1210121199775580e-46 -2.8507362022983781e-47 0.0000000000000000e+00  -1.0183006693676442e-46 -2.1388387034168966e-47 0.0000000000000000e+00  -1.8618540554303175e-47 -1.1953455930254731e-47 0.0000000000000000e+00  -4.0855295141772799e-48 2.0286776684523360e-49 0.0000000000000000e+00  -1.4875546216646263e-48 -9.3439903567627488e-49 0.0000000000000000e+00  -1.6329981653765791e-49 2.4509468410324757e-50 0.0000000000000000e+00  -7.4616746144751082e-50 -4.4131114932004375e-50 0.0000000000000000e+00  -8.2457218979229356e-51 6.3949862072931474e-52 0.0000000000000000e+00  -3.1471070120911598e-51 -1.7805484931929554e-51 0.0000000000000000e+00  -5.1039662323977964e-52 -1.1447544961206423e-52 0.0000000000000000e+00  -8.2093000134448774e-53 -3.5411968643115066e-53 0.0000000000000000e+00  -2.6631073199824134e-53 -1.3136109223416279e-53 0.0000000000000000e+00  -1.1968943758230375e-54 3.2343835884054922e-55 0.0000000000000000e+00  -1.0643195324957756e-54 -6.7950453694141432e-55 0.0000000000000000e+00  -5.1516257450224647e-56 8.3372726313905523e-57 0.0000000000000000e+00  -2.3377428093888611e-56 -1.3220330888253978e-56 0.0000000000000000e+00  -4.8260075401057227e-57 -2.5180920428304306e-57 0.0000000000000000e+00  -2.4579750918227805e-58 8.5354012211859703e-59 0.0000000000000000e+00  -2.1593691725820123e-58 -1.3269749504007928e-58 0.0000000000000000e+00  -1.9915350460002077e-59 -6.1395654939900045e-60 0.0000000000000000e+00  -2.3751789967002016e-60 -3.3922828100838954e-61 0.0000000000000000e+00  -1.2914085548360242e-60 -7.6009501404670068e-61 0.0000000000000000e+00  -7.6922069343451435e-62 -2.1418986155780234e-62 0.0000000000000000e+00  -1.3595774122667068e-62 -2.9278169003437300e-63 0.0000000000000000e+00  -6.6415848398509082e-63 -3.7853397864236412e-63 0.0000000000000000e+00  -4.7841208881887534e-64 -1.8183286304629527e-64 0.0000000000000000e+00  -4.3638052001244410e-65 9.5740356759012595e-67 0.0000000000000000e+00  -2.9490172203405096e-65 -1.6610687362280436e-65 0.0000000000000000e+00  -3.4141703537819845e-66 -1.9876369948573980e-66 0.0000000000000000e+00  -8.9928746256979596e-68 5.4778245507964286e-68 0.0000000000000000e+00  -8.6382970418747104e-68 -4.1756617900802228e-68 0.0000000000000000e+00  -2.0686620391577628e-68 -1.2844743163122388e-68 0.0000000000000000e+00  -1.1328031251008499e-69 -5.1319170375819753e-70 0.0000000000000000e+00  -8.7939913764654998e-71 1.3784980169202465e-71 0.0000000000000000e+00  -6.9091347640334603e-71 -3.6562321105081350e-71 0.0000000000000000e+00  -1.2480729695364730e-71 -7.6606406162630491e-72 0.0000000000000000e+00  -5.9823947117845697e-73 -2.7506488526695397e-73 0.0000000000000000e+00  -3.9236363669681709e-74 7.4224115370502551e-75 0.0000000000000000e+00  -3.1567048241016208e-74 -1.4788693248235321e-74 0.0000000000000000e+00  -6.5908468157804737e-75 -3.3568878964661063e-75 0.0000000000000000e+00  -7.1799592770206423e-76 -3.1071003842400189e-76 0.0000000000000000e+00  -8.5517061195654790e-76 -1.6228664706305691e-75 0.0000000000000000e+00  -4.7734062617481872e-75 -1.3946050194684358e-74 0.0000000000000000e+00  4.3665421017354337e-75 -8.3083730471927064e-75 0.0000000000000000e+00  -1.6292318430166777e-73 -3.4273894623045090e-73 0.0000000000000000e+00  -9.2840506713371905e-71 -1.0070811903616237e-70 0.0000000000000000e+00  -7.5051982470235932e-70 -1.3178378695521167e-69 0.0000000000000000e+00  -1.0982297639599693e-69 -3.6514406905989673e-69 0.0000000000000000e+00  -7.7593814270887054e-68 -1.7115668537354005e-67 0.0000000000000000e+00  -6.5294338545616409e-68 -3.2600958672767432e-67 0.0000000000000000e+00  -6.7880711667731920e-66 -1.3502212630515256e-65 0.0000000000000000e+00  -4.5184639859754223e-66 -2.1317502947092661e-65 0.0000000000000000e+00  -9.0666463024472904e-65 -1.5578065693859671e-64 0.0000000000000000e+00  1.7213704360449010e-65 -2.1035143908853750e-64 0.0000000000000000e+00  -4.2741671612991947e-62 -6.4036991661681195e-62 0.0000000000000000e+00  -6.9958987483528994e-62 -1.7209207952152454e-61 0.0000000000000000e+00  -2.3250517024239521e-62 -2.7287078921195335e-61 0.0000000000000000e+00  -5.7379510757774141e-60 -1.1364367949394288e-59 0.0000000000000000e+00  4.7656983516812579e-60 -1.5018766744268565e-59 0.0000000000000000e+00  -2.8997023537919539e-59 -4.7498414427958375e-59 0.0000000000000000e+00  8.8175253358132773e-60 -6.0858387807656253e-59 0.0000000000000000e+00  2.3244495712453074e-59 -3.9711696933753865e-59 0.0000000000000000e+00  -5.6355970762637076e-58 -8.9492880942887705e-58 0.0000000000000000e+00  -1.3796650015034509e-59 -1.2602429187345208e-57 0.0000000000000000e+00  -4.6319270374494239e-57 -1.1639139289742296e-56 0.0000000000000000e+00  5.7469961809709763e-57 -8.6724540336565257e-57 0.0000000000000000e+00  -5.3317030011008015e-57 -7.3397530311572894e-57 0.0000000000000000e+00  -1.7664142682565162e-56 -3.7739531153005748e-56 0.0000000000000000e+00  2.1609557096229103e-56 -4.0705310733234387e-56 0.0000000000000000e+00  -5.0006387684006210e-57 -9.2022016700775831e-57 0.0000000000000000e+00  -8.1152321204183654e-56 -2.0312661063373517e-55 0.0000000000000000e+00  6.3708476161985416e-56 -5.0767889809680974e-55 0.0000000000000000e+00  -4.2882132825316403e-55 -7.2591571970805319e-55 0.0000000000000000e+00  -4.8798013076159501e-56 -1.8357623642343188e-54 0.0000000000000000e+00  1.6597612117425447e-55 -5.7393003526597726e-55 0.0000000000000000e+00  -5.1808636754001459e-55 -1.6761168133000970e-54 0.0000000000000000e+00  -2.2530708180142000e-54 -7.0724216465518073e-54 0.0000000000000000e+00  2.5815201900378591e-54 -6.0760286979381470e-54 0.0000000000000000e+00  -6.7186081392388427e-55 -2.3899081717915591e-54 0.0000000000000000e+00  5.3235321884144188e-55 -2.8189756393548938e-54 0.0000000000000000e+00  1.2819148170502722e-55 -1.4247749186589702e-54 0.0000000000000000e+00  -2.1797354649991972e-54 -3.4671732622149261e-54 0.0000000000000000e+00  5.7106160223924975e-55 -8.2269907238397102e-54 0.0000000000000000e+00  -3.9296427975891977e-54 -1.3558651041423614e-53 0.0000000000000000e+00  4.6912571801764901e-54 -7.7138708906988575e-54 0.0000000000000000e+00  2.0312284102692224e-55 -6.5058179981663659e-55 0.0000000000000000e+00  -4.8002533338426016e-54 -8.0095124568063715e-54 0.0000000000000000e+00  4.8260569914411992e-54 -7.8692851728449825e-54 0.0000000000000000e+00  -1.6616186802799460e-56 -1.3349987762554438e-55 0.0000000000000000e+00  1.1151490509782227e-56 -2.7680665925682455e-55 0.0000000000000000e+00  2.2065514215945204e-56 -9.8796665099904239e-56 0.0000000000000000e+00  -5.2037861347166164e-54 -9.3536337502773551e-54 0.0000000000000000e+00  5.5503252083230695e-54 -9.4082167435760788e-54 0.0000000000000000e+00  5.6745521008556960e-56 -1.0519241791125374e-55 0.0000000000000000e+00  -1.4328559977256921e-56 -6.2046486654081550e-56 0.0000000000000000e+00  -4.9990634943636338e-55 -9.0458436566477306e-55 0.0000000000000000e+00  -5.8145599120990152e-54 -1.0044939136544422e-53 0.0000000000000000e+00  4.5036607352734480e-54 -1.0492660086301559e-53 0.0000000000000000e+00  -3.0524986820704693e-54 -7.9847123457199706e-54 0.0000000000000000e+00  2.4389322837615323e-54 -8.5504438243374146e-54 0.0000000000000000e+00  2.2464943380388739e-54 -3.3067977190214677e-54 0.0000000000000000e+00  -5.4371846100296452e-55 -1.4797001395678245e-54 0.0000000000000000e+00  8.3572601678338532e-55 -1.5741035773886653e-54 0.0000000000000000e+00  -4.9237265702050064e-55 -9.8309348872005545e-55 0.0000000000000000e+00  5.1252784315799847e-55 -8.8567330316022176e-55 0.0000000000000000e+00  -1.5666830122315751e-56 -2.6915304661606309e-56 0.0000000000000000e+00  -4.4769011391040332e-56 -1.7216767053088968e-55 0.0000000000000000e+00  4.1726403560589847e-56 -1.7469396907308603e-55 0.0000000000000000e+00  4.8026370446683497e-57 -6.9032219065909846e-56 0.0000000000000000e+00  -2.7485752508809395e-56 -6.5417329202839863e-56 0.0000000000000000e+00  3.2878318155403549e-56 -6.4148505307608184e-56 0.0000000000000000e+00  -2.8585133930492254e-57 -2.8732521845925734e-56 0.0000000000000000e+00  1.2959126677179495e-56 -3.0024835094467012e-56 0.0000000000000000e+00  1.0023277063917969e-57 -2.3994072313896383e-57 0.0000000000000000e+00  -4.3820848577415639e-57 -7.6376622737198625e-57 0.0000000000000000e+00  4.2493364454686572e-57 -1.1008258318116346e-56 0.0000000000000000e+00  3.1241353492505065e-58 -1.0213957798395022e-57 0.0000000000000000e+00  1.4377543858352793e-58 -5.0265