<?xml version="1.0"?>
<VTKFile type="UnstructuredGrid"  version="0.1"  >
<UnstructuredGrid>
<Piece  NumberOfPoints="11902" NumberOfCells="23402">
<Points>
<DataArray  type="Float64"  NumberOfComponents="3"  format="ascii">-5 -5 0  5 -5 0  5 5 0  -5 5 0  1.265109057194955 0.001266451646062672 0  -4.9 -5 0  -4.8 -5 0  -4.7 -5 0  -4.6 -5 0  -4.5 -5 0  -4.4 -5 0  -4.3 -5 0  -4.2 -5 0  -4.1 -5 0  -4 -5 0  -3.9 -5 0  -3.8 -5 0  -3.7 -5 0  -3.6 -5 0  -3.5 -5 0  -3.4 -5 0  -3.3 -5 0  -3.2 -5 0  -3.1 -5 0  -3 -5 0  -2.9 -5 0  -2.8 -5 0  -2.7 -5 0  -2.6 -5 0  -2.5 -5 0  -2.4 -5 0  -2.3 -5 0  -2.2 -5 0  -2.1 -5 0  -2 -5 0  -1.9 -5 0  -1.8 -5 0  -1.7 -5 0  -1.6 -5 0  -1.5 -5 0  -1.4 -5 0  -1.3 -5 0  -1.2 -5 0  -1.1 -5 0  -1 -5 0  -0.9000000000000004 -5 0  -0.7999999999999998 -5 0  -0.7000000000000002 -5 0  -0.5999999999999996 -5 0  -0.5 -5 0  -0.4000000000000004 -5 0  -0.2999999999999998 -5 0  -0.2000000000000002 -5 0  -0.09999999999999964 -5 0  0 -5 0  0.09999999999999964 -5 0  0.2000000000000002 -5 0  0.2999999999999998 -5 0  0.4000000000000004 -5 0  0.5 -5 0  0.5999999999999996 -5 0  0.7000000000000002 -5 0  0.7999999999999998 -5 0  0.9000000000000004 -5 0  1 -5 0  1.1 -5 0  1.2 -5 0  1.3 -5 0  1.4 -5 0  1.5 -5 0  1.6 -5 0  1.7 -5 0  1.8 -5 0  1.9 -5 0  2 -5 0  2.1 -5 0  2.2 -5 0  2.3 -5 0  2.4 -5 0  2.5 -5 0  2.6 -5 0  2.7 -5 0  2.8 -5 0  2.9 -5 0  3 -5 0  3.1 -5 0  3.199999999999999 -5 0  3.300000000000001 -5 0  3.4 -5 0  3.5 -5 0  3.6 -5 0  3.699999999999999 -5 0  3.800000000000001 -5 0  3.9 -5 0  4 -5 0  4.1 -5 0  4.199999999999999 -5 0  4.300000000000001 -5 0  4.4 -5 0  4.5 -5 0  4.6 -5 0  4.699999999999999 -5 0  4.800000000000001 -5 0  4.9 -5 0  5 -4.9 0  5 -4.8 0  5 -4.7 0  5 -4.6 0  5 -4.5 0  5 -4.4 0  5 -4.3 0  5 -4.2 0  5 -4.1 0  5 -4 0  5 -3.9 0  5 -3.8 0  5 -3.7 0  5 -3.6 0  5 -3.5 0  5 -3.4 0  5 -3.3 0  5 -3.2 0  5 -3.1 0  5 -3 0  5 -2.9 0  5 -2.8 0  5 -2.7 0  5 -2.6 0  5 -2.5 0  5 -2.4 0  5 -2.3 0  5 -2.2 0  5 -2.1 0  5 -2 0  5 -1.9 0  5 -1.8 0  5 -1.7 0  5 -1.6 0  5 -1.5 0  5 -1.4 0  5 -1.3 0  5 -1.2 0  5 -1.1 0  5 -1 0  5 -0.9000000000000004 0  5 -0.7999999999999998 0  5 -0.7000000000000002 0  5 -0.5999999999999996 0  5 -0.5 0  5 -0.4000000000000004 0  5 -0.2999999999999998 0  5 -0.2000000000000002 0  5 -0.09999999999999964 0  5 0 0  5 0.09999999999999964 0  5 0.2000000000000002 0  5 0.2999999999999998 0  5 0.4000000000000004 0  5 0.5 0  5 0.5999999999999996 0  5 0.7000000000000002 0  5 0.7999999999999998 0  5 0.9000000000000004 0  5 1 0  5 1.1 0  5 1.2 0  5 1.3 0  5 1.4 0  5 1.5 0  5 1.6 0  5 1.7 0  5 1.8 0  5 1.9 0  5 2 0  5 2.1 0  5 2.2 0  5 2.3 0  5 2.4 0  5 2.5 0  5 2.6 0  5 2.7 0  5 2.8 0  5 2.9 0  5 3 0  5 3.1 0  5 3.199999999999999 0  5 3.300000000000001 0  5 3.4 0  5 3.5 0  5 3.6 0  5 3.699999999999999 0  5 3.800000000000001 0  5 3.9 0  5 4 0  5 4.1 0  5 4.199999999999999 0  5 4.300000000000001 0  5 4.4 0  5 4.5 0  5 4.6 0  5 4.699999999999999 0  5 4.800000000000001 0  5 4.9 0  4.9 5 0  4.8 5 0  4.7 5 0  4.6 5 0  4.5 5 0  4.4 5 0  4.3 5 0  4.2 5 0  4.1 5 0  4 5 0  3.9 5 0  3.8 5 0  3.7 5 0  3.6 5 0  3.5 5 0  3.4 5 0  3.3 5 0  3.2 5 0  3.1 5 0  3 5 0  2.9 5 0  2.8 5 0  2.7 5 0  2.6 5 0  2.5 5 0  2.4 5 0  2.3 5 0  2.2 5 0  2.1 5 0  2 5 0  1.9 5 0  1.8 5 0  1.7 5 0  1.6 5 0  1.5 5 0  1.4 5 0  1.3 5 0  1.2 5 0  1.1 5 0  1 5 0  0.9000000000000004 5 0  0.7999999999999998 5 0  0.7000000000000002 5 0  0.5999999999999996 5 0  0.5 5 0  0.4000000000000004 5 0  0.2999999999999998 5 0  0.2000000000000002 5 0  0.09999999999999964 5 0  0 5 0  -0.09999999999999964 5 0  -0.2000000000000002 5 0  -0.2999999999999998 5 0  -0.4000000000000004 5 0  -0.5 5 0  -0.5999999999999996 5 0  -0.7000000000000002 5 0  -0.7999999999999998 5 0  -0.9000000000000004 5 0  -1 5 0  -1.1 5 0  -1.2 5 0  -1.3 5 0  -1.4 5 0  -1.5 5 0  -1.6 5 0  -1.7 5 0  -1.8 5 0  -1.9 5 0  -2 5 0  -2.1 5 0  -2.2 5 0  -2.3 5 0  -2.4 5 0  -2.5 5 0  -2.6 5 0  -2.7 5 0  -2.8 5 0  -2.9 5 0  -3 5 0  -3.1 5 0  -3.199999999999999 5 0  -3.300000000000001 5 0  -3.4 5 0  -3.5 5 0  -3.6 5 0  -3.699999999999999 5 0  -3.800000000000001 5 0  -3.9 5 0  -4 5 0  -4.1 5 0  -4.199999999999999 5 0  -4.300000000000001 5 0  -4.4 5 0  -4.5 5 0  -4.6 5 0  -4.699999999999999 5 0  -4.800000000000001 5 0  -4.9 5 0  -5 4.9 0  -5 4.8 0  -5 4.7 0  -5 4.6 0  -5 4.5 0  -5 4.4 0  -5 4.3 0  -5 4.2 0  -5 4.1 0  -5 4 0  -5 3.9 0  -5 3.8 0  -5 3.7 0  -5 3.6 0  -5 3.5 0  -5 3.4 0  -5 3.3 0  -5 3.2 0  -5 3.1 0  -5 3 0  -5 2.9 0  -5 2.8 0  -5 2.7 0  -5 2.6 0  -5 2.5 0  -5 2.4 0  -5 2.3 0  -5 2.2 0  -5 2.1 0  -5 2 0  -5 1.9 0  -5 1.8 0  -5 1.7 0  -5 1.6 0  -5 1.5 0  -5 1.4 0  -5 1.3 0  -5 1.2 0  -5 1.1 0  -5 1 0  -5 0.9000000000000004 0  -5 0.7999999999999998 0  -5 0.7000000000000002 0  -5 0.5999999999999996 0  -5 0.5 0  -5 0.4000000000000004 0  -5 0.2999999999999998 0  -5 0.2000000000000002 0  -5 0.09999999999999964 0  -5 0 0  -5 -0.09999999999999964 0  -5 -0.2000000000000002 0  -5 -0.2999999999999998 0  -5 -0.4000000000000004 0  -5 -0.5 0  -5 -0.5999999999999996 0  -5 -0.7000000000000002 0  -5 -0.7999999999999998 0  -5 -0.9000000000000004 0  -5 -1 0  -5 -1.1 0  -5 -1.2 0  -5 -1.3 0  -5 -1.4 0  -5 -1.5 0  -5 -1.6 0  -5 -1.7 0  -5 -1.8 0  -5 -1.9 0  -5 -2 0  -5 -2.1 0  -5 -2.2 0  -5 -2.3 0  -5 -2.4 0  -5 -2.5 0  -5 -2.6 0  -5 -2.7 0  -5 -2.8 0  -5 -2.9 0  -5 -3 0  -5 -3.1 0  -5 -3.199999999999999 0  -5 -3.300000000000001 0  -5 -3.4 0  -5 -3.5 0  -5 -3.6 0  -5 -3.699999999999999 0  -5 -3.800000000000001 0  -5 -3.9 0  -5 -4 0  -5 -4.1 0  -5 -4.199999999999999 0  -5 -4.300000000000001 0  -5 -4.4 0  -5 -4.5 0  -5 -4.6 0  -5 -4.699999999999999 0  -5 -4.800000000000001 0  -5 -4.9 0  1.257119583245178 0.09270655417818818 0  1.234935680616446 0.1904905702480698 0  1.201039519059609 0.2873447917797939 0  1.158361338094577 0.3758185325278954 0  1.09959033968717 0.4670133386729227 0  1.032809042097942 0.5503249408693001 0  0.954264761681783 0.6308933432975298 0  0.8669824345741677 0.7057851320191362 0  0.7751565026819079 0.7709233981726578 0  0.6734336213864566 0.8283937157965563 0  0.5597962417551011 0.8806331065804941 0  0.4460266505778633 0.9256877437915507 0  0.3357237996031314 0.9571687855537734 0  0.2088134737421363 0.9798950524187318 0  0.0872810804892101 0.9981967213829404 0  -0.0261825845855463 1.001796106100079 0  -0.1438551602470067 0.9882229157810826 0  -0.274324056638875 0.9681646087250386 0  -0.3946740916869885 0.9439233928490069 0  -0.5038956401862138 0.9089720449823933 0  -0.6133492937167793 0.8625876961434006 0  -0.7152557391274745 0.8073764697073447 0  -0.8096171572253978 0.7430706466199984 0  -0.9013120261695234 0.6692914588060156 0  -0.9880631778109642 0.5888657052772608 0  -1.063083823357101 0.5070406714270262 0  -1.125380421155271 0.422870262696258 0  -1.180997333798607 0.3285795537332543 0  -1.218234600672383 0.2421414795836523 0  -1.242511749403026 0.1485806157684524 0  -1.252661211422404 0.05279338326686719 0  -1.252599068310903 -0.05048473766947873 0  -1.242363369763289 -0.1455377784514438 0  -1.217873101906485 -0.2359223163801628 0  -1.17547325050612 -0.3314036200823601 0  -1.125676877710245 -0.4239940011095955 0  -1.065326835685845 -0.5068282324748532 0  -0.9906502487986194 -0.5878849984974974 0  -0.9044986228585896 -0.6672668336226217 0  -0.8137935882124951 -0.7384628091228643 0  -0.7186631059072316 -0.7989732592213221 0  -0.6141321077241716 -0.8524179606877853 0  -0.4978369171911475 -0.9022004499392269 0  -0.3855635898550321 -0.9420906170233968 0  -0.2710064200974073 -0.9680318371400723 0  -0.1420680363047718 -0.9883037327257842 0  -0.02745564717739179 -1.001028661666223 0  0.08551190376968931 -0.9936335235229807 0  0.2156015241530762 -0.9755800215858781 0  0.3387603153462359 -0.95526283881222 0  0.4502779118993585 -0.9243513319474778 0  0.562631310563187 -0.879842356249471 0  0.6747718229773843 -0.8281886384834699 0  0.7748673737059122 -0.7721713306475769 0  0.8659296067118151 -0.7075990662758513 0  0.9515988162297622 -0.6318103682871389 0  1.03046102178949 -0.5488317275595862 0  1.101467349733288 -0.4650887398672786 0  1.159272923047632 -0.376043040650167 0  1.202887075351595 -0.2854305171889503 0  1.235676322963231 -0.1899063157026049 0  1.257535985616997 -0.09289323875118041 0  -2.448515303015337 4.918032451605073 0  -2.448384995434811 -4.910403115814713 0  4.910323930882575 2.44782939584551 0  4.918459287770774 -2.449297153526204 0  2.446106674231324 -4.895618982942727 0  2.440541926406621 4.899384957393277 0  -4.910351257711571 -2.447856560791503 0  -4.910348575373229 2.447860759227875 0  -1.748467540407062 4.910883476285813 0  -1.744255777069206 -4.914329499072871 0  4.920475248788321 1.744010456979948 0  4.908986547399357 -1.747763288556103 0  -4.909281627373089 -1.747498247981454 0  -4.910105489454723 1.747244137792216 0  1.745736707309012 4.904729836539726 0  1.74714381475504 -4.892857099883448 0  -1.148788232179005 4.908638289291505 0  -1.12964947180488 -4.916568963938575 0  -4.908956988517832 -1.14783875081692 0  -4.908774864379757 1.147639557431036 0  1.143785844969922 -4.912745570287059 0  1.148797680248213 4.908624276805713 0  4.909096108797582 1.146113377058018 0  4.919956209124058 -1.151906185381893 0  -0.5466407185082752 -4.909811966630701 0  -0.5464267103174405 4.918517004018468 0  -4.907655587892707 -0.5486589379181691 0  -4.907679576754436 0.5472173673802462 0  4.906971483325987 -0.5489768759948409 0  4.918663928493696 0.5457402923549044 0  0.5424204411445763 -4.896657512095365 0  0.5511537496820993 4.915331767183715 0  -4.91181150173681 -3.048225985447395 0  4.918388251366616 3.046246468874207 0  4.91131872510037 -3.048200821788619 0  -4.912659938816405 3.045318321152746 0  3.055246666672844 -4.917309800241081 0  -3.048573249825118 -4.911240110416627 0  3.052141863198402 4.913319371409839 0  -3.048019516192287 4.912130785448117 0  -4.906751011245604 -0.04990268247876661 0  0.04511808272899545 -4.911760272066457 0  0.04956490026748094 4.918804895556928 0  4.913827230794161 -0.05128552268400279 0  3.545576636027595 -4.918975979764922 0  -3.548853420992867
[...]
<PointData  Vectors="f_6614"> 
<DataArray  type="Float64"  Name="f_6614"  NumberOfComponents="3" format="ascii">2.6559658580600303e-76 2.6559658580600303e-76 0.0000000000000000e+00  -2.8445085011138809e-76 2.8445085011138809e-76 0.0000000000000000e+00  -8.5659604779174594e-78 -8.5659604779174594e-78 0.0000000000000000e+00  3.0308186857311735e-76 -3.0308186857311735e-76 0.0000000000000000e+00  7.8506793294247035e-01 8.1375733864996174e-03 0.0000000000000000e+00  4.1660581889426157e-75 6.6061168411885976e-75 0.0000000000000000e+00  2.0822572763386187e-75 2.0880083477164725e-74 0.0000000000000000e+00  -3.4062465525028675e-75 6.7719155972864607e-75 0.0000000000000000e+00  4.0007870897116416e-72 6.6675462393983771e-72 0.0000000000000000e+00  5.3178584854984645e-71 1.3457399894948321e-70 0.0000000000000000e+00  -7.9221146284489737e-72 4.5554251837436970e-71 0.0000000000000000e+00  3.2353280172934686e-69 6.1615340820755813e-69 0.0000000000000000e+00  5.1632953659299564e-68 9.3973541990303521e-68 0.0000000000000000e+00  -3.0662813857309847e-68 1.5001751324511904e-67 0.0000000000000000e+00  1.2773364311787839e-67 3.9812748206196969e-67 0.0000000000000000e+00  1.2623084905263905e-68 8.7791268665509538e-67 0.0000000000000000e+00  5.4548002117689590e-64 8.8208252021801294e-64 0.0000000000000000e+00  4.7427600639726857e-65 2.4418713294525944e-63 0.0000000000000000e+00  1.3500828433831499e-62 2.1983852968877007e-62 0.0000000000000000e+00  8.0704939879406664e-63 8.3178042044228527e-62 0.0000000000000000e+00  6.9367045001207528e-61 1.1019465261803116e-60 0.0000000000000000e+00  4.0656786402864314e-60 7.0045693788439768e-60 0.0000000000000000e+00  -2.8495042642863749e-60 7.7005629518707403e-60 0.0000000000000000e+00  5.6672439689172523e-59 1.1364927235980726e-58 0.0000000000000000e+00  -1.7605294353433479e-59 1.1647404284015392e-58 0.0000000000000000e+00  -3.0063319957748624e-59 6.8401769480337996e-59 0.0000000000000000e+00  1.8040743586010933e-58 3.3032049212110405e-58 0.0000000000000000e+00  7.3060222431919024e-58 2.0890127336457595e-57 0.0000000000000000e+00  2.8636428816780088e-57 6.2312224854245042e-57 0.0000000000000000e+00  -3.4110957233540257e-57 5.7400889416555924e-57 0.0000000000000000e+00  -3.5265225736746633e-58 1.0980050352358472e-57 0.0000000000000000e+00  1.9108375609308290e-56 2.9308253792675354e-56 0.0000000000000000e+00  -1.4153269732385800e-56 3.5317338270885404e-56 0.0000000000000000e+00  1.1928323291632472e-56 2.8927063977916297e-56 0.0000000000000000e+00  8.7488321175351176e-56 2.0970227543061845e-55 0.0000000000000000e+00  -2.5158137009987334e-56 5.7435270394397396e-55 0.0000000000000000e+00  5.2175593869031403e-57 8.6093162671289376e-57 0.0000000000000000e+00  5.5524146286759313e-56 1.3813505376958889e-55 0.0000000000000000e+00  1.5511096769224995e-55 6.1685437733698758e-55 0.0000000000000000e+00  -2.2397308294361065e-55 3.5176298191056715e-55 0.0000000000000000e+00  9.8514594062690439e-55 1.7223412555989552e-54 0.0000000000000000e+00  -4.4285039492053603e-55 4.3616420879011417e-54 0.0000000000000000e+00  -2.2868830793730989e-55 2.6820922393548543e-54 0.0000000000000000e+00  -9.6353985432014405e-56 9.4400472869554225e-55 0.0000000000000000e+00  -1.1330694451209802e-55 1.8226656345688540e-55 0.0000000000000000e+00  2.7647648933089070e-54 5.2320332336897749e-54 0.0000000000000000e+00  -2.1637908444781945e-54 4.1399257022320021e-54 0.0000000000000000e+00  -7.2053550701525314e-55 8.0835235743934451e-55 0.0000000000000000e+00  -1.3229636653132479e-55 2.7135426400156776e-55 0.0000000000000000e+00  9.3207060521549059e-55 1.4448453587837738e-54 0.0000000000000000e+00  9.4726762009981879e-55 6.1540644043135473e-54 0.0000000000000000e+00  -1.1307397001305348e-54 5.8988695956809224e-54 0.0000000000000000e+00  5.1568471098374054e-55 4.6478586853816119e-54 0.0000000000000000e+00  1.9110384487598209e-56 5.7927914711970200e-54 0.0000000000000000e+00  3.0234242967790387e-55 6.1509451159665539e-54 0.0000000000000000e+00  -1.2641121650593365e-54 2.0440713288418478e-54 0.0000000000000000e+00  -6.4672875616166279e-55 1.4722534064374002e-53 0.0000000000000000e+00  4.4725221198624650e-54 7.4698914051452946e-54 0.0000000000000000e+00  -4.3557857394825019e-54 8.0947844165760914e-54 0.0000000000000000e+00  1.9256661121522460e-54 3.9574375628239406e-54 0.0000000000000000e+00  -7.3749245368880399e-55 9.4981905689770991e-54 0.0000000000000000e+00  1.3338783692157020e-54 9.3291227366725734e-54 0.0000000000000000e+00  -1.6881849932308753e-54 4.3955982337496741e-54 0.0000000000000000e+00  -9.2680731935544501e-55 2.4041855453719594e-54 0.0000000000000000e+00  3.3381579294408335e-55 1.2997867336159493e-54 0.0000000000000000e+00  2.6626596028656582e-55 2.5377298347551382e-54 0.0000000000000000e+00  -7.8382257313051334e-56 3.4897076605130402e-54 0.0000000000000000e+00  -7.1259474168999537e-55 1.4809344020521404e-54 0.0000000000000000e+00  2.3822907391727248e-55 4.4279855012126144e-55 0.0000000000000000e+00  -2.3137473963418349e-55 6.0213180095113769e-55 0.0000000000000000e+00  5.0429639672212457e-56 2.3984635823093446e-55 0.0000000000000000e+00  1.8698883126767702e-55 9.5258266834388217e-55 0.0000000000000000e+00  -3.3090802503932591e-55 5.2984201390976114e-55 0.0000000000000000e+00  -1.5932935914453608e-56 4.8202974193307312e-56 0.0000000000000000e+00  -1.1364085640001858e-57 1.1331584798104529e-56 0.0000000000000000e+00  6.7643256559320399e-57 2.3558836806715202e-56 0.0000000000000000e+00  -9.0052016478782026e-57 1.5009293914765350e-56 0.0000000000000000e+00  1.7442037841571972e-57 2.8892095614035299e-57 0.0000000000000000e+00  -1.2458104671078843e-57 2.7227425780268183e-57 0.0000000000000000e+00  5.1825250234762072e-57 7.8155531922962099e-57 0.0000000000000000e+00  -4.5377306542475181e-57 1.1244959417394537e-56 0.0000000000000000e+00  -1.8155654837530457e-58 9.3926730249655584e-58 0.0000000000000000e+00  -2.3942833938587920e-58 4.6494079235449068e-58 0.0000000000000000e+00  -7.8842297456993169e-61 8.8102379886208130e-59 0.0000000000000000e+00  -2.4476546537285258e-59 6.4198059747422938e-59 0.0000000000000000e+00  -7.1201648083138071e-60 2.4988988456313231e-59 0.0000000000000000e+00  -4.3868469866173039e-60 2.2381867548007332e-59 0.0000000000000000e+00  -3.0641793001509471e-60 7.1648306332311660e-60 0.0000000000000000e+00  -8.5270105208832419e-62 4.4343127537105828e-61 0.0000000000000000e+00  -1.0762368424137577e-61 2.2330342304334308e-61 0.0000000000000000e+00  -3.5882470034635019e-62 5.6713150778285664e-62 0.0000000000000000e+00  -3.9109058191315384e-64 6.6947085431277260e-64 0.0000000000000000e+00  -2.4317027964312521e-65 5.1690876148343264e-65 0.0000000000000000e+00  3.7090372048509720e-66 1.0389319739594110e-65 0.0000000000000000e+00  -4.8430452427183291e-66 9.2589827789986109e-66 0.0000000000000000e+00  -6.7006928046547080e-68 2.7707396403383295e-67 0.0000000000000000e+00  -7.8544143028144339e-68 1.2914240848626419e-67 0.0000000000000000e+00  -8.0618372619258120e-69 1.1729073904578131e-68 0.0000000000000000e+00  -5.6339200789943006e-70 9.5185225038675828e-70 0.0000000000000000e+00  -3.7797824541650285e-71 6.8176767221040972e-71 0.0000000000000000e+00  -1.8785723789110698e-72 3.2023365829304505e-72 0.0000000000000000e+00  -1.2178010279992317e-73 2.7265995303699291e-73 0.0000000000000000e+00  -4.4213197096059555e-75 1.2911148061642183e-74 0.0000000000000000e+00  -2.5481706030599709e-75 4.2410980718329747e-75 0.0000000000000000e+00  -9.7687170634113386e-76 3.5584818675961186e-76 0.0000000000000000e+00  -1.6211653858645100e-75 -2.3927978363858674e-76 0.0000000000000000e+00  -2.4487599567016149e-74 1.1592274671780823e-74 0.0000000000000000e+00  -3.6791056536911833e-74 1.5506554990009383e-75 0.0000000000000000e+00  -3.8827452164636701e-73 1.4337636962920501e-73 0.0000000000000000e+00  -1.0235533291968993e-71 6.2402798814322837e-72 0.0000000000000000e+00  -6.7392948572758482e-71 3.7098023792707344e-71 0.0000000000000000e+00  -1.0610205806931245e-70 3.9050074201161357e-72 0.0000000000000000e+00  -8.8988726009044498e-70 3.3106308667761810e-70 0.0000000000000000e+00  -2.1278478648974640e-68 1.2873002087047979e-68 0.0000000000000000e+00  -1.0233926616607178e-67 5.1140888244116148e-68 0.0000000000000000e+00  -1.0140219670633416e-67 -6.0314131402512351e-68 0.0000000000000000e+00  -3.1644020061912440e-66 1.7476552661817312e-66 0.0000000000000000e+00  -3.1836464726837201e-65 1.8336103504006494e-65 0.0000000000000000e+00  -5.3854436058983320e-65 5.0516105612847408e-66 0.0000000000000000e+00  -4.4352894259700921e-64 1.4480968258940580e-64 0.0000000000000000e+00  -6.9886999308582013e-63 4.3645464921351173e-63 0.0000000000000000e+00  -1.5060500628511357e-62 3.7536651793945857e-63 0.0000000000000000e+00  -8.4313404583699044e-62 1.9690595127846177e-62 0.0000000000000000e+00  -1.3539532767021313e-60 8.5310426359030132e-61 0.0000000000000000e+00  -2.4165003868425655e-60 3.3875054702959917e-61 0.0000000000000000e+00  -2.1160903919914815e-59 7.4095927508241411e-60 0.0000000000000000e+00  -2.4151885781976898e-58 1.4971507596757392e-58 0.0000000000000000e+00  -2.5887979424336771e-58 -9.4355169474369265e-59 0.0000000000000000e+00  -5.9745590578433748e-57 2.7867717154381419e-57 0.0000000000000000e+00  -2.4819314596322663e-56 1.2415288869894277e-56 0.0000000000000000e+00  -5.5645337553281592e-56 -8.7046368188095374e-57 0.0000000000000000e+00  -1.0104690095015614e-54 6.4927698973023850e-55 0.0000000000000000e+00  -1.1210310157877178e-54 -3.4711573661602919e-55 0.0000000000000000e+00  -2.4064172898122961e-53 1.2719157023412631e-53 0.0000000000000000e+00  -6.5896584557076272e-53 2.9953297991725728e-53 0.0000000000000000e+00  -4.3551023761728879e-52 1.2268247322298693e-52 0.0000000000000000e+00  -2.6640084099105996e-51 1.6665342574371324e-51 0.0000000000000000e+00  -7.6659846060274486e-51 -2.1500425380608398e-52 0.0000000000000000e+00  -7.1922574449878561e-50 4.6067330150860666e-50 0.0000000000000000e+00  -1.6173118105555042e-49 -1.4815073561770474e-50 0.0000000000000000e+00  -1.7286818979495208e-48 1.0122304503050504e-48 0.0000000000000000e+00  -4.3412284583424044e-48 -2.0456667122418744e-49 0.0000000000000000e+00  -2.0129809086069928e-47 1.1121433950232251e-47 0.0000000000000000e+00  -1.1026098048373583e-46 1.8995440513909802e-47 0.0000000000000000e+00  -1.0246240078468734e-46 2.4653682021321104e-47 0.0000000000000000e+00  -1.2404460641347113e-45 5.2640095224117452e-46 0.0000000000000000e+00  -8.7393351877471402e-46 -5.6908864328603827e-46 0.0000000000000000e+00  -1.3428106162719911e-44 8.0874816129926954e-45 0.0000000000000000e+00  -5.7954896532073087e-44 1.3765899329752057e-44 0.0000000000000000e+00  -3.6155483149847334e-44 -1.7550547320341497e-44 0.0000000000000000e+00  -1.1424809718499016e-43 6.5141756944904904e-44 0.0000000000000000e+00  -8.4128782021612880e-43 2.3208564348996176e-43 0.0000000000000000e+00  -1.9290978052030541e-42 1.9795368744789658e-43 0.0000000000000000e+00  -2.5116852099993472e-42 6.1172750556972879e-44 0.0000000000000000e+00  -2.0144719684007490e-42 -1.9519584712007739e-43 0.0000000000000000e+00  -8.6135442216796791e-43 -2.5108656645249906e-43 0.0000000000000000e+00  -1.1324440856977170e-43 -6.4602687894815482e-44 0.0000000000000000e+00  -3.8715360129538646e-44 1.8541595032863771e-44 0.0000000000000000e+00  -6.3163977933437932e-44 -1.0843675493051319e-44 0.0000000000000000e+00  -1.4987787957887773e-44 -7.8830022153595183e-45 0.0000000000000000e+00  -9.9896306165070499e-46 5.6834732244640568e-46 0.0000000000000000e+00  -1.4038113273108521e-45 -5.3963923428893087e-46 0.0000000000000000e+00  -1.1207575914754105e-46 -2.8606750240546050e-47 0.0000000000000000e+00  -1.0180644837757609e-46 -2.1457305508220805e-47 0.0000000000000000e+00  -1.8606050779445937e-47 -1.1992749635198073e-47 0.0000000000000000e+00  -4.0856469588008297e-48 2.0370324884340098e-49 0.0000000000000000e+00  -1.4864731352144890e-48 -9.3727333943053729e-49 0.0000000000000000e+00  -1.6332594153277290e-49 2.4590668507715418e-50 0.0000000000000000e+00  -7.4562223907167772e-50 -4.4257389197116701e-50 0.0000000000000000e+00  -8.2464331037303175e-51 6.4164963423905419e-52 0.0000000000000000e+00  -3.1448200743253635e-51 -1.7852615901029195e-51 0.0000000000000000e+00  -5.1024541240801457e-52 -1.1474630172793586e-52 0.0000000000000000e+00  -8.2046661953428949e-53 -3.5498050427723254e-53 0.0000000000000000e+00  -2.6613828038492199e-53 -1.3165800042866567e-53 0.0000000000000000e+00  -1.1973182766147499e-54 3.2415997520488170e-55 0.0000000000000000e+00  -1.0634369622911467e-54 -6.8090884619018265e-55 0.0000000000000000e+00  -5.1527362238915087e-56 8.3564168636036413e-57 0.0000000000000000e+00  -2.3360662408747628e-56 -1.3245088607508005e-56 0.0000000000000000e+00  -4.8229019228316542e-57 -2.5224234454983508e-57 0.0000000000000000e+00  -2.4590221294522414e-58 8.5499109773506295e-59 0.0000000000000000e+00  -2.1577986634586028e-58 -1.3290462378515610e-58 0.0000000000000000e+00  -1.9908502248352839e-59 -6.1480256909566369e-60 0.0000000000000000e+00  -2.3747990855713666e-60 -3.3970177053853152e-61 0.0000000000000000e+00  -1.2905974334558531e-60 -7.6106687045505827e-61 0.0000000000000000e+00  -7.6901170436578287e-62 -2.1442514759943997e-62 0.0000000000000000e+00  -1.3592870305739930e-62 -2.9311371649682010e-63 0.0000000000000000e+00  -6.6380581453601068e-63 -3.7892435821649294e-63 0.0000000000000000e+00  -4.7825713663971040e-64 -1.8199778157457831e-64 0.0000000000000000e+00  -4.3638862653909928e-65 9.5826622800466796e-67 0.0000000000000000e+00  -2.9477204971353095e-65 -1.6624118285306698e-65 0.0000000000000000e+00  -3.4127525062045365e-66 -1.9890694386221692e-66 0.0000000000000000e+00  -8.9967582959023984e-68 5.4817434391864101e-68 0.0000000000000000e+00  -8.6356981303313392e-68 -4.1782151315015439e-68 0.0000000000000000e+00  -2.0679455239924012e-68 -1.2851659017631803e-68 0.0000000000000000e+00  -1.1325598041125038e-69 -5.1342169385197831e-70 0.0000000000000000e+00  -8.7946344658059570e-71 1.3791058691204427e-71 0.0000000000000000e+00  -6.9076935306562854e-71 -3.6575753963648110e-71 0.0000000000000000e+00  -1.2478206640754953e-71 -7.6629674188443888e-72 0.0000000000000000e+00  -5.9817099140456187e-73 -2.7512732415448388e-73 0.0000000000000000e+00  -3.9238138657887635e-74 7.4240303991634250e-75 0.0000000000000000e+00  -3.1564594655779037e-74 -1.4790916574959958e-74 0.0000000000000000e+00  -6.5905105413154372e-75 -3.3571914331227016e-75 0.0000000000000000e+00  -7.1798654618246099e-76 -3.1071848256912676e-76 0.0000000000000000e+00  -8.5520770408099406e-76 -1.6228330723499342e-75 0.0000000000000000e+00  -4.7736478035300920e-75 -1.3945831641719630e-74 0.0000000000000000e+00  4.3673973666772522e-75 -8.3091370518882006e-75 0.0000000000000000e+00  -1.6295633886196385e-73 -3.4270934408869504e-73 0.0000000000000000e+00  -9.2866710254758462e-71 -1.0068489343223145e-70 0.0000000000000000e+00  -7.5078080949221593e-70 -1.3176087828001769e-69 0.0000000000000000e+00  -1.0986771638125950e-69 -3.6510515779866904e-69 0.0000000000000000e+00  -7.7629280451477920e-68 -1.7112610352677256e-67 0.0000000000000000e+00  -6.5329159979605194e-68 -3.2598000473622149e-67 0.0000000000000000e+00  -6.7918833848793692e-66 -1.3498989574343697e-65 0.0000000000000000e+00  -4.5214882852045783e-66 -2.1315010543319594e-65 0.0000000000000000e+00  -9.0731933630189697e-65 -1.5572739714195394e-64 0.0000000000000000e+00  1.7227675758526586e-65 -2.1036253714264259e-64 0.0000000000000000e+00  -4.2777670170789440e-62 -6.4008617985318723e-62 0.0000000000000000e+00  -7.0025141149273107e-62 -1.7204152515622579e-61 0.0000000000000000e+00  -2.3274369502724018e-62 -2.7285300840569285e-61 0.0000000000000000e+00  -5.7439837790323432e-60 -1.1359903241103850e-59 0.0000000000000000e+00  4.7717841853688095e-60 -1.5022947238604820e-59 0.0000000000000000e+00  -2.9032707979391492e-59 -4.7473561540326326e-59 0.0000000000000000e+00  8.8293778423541059e-60 -6.0866311937407310e-59 0.0000000000000000e+00  2.3278521731480337e-59 -3.9733447044294165e-59 0.0000000000000000e+00  -5.6438540571177939e-58 -8.9440126652534572e-58 0.0000000000000000e+00  -1.3818544351003807e-59 -1.2602296004196496e-57 0.0000000000000000e+00  -4.6392731836301761e-57 -1.1634660399474207e-56 0.0000000000000000e+00  5.7573205214106974e-57 -8.6781938825708018e-57 0.0000000000000000e+00  -5.3413782199954930e-57 -7.3344181536001397e-57 0.0000000000000000e+00  -1.7698027936842547e-56 -3.7721747464120582e-56 0.0000000000000000e+00  2.1653922204814905e-56 -4.0727068340879364e-56 0.0000000000000000e+00  -5.0109943980307972e-57 -9.1971710957082645e-57 0.0000000000000000e+00  -8.1324424005852608e-56 -2.0304516984280037e-55 0.0000000000000000e+00  6.3876519324606716e-56 -5.0773743794301813e-55 0.0000000000000000e+00  -4.2982427060813602e-55 -7.2549951451010793e-55 0.0000000000000000e+00  -4.8858129289796205e-56 -1.8356985194149810e-54 0.0000000000000000e+00  1.6639551156771127e-55 -5.7408212184216795e-55 0.0000000000000000e+00  -5.1936607828334358e-55 -1.6756282999571429e-54 0.0000000000000000e+00  -2.2588699329506723e-54 -7.0703872608708022e-54 0.0000000000000000e+00  2.5887748603992565e-54 -6.0780274549556510e-54 0.0000000000000000e+00  -6.7368305426117852e-55 -2.3893444594041458e-54 0.0000000000000000e+00  5.3396412543390570e-55 -2.8192968754707697e-54 0.0000000000000000e+00  1.2860580949237600e-55 -1.4248259934681975e-54 0.0000000000000000e+00  -2.1862353219543417e-54 -3.4658050234327508e-54 0.0000000000000000e+00  5.7299743053215027e-55 -8.2270591848127409e-54 0.0000000000000000e+00  -3.9415382047350261e-54 -1.3556342679516351e-53 0.0000000000000000e+00  4.7059938688510613e-54 -7.7157915140134231e-54 0.0000000000000000e+00  2.0377364425758185e-55 -6.5063803237652145e-55 0.0000000000000000e+00  -4.8155274830183749e-54 -8.0079631007518448e-54 0.0000000000000000e+00  4.8416111172178372e-54 -7.8702081870988926e-54 0.0000000000000000e+00  -1.6669862915765857e-56 -1.3349736673643444e-55 0.0000000000000000e+00  1.1188288505816363e-56 -2.7679927883117124e-55 0.0000000000000000e+00  2.2137064434827887e-56 -9.8796613732499953e-56 0.0000000000000000e+00  -5.2206561518269212e-54 -9.3538422105770271e-54 0.0000000000000000e+00  5.5682130057518953e-54 -9.4072360226126114e-54 0.0000000000000000e+00  5.6927472669707795e-56 -1.0517895690915252e-55 0.0000000000000000e+00  -1.4374863743172709e-56 -6.2048979940009892e-56 0.0000000000000000e+00  -5.0149145201024112e-55 -9.0475142195404515e-55 0.0000000000000000e+00  -5.8327812523142980e-54 -1.0047318924823810e-53 0.0000000000000000e+00  4.5175221045578760e-54 -1.0490413773910510e-53 0.0000000000000000e+00  -3.0617789146518594e-54 -7.9863869319333220e-54 0.0000000000000000e+00  2.4462153481688159e-54 -8.5489540924436568e-54 0.0000000000000000e+00  2.2530584738067399e-54 -3.3052824892440559e-54 0.0000000000000000e+00  -5.4528686980521393e-55 -1.4800839340423983e-54 0.0000000000000000e+00  8.3803198696096723e-55 -1.5734377498252842e-54 0.0000000000000000e+00  -4.9374401097724555e-55 -9.8347772698321332e-55 0.0000000000000000e+00  5.1387048167070882e-55 -8.8522665228658186e-55 0.0000000000000000e+00  -1.5707632348089374e-56 -2.6929055871401060e-56 0.0000000000000000e+00  -4.4887196165835292e-56 -1.7220656754513707e-55 0.0000000000000000e+00  4.1821544614568232e-56 -1.7465283726867891e-55 0.0000000000000000e+00  4.8114589376613095e-57 -6.9027023748362002e-56 0.0000000000000000e+00  -2.7548259048973005e-56 -6.5444235147232923e-56 0.0000000000000000e+00  3.2949273064784981e-56 -6.4115750162488101e-56 0.0000000000000000e+00  -2.8645012542814250e-57 -2.8735386318595014e-56 0.0000000000000000e+00  1.2984072628278465e-56 -3.0011781120958840e-56 0.0000000000000000e+00  1.0041755647969922e-57 -2.3984019937730943e-57 0.0000000000000000e+00  -4.3902512190431855e-57 -7.6420582378538461e-57 0.0000000000000000e+00  4.2563855445807817e-57 -1.1004087684814594e-56 0.0000000000000000e+00  3.1292921808623492e-58 -1.0210901936639350e-57 0.0000000000000000e+00  1.4400022051907412e-58 -5.025204