<?xml version="1.0"?>
<VTKFile type="UnstructuredGrid"  version="0.1"  >
<UnstructuredGrid>
<Piece  NumberOfPoints="11902" NumberOfCells="23402">
<Points>
<DataArray  type="Float64"  NumberOfComponents="3"  format="ascii">-5 -5 0  5 -5 0  5 5 0  -5 5 0  1.257508731668384 0.001346909889388629 0  -4.9 -5 0  -4.8 -5 0  -4.7 -5 0  -4.6 -5 0  -4.5 -5 0  -4.4 -5 0  -4.3 -5 0  -4.2 -5 0  -4.1 -5 0  -4 -5 0  -3.9 -5 0  -3.8 -5 0  -3.7 -5 0  -3.6 -5 0  -3.5 -5 0  -3.4 -5 0  -3.3 -5 0  -3.2 -5 0  -3.1 -5 0  -3 -5 0  -2.9 -5 0  -2.8 -5 0  -2.7 -5 0  -2.6 -5 0  -2.5 -5 0  -2.4 -5 0  -2.3 -5 0  -2.2 -5 0  -2.1 -5 0  -2 -5 0  -1.9 -5 0  -1.8 -5 0  -1.7 -5 0  -1.6 -5 0  -1.5 -5 0  -1.4 -5 0  -1.3 -5 0  -1.2 -5 0  -1.1 -5 0  -1 -5 0  -0.9000000000000004 -5 0  -0.7999999999999998 -5 0  -0.7000000000000002 -5 0  -0.5999999999999996 -5 0  -0.5 -5 0  -0.4000000000000004 -5 0  -0.2999999999999998 -5 0  -0.2000000000000002 -5 0  -0.09999999999999964 -5 0  0 -5 0  0.09999999999999964 -5 0  0.2000000000000002 -5 0  0.2999999999999998 -5 0  0.4000000000000004 -5 0  0.5 -5 0  0.5999999999999996 -5 0  0.7000000000000002 -5 0  0.7999999999999998 -5 0  0.9000000000000004 -5 0  1 -5 0  1.1 -5 0  1.2 -5 0  1.3 -5 0  1.4 -5 0  1.5 -5 0  1.6 -5 0  1.7 -5 0  1.8 -5 0  1.9 -5 0  2 -5 0  2.1 -5 0  2.2 -5 0  2.3 -5 0  2.4 -5 0  2.5 -5 0  2.6 -5 0  2.7 -5 0  2.8 -5 0  2.9 -5 0  3 -5 0  3.1 -5 0  3.199999999999999 -5 0  3.300000000000001 -5 0  3.4 -5 0  3.5 -5 0  3.6 -5 0  3.699999999999999 -5 0  3.800000000000001 -5 0  3.9 -5 0  4 -5 0  4.1 -5 0  4.199999999999999 -5 0  4.300000000000001 -5 0  4.4 -5 0  4.5 -5 0  4.6 -5 0  4.699999999999999 -5 0  4.800000000000001 -5 0  4.9 -5 0  5 -4.9 0  5 -4.8 0  5 -4.7 0  5 -4.6 0  5 -4.5 0  5 -4.4 0  5 -4.3 0  5 -4.2 0  5 -4.1 0  5 -4 0  5 -3.9 0  5 -3.8 0  5 -3.7 0  5 -3.6 0  5 -3.5 0  5 -3.4 0  5 -3.3 0  5 -3.2 0  5 -3.1 0  5 -3 0  5 -2.9 0  5 -2.8 0  5 -2.7 0  5 -2.6 0  5 -2.5 0  5 -2.4 0  5 -2.3 0  5 -2.2 0  5 -2.1 0  5 -2 0  5 -1.9 0  5 -1.8 0  5 -1.7 0  5 -1.6 0  5 -1.5 0  5 -1.4 0  5 -1.3 0  5 -1.2 0  5 -1.1 0  5 -1 0  5 -0.9000000000000004 0  5 -0.7999999999999998 0  5 -0.7000000000000002 0  5 -0.5999999999999996 0  5 -0.5 0  5 -0.4000000000000004 0  5 -0.2999999999999998 0  5 -0.2000000000000002 0  5 -0.09999999999999964 0  5 0 0  5 0.09999999999999964 0  5 0.2000000000000002 0  5 0.2999999999999998 0  5 0.4000000000000004 0  5 0.5 0  5 0.5999999999999996 0  5 0.7000000000000002 0  5 0.7999999999999998 0  5 0.9000000000000004 0  5 1 0  5 1.1 0  5 1.2 0  5 1.3 0  5 1.4 0  5 1.5 0  5 1.6 0  5 1.7 0  5 1.8 0  5 1.9 0  5 2 0  5 2.1 0  5 2.2 0  5 2.3 0  5 2.4 0  5 2.5 0  5 2.6 0  5 2.7 0  5 2.8 0  5 2.9 0  5 3 0  5 3.1 0  5 3.199999999999999 0  5 3.300000000000001 0  5 3.4 0  5 3.5 0  5 3.6 0  5 3.699999999999999 0  5 3.800000000000001 0  5 3.9 0  5 4 0  5 4.1 0  5 4.199999999999999 0  5 4.300000000000001 0  5 4.4 0  5 4.5 0  5 4.6 0  5 4.699999999999999 0  5 4.800000000000001 0  5 4.9 0  4.9 5 0  4.8 5 0  4.7 5 0  4.6 5 0  4.5 5 0  4.4 5 0  4.3 5 0  4.2 5 0  4.1 5 0  4 5 0  3.9 5 0  3.8 5 0  3.7 5 0  3.6 5 0  3.5 5 0  3.4 5 0  3.3 5 0  3.2 5 0  3.1 5 0  3 5 0  2.9 5 0  2.8 5 0  2.7 5 0  2.6 5 0  2.5 5 0  2.4 5 0  2.3 5 0  2.2 5 0  2.1 5 0  2 5 0  1.9 5 0  1.8 5 0  1.7 5 0  1.6 5 0  1.5 5 0  1.4 5 0  1.3 5 0  1.2 5 0  1.1 5 0  1 5 0  0.9000000000000004 5 0  0.7999999999999998 5 0  0.7000000000000002 5 0  0.5999999999999996 5 0  0.5 5 0  0.4000000000000004 5 0  0.2999999999999998 5 0  0.2000000000000002 5 0  0.09999999999999964 5 0  0 5 0  -0.09999999999999964 5 0  -0.2000000000000002 5 0  -0.2999999999999998 5 0  -0.4000000000000004 5 0  -0.5 5 0  -0.5999999999999996 5 0  -0.7000000000000002 5 0  -0.7999999999999998 5 0  -0.9000000000000004 5 0  -1 5 0  -1.1 5 0  -1.2 5 0  -1.3 5 0  -1.4 5 0  -1.5 5 0  -1.6 5 0  -1.7 5 0  -1.8 5 0  -1.9 5 0  -2 5 0  -2.1 5 0  -2.2 5 0  -2.3 5 0  -2.4 5 0  -2.5 5 0  -2.6 5 0  -2.7 5 0  -2.8 5 0  -2.9 5 0  -3 5 0  -3.1 5 0  -3.199999999999999 5 0  -3.300000000000001 5 0  -3.4 5 0  -3.5 5 0  -3.6 5 0  -3.699999999999999 5 0  -3.800000000000001 5 0  -3.9 5 0  -4 5 0  -4.1 5 0  -4.199999999999999 5 0  -4.300000000000001 5 0  -4.4 5 0  -4.5 5 0  -4.6 5 0  -4.699999999999999 5 0  -4.800000000000001 5 0  -4.9 5 0  -5 4.9 0  -5 4.8 0  -5 4.7 0  -5 4.6 0  -5 4.5 0  -5 4.4 0  -5 4.3 0  -5 4.2 0  -5 4.1 0  -5 4 0  -5 3.9 0  -5 3.8 0  -5 3.7 0  -5 3.6 0  -5 3.5 0  -5 3.4 0  -5 3.3 0  -5 3.2 0  -5 3.1 0  -5 3 0  -5 2.9 0  -5 2.8 0  -5 2.7 0  -5 2.6 0  -5 2.5 0  -5 2.4 0  -5 2.3 0  -5 2.2 0  -5 2.1 0  -5 2 0  -5 1.9 0  -5 1.8 0  -5 1.7 0  -5 1.6 0  -5 1.5 0  -5 1.4 0  -5 1.3 0  -5 1.2 0  -5 1.1 0  -5 1 0  -5 0.9000000000000004 0  -5 0.7999999999999998 0  -5 0.7000000000000002 0  -5 0.5999999999999996 0  -5 0.5 0  -5 0.4000000000000004 0  -5 0.2999999999999998 0  -5 0.2000000000000002 0  -5 0.09999999999999964 0  -5 0 0  -5 -0.09999999999999964 0  -5 -0.2000000000000002 0  -5 -0.2999999999999998 0  -5 -0.4000000000000004 0  -5 -0.5 0  -5 -0.5999999999999996 0  -5 -0.7000000000000002 0  -5 -0.7999999999999998 0  -5 -0.9000000000000004 0  -5 -1 0  -5 -1.1 0  -5 -1.2 0  -5 -1.3 0  -5 -1.4 0  -5 -1.5 0  -5 -1.6 0  -5 -1.7 0  -5 -1.8 0  -5 -1.9 0  -5 -2 0  -5 -2.1 0  -5 -2.2 0  -5 -2.3 0  -5 -2.4 0  -5 -2.5 0  -5 -2.6 0  -5 -2.7 0  -5 -2.8 0  -5 -2.9 0  -5 -3 0  -5 -3.1 0  -5 -3.199999999999999 0  -5 -3.300000000000001 0  -5 -3.4 0  -5 -3.5 0  -5 -3.6 0  -5 -3.699999999999999 0  -5 -3.800000000000001 0  -5 -3.9 0  -5 -4 0  -5 -4.1 0  -5 -4.199999999999999 0  -5 -4.300000000000001 0  -5 -4.4 0  -5 -4.5 0  -5 -4.6 0  -5 -4.699999999999999 0  -5 -4.800000000000001 0  -5 -4.9 0  1.24947147817299 0.094996808855091 0  1.227906967783853 0.1925240431250923 0  1.194510404570984 0.2890226963445137 0  1.151678669279272 0.3778369040114915 0  1.093904782983351 0.4686287046956147 0  1.028268834197246 0.552985418732669 0  0.9500815896772439 0.63291780505824 0  0.863432354500309 0.7074598884757397 0  0.7716901525859232 0.7728818319284986 0  0.6693653080153495 0.8302492730376069 0  0.5577937814110288 0.8825325500856155 0  0.4454191224286349 0.9268249882537595 0  0.3329279498016121 0.9590933704370088 0  0.2086705410208381 0.9806614248841404 0  0.0890524867900562 0.9995163739481585 0  -0.02716412034079397 1.002788974638778 0  -0.1448953220755409 0.9891261443244658 0  -0.2717646338403839 0.9702570423099889 0  -0.3909120850030501 0.9459634296611804 0  -0.5016554177256133 0.9098881829497421 0  -0.6109027997548028 0.8634386788446329 0  -0.7130682521660251 0.8088447632567469 0  -0.8077014288909269 0.7440106703533479 0  -0.8985484522793314 0.6706666834606457 0  -0.9838809814377051 0.5910290960423152 0  -1.057953688359253 0.5099414797398845 0  -1.119679695733752 0.4245014445410688 0  -1.172655552714033 0.3323248543784862 0  -1.210628794107837 0.2427912939297849 0  -1.235119137496758 0.148543488954264 0  -1.24630508731586 0.05146486732684567 0  -1.246256025608742 -0.04936640546876735 0  -1.235089264655367 -0.1456867936678926 0  -1.210303461276667 -0.2383468209012819 0  -1.16912371849696 -0.3331475395138568 0  -1.120014147625666 -0.4248178511760456 0  -1.059595522213623 -0.5097556616169924 0  -0.9862882488153613 -0.590002801316361 0  -0.9015851180827907 -0.6685062526870152 0  -0.8112031429308455 -0.7400904431931015 0  -0.7152543856795357 -0.8011114954339262 0  -0.6106192197779756 -0.854212230655334 0  -0.4970819875789995 -0.9036657644977614 0  -0.3842419304035668 -0.9433929465934526 0  -0.2684881910076828 -0.9699143868502536 0  -0.1434432900645345 -0.9889044726758472 0  -0.02792584825572945 -1.001992934519379 0  0.08847869357528795 -0.9948001079418138 0  0.2139616253738679 -0.9773367406748278 0  0.335436940774916 -0.9575195330823327 0  0.4495570483415619 -0.9255000015121808 0  0.5601628887473206 -0.8817250308725174 0  0.6703048041798627 -0.8303126698533402 0  0.7716526500028968 -0.7740029546132595 0  0.8635262412349374 -0.7084740148572636 0  0.9492293754446125 -0.6330086246879401 0  1.025661162092574 -0.5520088420961669 0  1.094593844445657 -0.4675518624688352 0  1.152530381064719 -0.3781401320674601 0  1.196260901977466 -0.2870198071690065 0  1.228569812815878 -0.1916571358457042 0  1.249806211073104 -0.0947447632774291 0  -2.448559830199346 4.918111215471754 0  -2.448433863655419 -4.910489276926174 0  4.910413507533316 2.447890092504671 0  4.918540561213103 -2.449352046768265 0  2.44616326853524 -4.895719964585041 0  2.440596888027053 4.899482870863767 0  -4.910440555232824 -2.447916492803793 0  -4.910437834645143 2.447920417566734 0  -1.748513853600788 4.910997959740951 0  -1.744300581281513 -4.914439689456223 0  4.920588076928046 1.744065342478997 0  4.909115379246725 -1.74782575891525 0  -4.909409701232922 -1.747560074570198 0  -4.910232376026827 1.747305007566357 0  1.745786567712143 4.904853137995729 0  1.747199296111023 -4.892995308465402 0  -1.148825149812975 4.908777937130495 0  -1.129683237666912 -4.916696917982358 0  -4.909116996756919 -1.147889593929931 0  -4.908935170518406 1.147690012680493 0  1.143820813952146 -4.912879302354442 0  1.148835112832626 4.908764543954092 0  4.909256617379549 1.146164805580114 0  4.920097226333189 -1.151951211851878 0  -0.54666038912169 -4.909964644418608 0  -0.5464438558923994 4.918655152006587 0  -4.907841229162605 -0.5486872526563208 0  -4.907865190253196 0.5472450610725041 0  4.907159325144222 -0.5490053198748454 0  4.918828241912281 0.5457654520824482 0  0.5424418850020716 -4.896832787199485 0  0.5511723108595622 4.915475538511294 0  -4.911871882167566 -3.048275593988738 0  4.918444334216447 3.046292946637589 0  4.911379466841649 -3.048251064755598 0  -4.912719818287536 3.045367329927342 0  3.055286197779502 -4.917367135190052 0  -3.04861595639745 -4.911301568617873 0  3.052183560169885 4.913379799829974 0  -3.048061696625132 4.912191565495719 0  -4.906946210583937 -0.04990564769561195 0  0.0451192612240844 -4.911914295556358 0  0.04956683036396427 4.918946896196934 0  4.914008452135052 -0.0512878713357933 0  3.545607793224233 -4.919015916905689 0  -3.548887285854065 4.
[...]
<PointData  Vectors="f_4742"> 
<DataArray  type="Float64"  Name="f_4742"  NumberOfComponents="3" format="ascii">2.6559658580600291e-76 2.6559658580600291e-76 0.0000000000000000e+00  -2.8445085011138821e-76 2.8445085011138821e-76 0.0000000000000000e+00  -8.5659604779172187e-78 -8.5659604779172187e-78 0.0000000000000000e+00  3.0308186857311711e-76 -3.0308186857311711e-76 0.0000000000000000e+00  7.5518384319171938e-01 1.3220685284675054e-02 0.0000000000000000e+00  4.1659400001632770e-75 6.6062255194018083e-75 0.0000000000000000e+00  2.0823736023611156e-75 2.0879978300780432e-74 0.0000000000000000e+00  -3.4059025639083627e-75 6.7716015473368996e-75 0.0000000000000000e+00  4.0003523686431073e-72 6.6679427913554357e-72 0.0000000000000000e+00  5.3172366204971365e-71 1.3457970253884925e-70 0.0000000000000000e+00  -7.9205576806171776e-72 4.5552860261636201e-71 0.0000000000000000e+00  3.2346514061585334e-69 6.1621367550982036e-69 0.0000000000000000e+00  5.1620210608689330e-68 9.3984752557480362e-68 0.0000000000000000e+00  -3.0652192479714855e-68 1.5000848952577234e-67 0.0000000000000000e+00  1.2769658723278977e-67 3.9815961627289093e-67 0.0000000000000000e+00  1.2633907424426243e-68 8.7790569415674406e-67 0.0000000000000000e+00  5.4527377891531733e-64 8.8225450618318173e-64 0.0000000000000000e+00  4.7446816919035163e-65 2.4418629104972508e-63 0.0000000000000000e+00  1.3494655806630264e-62 2.1988797886515146e-62 0.0000000000000000e+00  8.0678150213054783e-63 8.3180447168761320e-62 0.0000000000000000e+00  6.9330021939273815e-61 1.1022307285742054e-60 0.0000000000000000e+00  4.0633222389273778e-60 7.0063293294542743e-60 0.0000000000000000e+00  -2.8477057558488947e-60 7.6992624673430004e-60 0.0000000000000000e+00  5.6636140509584744e-59 1.1367538802125108e-58 0.0000000000000000e+00  -1.7592598337078280e-59 1.1646539600177691e-58 0.0000000000000000e+00  -3.0040304093414557e-59 6.8386574447924693e-59 0.0000000000000000e+00  1.8026484825880393e-58 3.3041295399613184e-58 0.0000000000000000e+00  7.3002226554083934e-58 2.0893889287656014e-57 0.0000000000000000e+00  2.8611167512046094e-57 6.2327505849219515e-57 0.0000000000000000e+00  -3.4078744758004770e-57 5.7382361929086777e-57 0.0000000000000000e+00  -3.5230334289106083e-58 1.0978118740550475e-57 0.0000000000000000e+00  1.9088993176018557e-56 2.9318753384560314e-56 0.0000000000000000e+00  -1.4137555277575065e-56 3.5309556469068842e-56 0.0000000000000000e+00  1.1915287372208298e-56 2.8933631064694896e-56 0.0000000000000000e+00  8.7389870459641344e-56 2.0975038245695185e-55 0.0000000000000000e+00  -2.5111873800842497e-56 5.7434209125056332e-55 0.0000000000000000e+00  5.2110286941639069e-57 8.6120875799082857e-57 0.0000000000000000e+00  5.5453859431217551e-56 1.3816442302144739e-55 0.0000000000000000e+00  1.5491285422392478e-55 6.1693642375771599e-55 0.0000000000000000e+00  -2.2365798569247090e-55 3.5165546828882096e-55 0.0000000000000000e+00  9.8375783122082544e-55 1.7228135072786696e-54 0.0000000000000000e+00  -4.4210725466621590e-55 4.3614988823745846e-54 0.0000000000000000e+00  -2.2830002130017432e-55 2.6820267365718918e-54 0.0000000000000000e+00  -9.6195032271351104e-56 9.4397488907035061e-55 0.0000000000000000e+00  -1.1312702848557769e-55 1.8222597899586674e-55 0.0000000000000000e+00  2.7603720651251818e-54 5.2330212817499606e-54 0.0000000000000000e+00  -2.1602521895572015e-54 4.1392638683999181e-54 0.0000000000000000e+00  -7.1933933788282696e-55 8.0815456508107438e-55 0.0000000000000000e+00  -1.3207181674146350e-55 2.7132645314103447e-55 0.0000000000000000e+00  9.3049133057320059e-55 1.4450456534768772e-54 0.0000000000000000e+00  9.4567976601586842e-55 6.1543232607037556e-54 0.0000000000000000e+00  -1.1287563165226010e-54 5.8988328668497775e-54 0.0000000000000000e+00  5.1480373943470087e-55 4.6479865571533368e-54 0.0000000000000000e+00  1.9086909913098765e-56 5.7928983062767773e-54 0.0000000000000000e+00  3.0181534867807060e-55 6.1510555225662636e-54 0.0000000000000000e+00  -1.2619085727850030e-54 2.0441268628217087e-54 0.0000000000000000e+00  -6.4566949555921453e-55 1.4723004664077476e-53 0.0000000000000000e+00  4.4647791306573183e-54 7.4693957593735373e-54 0.0000000000000000e+00  -4.3483152686017272e-54 8.0954902654741659e-54 0.0000000000000000e+00  1.9223820511949424e-54 3.9570797113307485e-54 0.0000000000000000e+00  -7.3634776025778739e-55 9.4985331684214562e-54 0.0000000000000000e+00  1.3315612542028452e-54 9.3289189791247930e-54 0.0000000000000000e+00  -1.6854244804576923e-54 4.3961066235265282e-54 0.0000000000000000e+00  -9.2534316169191872e-55 2.4045221804133382e-54 0.0000000000000000e+00  3.3327047835043610e-55 1.2996831183443831e-54 0.0000000000000000e+00  2.6581667474227507e-55 2.5376565228905265e-54 0.0000000000000000e+00  -7.8322271930971548e-56 3.4897818697477331e-54 0.0000000000000000e+00  -7.1155931326312162e-55 1.4812567139548374e-54 0.0000000000000000e+00  2.3788301391356549e-55 4.4269081153781614e-55 0.0000000000000000e+00  -2.3106053110318322e-55 6.0224670911353601e-55 0.0000000000000000e+00  5.0357339597465509e-56 2.3982279094489411e-55 0.0000000000000000e+00  1.8672511311356257e-55 9.5249281663498412e-55 0.0000000000000000e+00  -3.3049324223827879e-55 5.3001616484983957e-55 0.0000000000000000e+00  -1.5914314547335709e-56 4.8211608712976846e-56 0.0000000000000000e+00  -1.1352967192715174e-57 1.1332226142118264e-56 0.0000000000000000e+00  6.7562276992100875e-57 2.3555188899962901e-56 0.0000000000000000e+00  -8.9956662522855936e-57 1.5014217984807817e-56 0.0000000000000000e+00  1.7423581053849575e-57 2.8882559131624710e-57 0.0000000000000000e+00  -1.2445854436559930e-57 2.7234194454979115e-57 0.0000000000000000e+00  5.1775714307167004e-57 7.8127508176864499e-57 0.0000000000000000e+00  -4.5338664821033913e-57 1.1247340274185340e-56 0.0000000000000000e+00  -1.8140228110241793e-58 9.3936230835915793e-58 0.0000000000000000e+00  -2.3923771402789275e-58 4.6506300247667828e-58 0.0000000000000000e+00  -7.8782507324845240e-61 8.8102773811958942e-59 0.0000000000000000e+00  -2.4459103753308849e-59 6.4209925120097824e-59 0.0000000000000000e+00  -7.1154021073032953e-60 2.4992324799497331e-59 0.0000000000000000e+00  -4.3844739652725959e-60 2.2383686510122883e-59 0.0000000000000000e+00  -3.0624777213240468e-60 7.1661126933586382e-60 0.0000000000000000e+00  -8.5223299419759901e-62 4.4346662026502551e-61 0.0000000000000000e+00  -1.0756939234170800e-61 2.2334549012707075e-61 0.0000000000000000e+00  -3.5866365634104106e-62 5.6726025235779247e-62 0.0000000000000000e+00  -3.9092500520683530e-64 6.6960485038611170e-64 0.0000000000000000e+00  -2.4307953263878593e-65 5.1698406497798656e-65 0.0000000000000000e+00  3.7075671785093440e-66 1.0388112021654466e-65 0.0000000000000000e+00  -4.8415872253961283e-66 9.2602316224269876e-66 0.0000000000000000e+00  -6.6987566983464799e-68 2.7709060839439521e-67 0.0000000000000000e+00  -7.8524598158998263e-68 1.2915946182904148e-67 0.0000000000000000e+00  -8.0601157685316750e-69 1.1730593475402535e-68 0.0000000000000000e+00  -5.6328986647790395e-70 9.5194321772783076e-70 0.0000000000000000e+00  -3.7792250021024364e-71 6.8181772519964855e-71 0.0000000000000000e+00  -1.8783546917537628e-72 3.2025332629837803e-72 0.0000000000000000e+00  -1.2177175073262175e-73 2.7266756074284048e-73 0.0000000000000000e+00  -4.4210536615445166e-75 1.2911390189617701e-74 0.0000000000000000e+00  -2.5480966239893640e-75 4.2411655507931192e-75 0.0000000000000000e+00  -9.7688422989920028e-76 3.5583674789548344e-76 0.0000000000000000e+00  -1.6211339243607368e-75 -2.3925087817412860e-76 0.0000000000000000e+00  -2.4488549602411739e-74 1.1591403306218555e-74 0.0000000000000000e+00  -3.6791246757723933e-74 1.5504798566382404e-75 0.0000000000000000e+00  -3.8829253297666877e-73 1.4335977079117106e-73 0.0000000000000000e+00  -1.0236630836563272e-71 6.2392543124821528e-72 0.0000000000000000e+00  -6.7400773127440141e-71 3.7090633430463655e-71 0.0000000000000000e+00  -1.0610302664004135e-70 3.9040801892739717e-72 0.0000000000000000e+00  -8.8996912061752883e-70 3.3098495550193157e-70 0.0000000000000000e+00  -2.1282318238406701e-68 1.2869246402514533e-68 0.0000000000000000e+00  -1.0235628275062969e-67 5.1123945354581180e-68 0.0000000000000000e+00  -1.0137953894856611e-67 -6.0291003719720287e-68 0.0000000000000000e+00  -3.1650663654142523e-66 1.7469755812162460e-66 0.0000000000000000e+00  -3.1844112734534977e-65 1.8328075787596856e-65 0.0000000000000000e+00  -5.3856717347398100e-65 5.0491518777787363e-66 0.0000000000000000e+00  -4.4359388701302196e-64 1.4474011612058954e-64 0.0000000000000000e+00  -6.9908691789793550e-63 4.3621147346224136e-63 0.0000000000000000e+00  -1.5062483633900280e-62 3.7513703450936596e-63 0.0000000000000000e+00  -8.4323506633282056e-62 1.9679197105361151e-62 0.0000000000000000e+00  -1.3544394270586180e-60 8.5251378242664561e-61 0.0000000000000000e+00  -2.4167030350171450e-60 3.3849436411123635e-61 0.0000000000000000e+00  -2.1165329959936558e-59 7.4040306572183072e-60 0.0000000000000000e+00  -2.4161335884847569e-58 1.4958880213843263e-58 0.0000000000000000e+00  -2.5881805460298612e-58 -9.4268390525830812e-59 0.0000000000000000e+00  -5.9763928043341263e-57 2.7841759546428361e-57 0.0000000000000000e+00  -2.4827715363804671e-56 1.2402683659804426e-56 0.0000000000000000e+00  -5.5639155212050182e-56 -8.6937843394000549e-57 0.0000000000000000e+00  -1.0109186221858459e-54 6.4855031913539888e-55 0.0000000000000000e+00  -1.1207885797821484e-54 -3.4669638611328848e-55 0.0000000000000000e+00  -2.4073069966684344e-53 1.2703621461931892e-53 0.0000000000000000e+00  -6.5917458013429356e-53 2.9913907122562578e-53 0.0000000000000000e+00  -4.3559638392042513e-52 1.2252413044284618e-52 0.0000000000000000e+00  -2.6651480006607470e-51 1.6641523153875690e-51 0.0000000000000000e+00  -7.6658920514310412e-51 -2.1447672720562668e-52 0.0000000000000000e+00  -7.1952835131160834e-50 4.5996098057419414e-50 0.0000000000000000e+00  -1.6172340535613332e-49 -1.4787053690373083e-50 0.0000000000000000e+00  -1.7293050648867639e-48 1.0105509633087509e-48 0.0000000000000000e+00  -4.3411630024474501e-48 -2.0411778146909813e-49 0.0000000000000000e+00  -2.0135989353983560e-47 1.1101725232896187e-47 0.0000000000000000e+00  -1.1027250641271557e-46 1.8962899151558853e-47 0.0000000000000000e+00  -1.0247394934128166e-46 2.4607166745927137e-47 0.0000000000000000e+00  -1.2406930226347783e-45 5.2540638202370225e-46 0.0000000000000000e+00  -8.7372681065817666e-46 -5.6796114007941714e-46 0.0000000000000000e+00  -1.3431006274266900e-44 8.0714265082563140e-45 0.0000000000000000e+00  -5.7960061345493504e-44 1.3738601190905819e-44 0.0000000000000000e+00  -3.6152155192341023e-44 -1.7514174894495877e-44 0.0000000000000000e+00  -1.1426083664917053e-43 6.5006942603261353e-44 0.0000000000000000e+00  -8.4133320545806075e-43 2.3160406801250867e-43 0.0000000000000000e+00  -1.9291558830120281e-42 1.9754268076997330e-43 0.0000000000000000e+00  -2.5117473275590713e-42 6.1044072589505662e-44 0.0000000000000000e+00  -2.0145313719308845e-42 -1.9479055154811893e-43 0.0000000000000000e+00  -8.6140274133273644e-43 -2.5056502253527353e-43 0.0000000000000000e+00  -1.1325730060857885e-43 -6.4468947239537358e-44 0.0000000000000000e+00  -3.8711745029341292e-44 1.8503167650235259e-44 0.0000000000000000e+00  -6.3168373660702616e-44 -1.0822309766097047e-44 0.0000000000000000e+00  -1.4990657229633882e-44 -7.8673531670689813e-45 0.0000000000000000e+00  -9.9875345598854281e-46 5.6722140068840065e-46 0.0000000000000000e+00  -1.4040665237739144e-45 -5.3861879421270369e-46 0.0000000000000000e+00  -1.1208942539660072e-46 -2.8552898838633075e-47 0.0000000000000000e+00  -1.0181912519038432e-46 -2.1419949066575705e-47 0.0000000000000000e+00  -1.8612755092975390e-47 -1.1971453169000366e-47 0.0000000000000000e+00  -4.0855838737905882e-48 2.0325084906516919e-49 0.0000000000000000e+00  -1.4870536197390308e-48 -9.3571503969542816e-49 0.0000000000000000e+00  -1.6331191942409754e-49 2.4546659860640893e-50 0.0000000000000000e+00  -7.4591489549850944e-50 -4.4188907609026968e-50 0.0000000000000000e+00  -8.2460514441346860e-51 6.4048382268802259e-52 0.0000000000000000e+00  -3.1460477399145514e-51 -1.7827047063821041e-51 0.0000000000000000e+00  -5.1032659861108443e-52 -1.1459929230340335e-52 0.0000000000000000e+00  -8.2071540470440770e-53 -3.5451334143068967e-53 0.0000000000000000e+00  -2.6623087993616806e-53 -1.3149682254731682e-53 0.0000000000000000e+00  -1.1970906531705550e-54 3.2376822436579989e-55 0.0000000000000000e+00  -1.0639109468921596e-54 -6.8014625583509136e-55 0.0000000000000000e+00  -5.1521399648147062e-56 8.3460244240075401e-57 0.0000000000000000e+00  -2.3369668088479350e-56 -1.3231639629900707e-56 0.0000000000000000e+00  -4.8245703624590046e-57 -2.5200698568551546e-57 0.0000000000000000e+00  -2.4584596147823868e-58 8.5420264364426665e-59 0.0000000000000000e+00  -2.1586425349876700e-58 -1.3279204149807358e-58 0.0000000000000000e+00  -1.9912182704976893e-59 -6.1434255852519214e-60 0.0000000000000000e+00  -2.3750032577100705e-60 -3.3944433057438840e-61 0.0000000000000000e+00  -1.2910334047733953e-60 -7.6053834382279015e-61 0.0000000000000000e+00  -7.6912405844683340e-62 -2.1429714319672899e-62 0.0000000000000000e+00  -1.3594431340856896e-62 -2.9293309926914011e-63 0.0000000000000000e+00  -6.6399542476368232e-63 -3.7871195562632295e-63 0.0000000000000000e+00  -4.7834045750256354e-64 -1.8190802845965105e-64 0.0000000000000000e+00  -4.3638426749006071e-65 9.5779674468393851e-67 0.0000000000000000e+00  -2.9484178428676776e-65 -1.6616807542004529e-65 0.0000000000000000e+00  -3.4135150611950515e-66 -1.9882896020013536e-66 0.0000000000000000e+00  -8.9946695483581110e-68 5.4796099408417570e-68 0.0000000000000000e+00  -8.6370960380613890e-68 -4.1768248146504379e-68 0.0000000000000000e+00  -2.0683309499279691e-68 -1.2847892837936910e-68 0.0000000000000000e+00  -1.1326907006502269e-69 -5.1329643062732616e-70 0.0000000000000000e+00  -8.7942885106948263e-71 1.3787748050125679e-71 0.0000000000000000e+00  -6.9084688918305457e-71 -3.6568437157359169e-71 0.0000000000000000e+00  -1.2479564052726230e-71 -7.6616999378256111e-72 0.0000000000000000e+00  -5.9820783501023715e-73 -2.7509330946125062e-73 0.0000000000000000e+00  -3.9237183677192268e-74 7.4231484974734192e-75 0.0000000000000000e+00  -3.1565914755163464e-74 -1.4789705340022930e-74 0.0000000000000000e+00  -6.5906914674438177e-75 -3.3570260682487689e-75 0.0000000000000000e+00  -7.1799159368991383e-76 -3.1071388224969212e-76 0.0000000000000000e+00  -8.5518774739361235e-76 -1.6228512676347248e-75 0.0000000000000000e+00  -4.7735178512116787e-75 -1.3945950702951046e-74 0.0000000000000000e+00  4.3669371743206809e-75 -8.3087207839472191e-75 0.0000000000000000e+00  -1.6293849932150487e-73 -3.4272547290064169e-73 0.0000000000000000e+00  -9.2852610033092475e-71 -1.0069754899080408e-70 0.0000000000000000e+00  -7.5064036452088403e-70 -1.3177336223263309e-69 0.0000000000000000e+00  -1.0984363882610614e-69 -3.6512636411407234e-69 0.0000000000000000e+00  -7.7610192770814844e-68 -1.7114277167454739e-67 0.0000000000000000e+00  -6.5310417559009851e-68 -3.2599613016530441e-67 0.0000000000000000e+00  -6.7898314239027548e-66 -1.3500746570979893e-65 0.0000000000000000e+00  -4.5198601861465107e-66 -2.1316369548393359e-65 0.0000000000000000e+00  -9.0696685589116395e-65 -1.5575644090749036e-64 0.0000000000000000e+00  1.7220152815245334e-65 -2.1035648382867230e-64 0.0000000000000000e+00  -4.2758285774744968e-62 -6.4024095196536590e-62 0.0000000000000000e+00  -6.9989512857206550e-62 -1.7206910898620742e-61 0.0000000000000000e+00  -2.3261521547105901e-62 -2.7286271224796008e-61 0.0000000000000000e+00  -5.7407341824022677e-60 -1.1362340007797508e-59 0.0000000000000000e+00  4.7685046613100995e-60 -1.5020664062727463e-59 0.0000000000000000e+00  -2.9013479783182308e-59 -4.7487133208458132e-59 0.0000000000000000e+00  8.8229898603851566e-60 -6.0861983142926090e-59 0.0000000000000000e+00  2.3260178998148431e-59 -3.9721560622718736e-59 0.0000000000000000e+00  -5.6394028762179694e-58 -8.9468956968341526e-58 0.0000000000000000e+00  -1.3806738643846512e-59 -1.2602368820982993e-57 0.0000000000000000e+00  -4.6353120983841331e-57 -1.1637109155531076e-56 0.0000000000000000e+00  5.7517511293149168e-57 -8.6750531728759760e-57 0.0000000000000000e+00  -5.3361587975421067e-57 -7.3373374902410419e-57 0.0000000000000000e+00  -1.7679744136808946e-56 -3.7731483192546157e-56 0.0000000000000000e+00  2.1629976884008060e-56 -4.0715150059272855e-56 0.0000000000000000e+00  -5.0054049050455938e-57 -9.1999269640227486e-57 0.0000000000000000e+00  -8.1231521274003084e-56 -2.0308979514164560e-55 0.0000000000000000e+00  6.3785716258370345e-56 -5.0770527075508689e-55 0.0000000000000000e+00  -4.2928261645650317e-55 -7.2572782813609416e-55 0.0000000000000000e+00  -4.8825824139483461e-56 -1.8357333759885733e-54 0.0000000000000000e+00  1.6616892040936086e-55 -5.7399859872809552e-55 0.0000000000000000e+00  -5.1867476186842582e-55 -1.6758964798968749e-54 0.0000000000000000e+00  -2.2557364512719159e-54 -7.0715048568774040e-54 0.0000000000000000e+00  2.5848528470555445e-54 -6.0769272167783735e-54 0.0000000000000000e+00  -6.7269813051318117e-55 -2.3896544674599106e-54 0.0000000000000000e+00  5.3309284639677282e-55 -2.8191195086290217e-54 0.0000000000000000e+00  1.2838162737888185e-55 -1.4247976164868842e-54 0.0000000000000000e+00  -2.1827200808338552e-54 -3.4665599784732754e-54 0.0000000000000000e+00  5.7194970932039137e-55 -8.2270197671572035e-54 0.0000000000000000e+00  -3.9351043474447087e-54 -1.3557617436522482e-53 0.0000000000000000e+00  4.6980214884017000e-54 -7.7147262378000550e-54 0.0000000000000000e+00  2.0342152992985129e-55 -6.5060664387777182e-55 0.0000000000000000e+00  -4.8072637756465000e-54 -8.0088255271228724e-54 0.0000000000000000e+00  4.8331955065325947e-54 -7.8696887607501635e-54 0.0000000000000000e+00  -1.6640821132039316e-56 -1.3349878970329534e-55 0.0000000000000000e+00  1.1168382194330093e-56 -2.7680329497953261e-55 0.0000000000000000e+00  2.2098353182774821e-56 -9.8796581029407898e-56 0.0000000000000000e+00  -5.2115290494140316e-54 -9.3537422480084425e-54 0.0000000000000000e+00  5.5585363617299149e-54 -9.4077588084200333e-54 0.0000000000000000e+00  5.6829050656173495e-56 -1.0518618710391332e-55 0.0000000000000000e+00  -1.4349814491423917e-56 -6.2047651598313988e-56 0.0000000000000000e+00  -5.0063415417539705e-55 -9.0466111905789470e-55 0.0000000000000000e+00  -5.8229276492839182e-54 -1.0046028811617991e-53 0.0000000000000000e+00  4.5100277323663809e-54 -1.0491634326219153e-53 0.0000000000000000e+00  -3.0567620498227419e-54 -7.9854761696192437e-54 0.0000000000000000e+00  2.4422788557028930e-54 -8.5497650924039568e-54 0.0000000000000000e+00  2.2495113086577798e-54 -3.3061080138191898e-54 0.0000000000000000e+00  -5.4443942503448132e-55 -1.4798747694716477e-54 0.0000000000000000e+00  8.3678651624366577e-55 -1.5738009012301957e-54 0.0000000000000000e+00  -4.9300327339798869e-55 -9.8326818399260653e-55 0.0000000000000000e+00  5.1314562286444867e-55 -8.8547037079609810e-55 0.0000000000000000e+00  -1.5685605251416580e-56 -2.6921552630264939e-56 0.0000000000000000e+00  -4.4823388323994549e-56 -1.7218534338174281e-55 0.0000000000000000e+00  4.1770233297117805e-56 -1.7467529015415391e-55 0.0000000000000000e+00  4.8067090664807585e-57 -6.9029860084899173e-56 0.0000000000000000e+00  -2.7514547591386481e-56 -6.5429548595578453e-56 0.0000000000000000e+00  3.2911017836151326e-56 -6.4133629529086447e-56 0.0000000000000000e+00  -2.8612734367223657e-57 -2.8733822880871257e-56 0.0000000000000000e+00  1.2970631980001748e-56 -3.0018905726027834e-56 0.0000000000000000e+00  1.0031801759372674e-57 -2.3989505937237471e-57 0.0000000000000000e+00  -4.3858519630431656e-57 -7.6396591439832831e-57 0.0000000000000000e+00  4.2525902950075618e-57 -1.1006363344860874e-56 0.0000000000000000e+00  3.1265157551157922e-58 -1.0212569313489776e-57 0.0000000000000000e+00  1.4387922614224722e-58 -5.025958