<?xml version="1.0"?>
<VTKFile type="UnstructuredGrid"  version="0.1"  >
<UnstructuredGrid>
<Piece  NumberOfPoints="11902" NumberOfCells="23402">
<Points>
<DataArray  type="Float64"  NumberOfComponents="3"  format="ascii">-5 -5 0  5 -5 0  5 5 0  -5 5 0  1.056754949579072 0.0003719919873188072 0  -4.9 -5 0  -4.8 -5 0  -4.7 -5 0  -4.6 -5 0  -4.5 -5 0  -4.4 -5 0  -4.3 -5 0  -4.2 -5 0  -4.1 -5 0  -4 -5 0  -3.9 -5 0  -3.8 -5 0  -3.7 -5 0  -3.6 -5 0  -3.5 -5 0  -3.4 -5 0  -3.3 -5 0  -3.2 -5 0  -3.1 -5 0  -3 -5 0  -2.9 -5 0  -2.8 -5 0  -2.7 -5 0  -2.6 -5 0  -2.5 -5 0  -2.4 -5 0  -2.3 -5 0  -2.2 -5 0  -2.1 -5 0  -2 -5 0  -1.9 -5 0  -1.8 -5 0  -1.7 -5 0  -1.6 -5 0  -1.5 -5 0  -1.4 -5 0  -1.3 -5 0  -1.2 -5 0  -1.1 -5 0  -1 -5 0  -0.9000000000000004 -5 0  -0.7999999999999998 -5 0  -0.7000000000000002 -5 0  -0.5999999999999996 -5 0  -0.5 -5 0  -0.4000000000000004 -5 0  -0.2999999999999998 -5 0  -0.2000000000000002 -5 0  -0.09999999999999964 -5 0  0 -5 0  0.09999999999999964 -5 0  0.2000000000000002 -5 0  0.2999999999999998 -5 0  0.4000000000000004 -5 0  0.5 -5 0  0.5999999999999996 -5 0  0.7000000000000002 -5 0  0.7999999999999998 -5 0  0.9000000000000004 -5 0  1 -5 0  1.1 -5 0  1.2 -5 0  1.3 -5 0  1.4 -5 0  1.5 -5 0  1.6 -5 0  1.7 -5 0  1.8 -5 0  1.9 -5 0  2 -5 0  2.1 -5 0  2.2 -5 0  2.3 -5 0  2.4 -5 0  2.5 -5 0  2.6 -5 0  2.7 -5 0  2.8 -5 0  2.9 -5 0  3 -5 0  3.1 -5 0  3.199999999999999 -5 0  3.300000000000001 -5 0  3.4 -5 0  3.5 -5 0  3.6 -5 0  3.699999999999999 -5 0  3.800000000000001 -5 0  3.9 -5 0  4 -5 0  4.1 -5 0  4.199999999999999 -5 0  4.300000000000001 -5 0  4.4 -5 0  4.5 -5 0  4.6 -5 0  4.699999999999999 -5 0  4.800000000000001 -5 0  4.9 -5 0  5 -4.9 0  5 -4.8 0  5 -4.7 0  5 -4.6 0  5 -4.5 0  5 -4.4 0  5 -4.3 0  5 -4.2 0  5 -4.1 0  5 -4 0  5 -3.9 0  5 -3.8 0  5 -3.7 0  5 -3.6 0  5 -3.5 0  5 -3.4 0  5 -3.3 0  5 -3.2 0  5 -3.1 0  5 -3 0  5 -2.9 0  5 -2.8 0  5 -2.7 0  5 -2.6 0  5 -2.5 0  5 -2.4 0  5 -2.3 0  5 -2.2 0  5 -2.1 0  5 -2 0  5 -1.9 0  5 -1.8 0  5 -1.7 0  5 -1.6 0  5 -1.5 0  5 -1.4 0  5 -1.3 0  5 -1.2 0  5 -1.1 0  5 -1 0  5 -0.9000000000000004 0  5 -0.7999999999999998 0  5 -0.7000000000000002 0  5 -0.5999999999999996 0  5 -0.5 0  5 -0.4000000000000004 0  5 -0.2999999999999998 0  5 -0.2000000000000002 0  5 -0.09999999999999964 0  5 0 0  5 0.09999999999999964 0  5 0.2000000000000002 0  5 0.2999999999999998 0  5 0.4000000000000004 0  5 0.5 0  5 0.5999999999999996 0  5 0.7000000000000002 0  5 0.7999999999999998 0  5 0.9000000000000004 0  5 1 0  5 1.1 0  5 1.2 0  5 1.3 0  5 1.4 0  5 1.5 0  5 1.6 0  5 1.7 0  5 1.8 0  5 1.9 0  5 2 0  5 2.1 0  5 2.2 0  5 2.3 0  5 2.4 0  5 2.5 0  5 2.6 0  5 2.7 0  5 2.8 0  5 2.9 0  5 3 0  5 3.1 0  5 3.199999999999999 0  5 3.300000000000001 0  5 3.4 0  5 3.5 0  5 3.6 0  5 3.699999999999999 0  5 3.800000000000001 0  5 3.9 0  5 4 0  5 4.1 0  5 4.199999999999999 0  5 4.300000000000001 0  5 4.4 0  5 4.5 0  5 4.6 0  5 4.699999999999999 0  5 4.800000000000001 0  5 4.9 0  4.9 5 0  4.8 5 0  4.7 5 0  4.6 5 0  4.5 5 0  4.4 5 0  4.3 5 0  4.2 5 0  4.1 5 0  4 5 0  3.9 5 0  3.8 5 0  3.7 5 0  3.6 5 0  3.5 5 0  3.4 5 0  3.3 5 0  3.2 5 0  3.1 5 0  3 5 0  2.9 5 0  2.8 5 0  2.7 5 0  2.6 5 0  2.5 5 0  2.4 5 0  2.3 5 0  2.2 5 0  2.1 5 0  2 5 0  1.9 5 0  1.8 5 0  1.7 5 0  1.6 5 0  1.5 5 0  1.4 5 0  1.3 5 0  1.2 5 0  1.1 5 0  1 5 0  0.9000000000000004 5 0  0.7999999999999998 5 0  0.7000000000000002 5 0  0.5999999999999996 5 0  0.5 5 0  0.4000000000000004 5 0  0.2999999999999998 5 0  0.2000000000000002 5 0  0.09999999999999964 5 0  0 5 0  -0.09999999999999964 5 0  -0.2000000000000002 5 0  -0.2999999999999998 5 0  -0.4000000000000004 5 0  -0.5 5 0  -0.5999999999999996 5 0  -0.7000000000000002 5 0  -0.7999999999999998 5 0  -0.9000000000000004 5 0  -1 5 0  -1.1 5 0  -1.2 5 0  -1.3 5 0  -1.4 5 0  -1.5 5 0  -1.6 5 0  -1.7 5 0  -1.8 5 0  -1.9 5 0  -2 5 0  -2.1 5 0  -2.2 5 0  -2.3 5 0  -2.4 5 0  -2.5 5 0  -2.6 5 0  -2.7 5 0  -2.8 5 0  -2.9 5 0  -3 5 0  -3.1 5 0  -3.199999999999999 5 0  -3.300000000000001 5 0  -3.4 5 0  -3.5 5 0  -3.6 5 0  -3.699999999999999 5 0  -3.800000000000001 5 0  -3.9 5 0  -4 5 0  -4.1 5 0  -4.199999999999999 5 0  -4.300000000000001 5 0  -4.4 5 0  -4.5 5 0  -4.6 5 0  -4.699999999999999 5 0  -4.800000000000001 5 0  -4.9 5 0  -5 4.9 0  -5 4.8 0  -5 4.7 0  -5 4.6 0  -5 4.5 0  -5 4.4 0  -5 4.3 0  -5 4.2 0  -5 4.1 0  -5 4 0  -5 3.9 0  -5 3.8 0  -5 3.7 0  -5 3.6 0  -5 3.5 0  -5 3.4 0  -5 3.3 0  -5 3.2 0  -5 3.1 0  -5 3 0  -5 2.9 0  -5 2.8 0  -5 2.7 0  -5 2.6 0  -5 2.5 0  -5 2.4 0  -5 2.3 0  -5 2.2 0  -5 2.1 0  -5 2 0  -5 1.9 0  -5 1.8 0  -5 1.7 0  -5 1.6 0  -5 1.5 0  -5 1.4 0  -5 1.3 0  -5 1.2 0  -5 1.1 0  -5 1 0  -5 0.9000000000000004 0  -5 0.7999999999999998 0  -5 0.7000000000000002 0  -5 0.5999999999999996 0  -5 0.5 0  -5 0.4000000000000004 0  -5 0.2999999999999998 0  -5 0.2000000000000002 0  -5 0.09999999999999964 0  -5 0 0  -5 -0.09999999999999964 0  -5 -0.2000000000000002 0  -5 -0.2999999999999998 0  -5 -0.4000000000000004 0  -5 -0.5 0  -5 -0.5999999999999996 0  -5 -0.7000000000000002 0  -5 -0.7999999999999998 0  -5 -0.9000000000000004 0  -5 -1 0  -5 -1.1 0  -5 -1.2 0  -5 -1.3 0  -5 -1.4 0  -5 -1.5 0  -5 -1.6 0  -5 -1.7 0  -5 -1.8 0  -5 -1.9 0  -5 -2 0  -5 -2.1 0  -5 -2.2 0  -5 -2.3 0  -5 -2.4 0  -5 -2.5 0  -5 -2.6 0  -5 -2.7 0  -5 -2.8 0  -5 -2.9 0  -5 -3 0  -5 -3.1 0  -5 -3.199999999999999 0  -5 -3.300000000000001 0  -5 -3.4 0  -5 -3.5 0  -5 -3.6 0  -5 -3.699999999999999 0  -5 -3.800000000000001 0  -5 -3.9 0  -5 -4 0  -5 -4.1 0  -5 -4.199999999999999 0  -5 -4.300000000000001 0  -5 -4.4 0  -5 -4.5 0  -5 -4.6 0  -5 -4.699999999999999 0  -5 -4.800000000000001 0  -5 -4.9 0  1.051576136763864 0.1002384918512416 0  1.035786375691629 0.199426336158492 0  1.009318371768915 0.2968089933714131 0  0.973506215821814 0.3906711750156753 0  0.9278981381153124 0.4812772507968367 0  0.8732899931546203 0.5668869297078724 0  0.8097071191323038 0.6466498943283672 0  0.7376840684819888 0.7199089982948877 0  0.6587801134749161 0.7862354088892965 0  0.5733491009412804 0.8449065028196324 0  0.4819924868565851 0.8948765497714399 0  0.3857363135478653 0.9360527756093669 0  0.2862904687522633 0.9681656234399912 0  0.1835381467234548 0.9902479797968029 0  0.07932409372650585 1.002812864487995 0  -0.02587917377589996 1.005348575227086 0  -0.1308397848907276 0.9976687956571818 0  -0.2345275677690417 0.98053127580081 0  -0.3358384440734284 0.9535372223171411 0  -0.4337479910451665 0.9168523505870829 0  -0.5272623670346853 0.8713427610116695 0  -0.6156379056821004 0.8169618879763119 0  -0.6979132994122311 0.7545747576152031 0  -0.7732750561831319 0.6848002554791754 0  -0.8410503511690477 0.6077357229214335 0  -0.9002543422327529 0.5247528748117484 0  -0.9508781316582106 0.4368252313699514 0  -0.9917368351634778 0.3442873688221199 0  -1.022633665757034 0.2485271392452565 0  -1.04356929115863 0.150327841165134 0  -1.054162561879244 0.05044117239185218 0  -1.054176348789809 -0.0499837590650068 0  -1.043600293017734 -0.1498016118364293 0  -1.023334417219504 -0.247964908041914 0  -0.9917361299853287 -0.3439614002441879 0  -0.9509864211222432 -0.4362334077795315 0  -0.9004803861034882 -0.5242697983041715 0  -0.8413105721492553 -0.6071045581580116 0  -0.7735060182821737 -0.6838636506272899 0  -0.6979103865255479 -0.7535604098209571 0  -0.6153856286832482 -0.815660865061971 0  -0.5274387353857202 -0.8703197499960624 0  -0.4332516733779661 -0.9158076488742927 0  -0.3352940964933589 -0.9526763427823507 0  -0.2338473852170448 -0.9797944654055908 0  -0.1302775603326502 -0.9971447750971968 0  -0.02549258684478422 -1.005128345469668 0  0.07945726011097376 -1.002408068296368 0  0.1840111187024811 -0.9896742980967603 0  0.286463784868542 -0.9675228341929737 0  0.3865556771240803 -0.9354387580308314 0  0.4822493609228651 -0.8943029454521959 0  0.5735674991502923 -0.8443668853502475 0  0.6589337431090815 -0.7863486860314561 0  0.7378172065155908 -0.7200431547783326 0  0.809535841018085 -0.6464148734044592 0  0.8729798665597617 -0.5664450593734686 0  0.9280580838962872 -0.4809924186825944 0  0.9741042656499097 -0.3906882396911351 0  1.009809968180054 -0.2966053320644159 0  1.035822733354124 -0.1991924085597385 0  1.051610405265635 -0.1001377723139524 0  -2.449568111134675 4.919976297874913 0  -2.449531495318792 -4.912522951185403 0  4.912495081698796 2.449356159681475 0  4.920429529677896 -2.450685218872379 0  2.447440443714544 -4.898109252461484 0  2.441832524670579 4.901794217780663 0  -4.91250490700912 -2.449366494886394 0  -4.912507428892135 2.449370092796554 0  -1.749553868338646 4.913679210952686 0  -1.74529519808639 -4.917013139927124 0  4.923215060218966 1.745390623017117 0  4.912114617267086 -1.749345106879121 0  -4.912375786390586 -1.749056748449119 0  -4.913177323441364 1.748785782483354 0  1.746890811780495 4.90773447784427 0  1.748436325739747 -4.896229714698037 0  -1.149651635505964 4.912020611233658 0  -1.130425944881526 -4.919660777246245 0  -4.912826881540209 -1.14911995516848 0  -4.91265734005062 1.148918547963415 0  1.144593116510064 -4.91598208218784 0  1.149651716390488 4.912016861202599 0  4.912997351948811 1.147404688313901 0  4.923383421336156 -1.153048119772112 0  -0.547090338075735 -4.913482779457145 0  -0.5468321680913972 4.9218435553248 0  -4.91214857171506 -0.5493707799413385 0  -4.91217491985472 0.5479210286963748 0  4.911538714211013 -0.5497019190979419 0  4.922659432353355 0.5463686404282561 0  0.5429125806890781 -4.900874491443595 0  0.5515676577011451 4.918791492306478 0  -4.913265513907456 -3.049474882781766 0  4.919745239366963 3.047415290200142 0  4.91278896674046 -3.049469918969642 0  -4.914106923266336 3.046556996379334 0  3.056187011537092 -4.918735846757778 0  -3.049584151691086 -4.912764483970963 0  3.05313143931029 4.914818260297581 0  -3.049024230902557 4.91364335057369 0  -4.911477137981383 -0.0499738811908616 0  0.04514565426681929 -4.915458406991944 0  0.04959658143825188 4.922217076561748 0  4.918234133441517 -0.05135179373080127 0  3.546322455933887 -4.919975071313327 0  -3.5496645133666
[...]
<PointData  Vectors="f_582"> 
<DataArray  type="Float64"  Name="f_582"  NumberOfComponents="3" format="ascii">2.6559658580597370e-76 2.6559658580597370e-76 0.0000000000000000e+00  -2.8445085011135729e-76 2.8445085011135729e-76 0.0000000000000000e+00  -8.5659604778753409e-78 -8.5659604778753409e-78 0.0000000000000000e+00  3.0308186857302709e-76 -3.0308186857302709e-76 0.0000000000000000e+00  -8.7124237168722007e-01 -1.8468165776890876e-02 0.0000000000000000e+00  4.1630805914828151e-75 6.6087328600630070e-75 0.0000000000000000e+00  2.0851816820519417e-75 2.0877557395111103e-74 0.0000000000000000e+00  -3.3975897556417131e-75 6.7643645214544498e-75 0.0000000000000000e+00  3.9898481754539547e-72 6.6770798857133871e-72 0.0000000000000000e+00  5.3022106292940427e-71 1.3471112150784597e-70 0.0000000000000000e+00  -7.8829992941612710e-72 4.5520852424438183e-71 0.0000000000000000e+00  3.2183337155890457e-69 6.1759950925684038e-69 0.0000000000000000e+00  5.1313156415375501e-68 9.4242299448133088e-68 0.0000000000000000e+00  -3.0396777025099907e-68 1.4980163891667628e-67 0.0000000000000000e+00  1.2680442594007348e-67 3.9889718526244036e-67 0.0000000000000000e+00  1.2890687678844963e-68 8.7774838127395434e-67 0.0000000000000000e+00  5.4032019460081313e-64 8.8619199067300358e-64 0.0000000000000000e+00  4.7896657933421518e-65 2.4416797641860240e-63 0.0000000000000000e+00  1.3346714306159318e-62 2.2101747509603574e-62 0.0000000000000000e+00  8.0032093149208670e-63 8.3235695053232484e-62 0.0000000000000000e+00  6.8444595976852008e-61 1.1087070867540700e-60 0.0000000000000000e+00  4.0070438481850841e-60 7.0463759419887554e-60 0.0000000000000000e+00  -2.8048176994501140e-60 7.6697203752815892e-60 0.0000000000000000e+00  5.5770716883769208e-59 1.1426848225656673e-58 0.0000000000000000e+00  -1.7290671180690902e-59 1.1626955945361867e-58 0.0000000000000000e+00  -2.9493678111755651e-59 6.8042940698916180e-59 0.0000000000000000e+00  1.7688092191747919e-58 3.3250222331959569e-58 0.0000000000000000e+00  7.1626006586164021e-58 2.0978884399755419e-57 0.0000000000000000e+00  2.8013404311714341e-57 6.2671694866207127e-57 0.0000000000000000e+00  -3.3318032895719709e-57 5.6965964101399829e-57 0.0000000000000000e+00  -3.4407577180936842e-58 1.0934766173304946e-57 0.0000000000000000e+00  1.8632288540005762e-56 2.9554142897033627e-56 0.0000000000000000e+00  -1.3768398037355807e-56 3.5135695730531297e-56 0.0000000000000000e+00  1.1608877006793613e-56 2.9080440918704489e-56 0.0000000000000000e+00  8.5078413853293684e-56 2.1082459370662660e-55 0.0000000000000000e+00  -2.4043458663804661e-56 5.7411275175658169e-55 0.0000000000000000e+00  5.0583291727739186e-57 8.6736854851098200e-57 0.0000000000000000e+00  5.3811174523596359e-56 1.3881686511944538e-55 0.0000000000000000e+00  1.5028403934390979e-55 6.1875816673351830e-55 0.0000000000000000e+00  -2.1632851329290098e-55 3.4927932239234556e-55 0.0000000000000000e+00  9.5147110246093205e-55 1.7332496668163110e-54 0.0000000000000000e+00  -4.2496420067623747e-55 4.3583740510943001e-54 0.0000000000000000e+00  -2.1934814988878618e-55 2.6805998385565581e-54 0.0000000000000000e+00  -9.2526291919868202e-56 9.4332225315507409e-55 0.0000000000000000e+00  -1.0896703883278632e-55 1.8133512295738553e-55 0.0000000000000000e+00  2.6588051115510360e-54 5.2547086501569812e-54 0.0000000000000000e+00  -2.0785601473860181e-54 4.1247626877726683e-54 0.0000000000000000e+00  -6.9174805371626389e-55 8.0382454814755495e-55 0.0000000000000000e+00  -1.2689824083509642e-55 2.7071857122492889e-55 0.0000000000000000e+00  8.9410201255160810e-55 1.4494232558982214e-54 0.0000000000000000e+00  9.0907224231836083e-55 6.1599827121189488e-54 0.0000000000000000e+00  -1.0831357074802349e-54 5.8980399086176186e-54 0.0000000000000000e+00  4.9451552896749995e-55 4.6507786394794624e-54 0.0000000000000000e+00  1.8540821612716988e-56 5.7952327121871359e-54 0.0000000000000000e+00  2.8969521800333510e-55 6.1534658077942948e-54 0.0000000000000000e+00  -1.2111960521402653e-54 2.0453498334434307e-54 0.0000000000000000e+00  -6.2116251276073649e-55 1.4733305448497988e-53 0.0000000000000000e+00  4.2864870932904683e-54 7.4585192010536547e-54 0.0000000000000000e+00  -4.1761820114265552e-54 8.1109756781400387e-54 0.0000000000000000e+00  1.8466821504435895e-54 3.9492267370852647e-54 0.0000000000000000e+00  -7.0979159744156011e-55 9.5060714175714629e-54 0.0000000000000000e+00  1.2782074052110335e-54 9.3244619745415735e-54 0.0000000000000000e+00  -1.6216201573190401e-54 4.4072897869903404e-54 0.0000000000000000e+00  -8.9143066787033688e-55 2.4119422036002903e-54 0.0000000000000000e+00  3.2066478021459191e-55 1.2974044021530269e-54 0.0000000000000000e+00  2.5544756323179526e-55 2.5360507404754591e-54 0.0000000000000000e+00  -7.6855461482743958e-56 3.4914435411880875e-54 0.0000000000000000e+00  -6.8746592306329586e-55 1.4883971726189224e-54 0.0000000000000000e+00  2.2983053117958695e-55 4.4030385976350843e-55 0.0000000000000000e+00  -2.2372429011239642e-55 6.0480183756803905e-55 0.0000000000000000e+00  4.8673570890974024e-56 2.3930035804317073e-55 0.0000000000000000e+00  1.8057747785149731e-55 9.5049932837824806e-55 0.0000000000000000e+00  -3.2077382255968348e-55 5.3390448992741568e-55 0.0000000000000000e+00  -1.5476646176969774e-56 4.8405009809016694e-56 0.0000000000000000e+00  -1.1089630549344771e-57 1.1346689143684021e-56 0.0000000000000000e+00  6.5660756037038583e-57 2.3473566524267542e-56 0.0000000000000000e+00  -8.7707321985362936e-57 1.5124968154763506e-56 0.0000000000000000e+00  1.6988187530072487e-57 2.8668059962346832e-57 0.0000000000000000e+00  -1.2156159824955376e-57 2.7386851732612627e-57 0.0000000000000000e+00  5.0603224183571965e-57 7.7494823127764342e-57 0.0000000000000000e+00  -4.4420793868851549e-57 1.1301296137596210e-56 0.0000000000000000e+00  -1.7773795500386278e-58 9.4151545694498300e-58 0.0000000000000000e+00  -2.3470183469519473e-58 4.6783796642872913e-58 0.0000000000000000e+00  -7.7358075461760119e-61 8.8111727709759717e-59 0.0000000000000000e+00  -2.4042977211729877e-59 6.4480121258366812e-59 0.0000000000000000e+00  -7.0016215966535710e-60 2.5068413730082690e-59 0.0000000000000000e+00  -4.3275403441088129e-60 2.2425356114709237e-59 0.0000000000000000e+00  -3.0216843015315671e-60 7.1954626041156286e-60 0.0000000000000000e+00  -8.4101053385486758e-62 4.4427588551933361e-61 0.0000000000000000e+00  -1.0626594338700030e-61 2.2431003448658248e-61 0.0000000000000000e+00  -3.5479135315307794e-62 5.7021714379308207e-62 0.0000000000000000e+00  -3.8694079881330851e-64 6.7268474640487259e-64 0.0000000000000000e+00  -2.4089282816487030e-65 5.1871752499028634e-65 0.0000000000000000e+00  3.6721638945811685e-66 1.0360327452150315e-65 0.0000000000000000e+00  -4.8063902910935716e-66 9.2890353462875206e-66 0.0000000000000000e+00  -6.6520070387727857e-68 2.7747460167385807e-67 0.0000000000000000e+00  -7.8052207312012293e-68 1.2955329280202232e-67 0.0000000000000000e+00  -8.0184766651871505e-69 1.1765714625988584e-68 0.0000000000000000e+00  -5.6081752971583367e-70 9.5404727360610703e-70 0.0000000000000000e+00  -3.7657222218712880e-71 6.8297630126420129e-71 0.0000000000000000e+00  -1.8730787716923990e-72 3.2070885407896846e-72 0.0000000000000000e+00  -1.2156913699080398e-73 2.7284393283651465e-73 0.0000000000000000e+00  -4.4145998114345423e-75 1.2917003312496565e-74 0.0000000000000000e+00  -2.5463011316243939e-75 4.2427306695260603e-75 0.0000000000000000e+00  -9.7718816043928900e-76 3.5557144863291509e-76 0.0000000000000000e+00  -1.6203706603980756e-75 -2.3858069648365648e-76 0.0000000000000000e+00  -2.4511598724427325e-74 1.1571199699069538e-74 0.0000000000000000e+00  -3.6795860052748166e-74 1.5464087970197379e-75 0.0000000000000000e+00  -3.8872936387001970e-73 1.4297503011301655e-73 0.0000000000000000e+00  -1.0263241130376699e-71 6.2154893705104510e-72 0.0000000000000000e+00  -6.7590455685889790e-71 3.6919397441303611e-71 0.0000000000000000e+00  -1.0612650434827315e-70 3.8825971855017599e-72 0.0000000000000000e+00  -8.9195335507821613e-70 3.2917477909990164e-70 0.0000000000000000e+00  -2.1375382500739706e-68 1.2782229490995502e-68 0.0000000000000000e+00  -1.0276873185897001e-67 5.0731364773776018e-68 0.0000000000000000e+00  -1.0083033582131824e-67 -5.9755049236890798e-68 0.0000000000000000e+00  -3.1811698392321894e-66 1.7312246244029908e-66 0.0000000000000000e+00  -3.2029512785838961e-65 1.8142006595182937e-65 0.0000000000000000e+00  -5.3912025868142960e-65 4.9921521660894912e-66 0.0000000000000000e+00  -4.4516841031969471e-64 1.4312739504602894e-64 0.0000000000000000e+00  -7.0434710932123630e-63 4.3057222608940959e-63 0.0000000000000000e+00  -1.5110578162106293e-62 3.6981381880497545e-63 0.0000000000000000e+00  -8.4568487688894932e-62 1.9414851681720100e-62 0.0000000000000000e+00  -1.3662333869461500e-60 8.3881118601245825e-61 0.0000000000000000e+00  -2.4216204408237176e-60 3.3254733766375459e-61 0.0000000000000000e+00  -2.1272728476229834e-59 7.2749175356797009e-60 0.0000000000000000e+00  -2.4390719175016247e-58 1.4665622503204416e-58 0.0000000000000000e+00  -2.5731900324625132e-58 -9.2252184855590839e-59 0.0000000000000000e+00  -6.0209184550533942e-57 2.7238630209761566e-57 0.0000000000000000e+00  -2.5031754209783714e-56 1.2109688536710136e-56 0.0000000000000000e+00  -5.5488884866261807e-56 -8.4413095265167472e-57 0.0000000000000000e+00  -1.0218426179085128e-54 6.3165237228306586e-55 0.0000000000000000e+00  -1.1148964730215875e-54 -3.3694122037513844e-55 0.0000000000000000e+00  -2.4289311863288128e-53 1.2342206260353100e-53 0.0000000000000000e+00  -6.6424945206455840e-53 2.8997198706956371e-53 0.0000000000000000e+00  -4.3769064312166676e-52 1.1883952664762562e-52 0.0000000000000000e+00  -2.6928654810843357e-51 1.6086973823488095e-51 0.0000000000000000e+00  -7.6636271769057942e-51 -2.0217063478172500e-52 0.0000000000000000e+00  -7.2689178383715054e-50 4.4337104889417304e-50 0.0000000000000000e+00  -1.6153385001263231e-49 -1.4133853929427121e-50 0.0000000000000000e+00  -1.7444766715610898e-48 9.7142296204488425e-49 0.0000000000000000e+00  -4.3395598288971485e-48 -1.9364874589805579e-49 0.0000000000000000e+00  -2.0286562343393414e-47 1.0642433767303648e-47 0.0000000000000000e+00  -1.1055317057800880e-46 1.8204661245252440e-47 0.0000000000000000e+00  -1.0275566705439281e-46 2.3522942672499686e-47 0.0000000000000000e+00  -1.2467174691926989e-45 5.0222406682807172e-46 0.0000000000000000e+00  -8.6867338351328002e-46 -5.4167594102826193e-46 0.0000000000000000e+00  -1.3501914511892576e-44 7.6971354031116864e-45 0.0000000000000000e+00  -5.8086296162393491e-44 1.3102213652703294e-44 0.0000000000000000e+00  -3.6070108492452216e-44 -1.6666095604758036e-44 0.0000000000000000e+00  -1.1457474515742824e-43 6.1863553406584254e-44 0.0000000000000000e+00  -8.4245154058288991e-43 2.2037535028986926e-43 0.0000000000000000e+00  -1.9305789871347832e-42 1.8795947520123364e-43 0.0000000000000000e+00  -2.5132573093726205e-42 5.8044098664229466e-44 0.0000000000000000e+00  -2.0159548522132565e-42 -1.8533980956739339e-43 0.0000000000000000e+00  -8.6255316930071140e-43 -2.3840376562980731e-43 0.0000000000000000e+00  -1.1356445700710446e-43 -6.1350435774350530e-44 0.0000000000000000e+00  -3.8625650164285157e-44 1.7607131004605186e-44 0.0000000000000000e+00  -6.3274043491052626e-44 -1.0324167926311238e-44 0.0000000000000000e+00  -1.5059566760993776e-44 -7.5024908029883347e-45 0.0000000000000000e+00  -9.9371880601924065e-46 5.4097034872385002e-46 0.0000000000000000e+00  -1.4102100371580924e-45 -5.1483043400663635e-46 0.0000000000000000e+00  -1.1241845880889191e-46 -2.7297553296722197e-47 0.0000000000000000e+00  -1.0212483351100413e-46 -2.0549375773260299e-47 0.0000000000000000e+00  -1.8774373675711415e-47 -1.1475116475129380e-47 0.0000000000000000e+00  -4.0840725208292785e-48 1.9269943997387606e-49 0.0000000000000000e+00  -1.5010579302704068e-48 -8.9940682012353299e-49 0.0000000000000000e+00  -1.6297386365881650e-49 2.3520942728918011e-50 0.0000000000000000e+00  -7.5297883791661931e-50 -4.2593784804309642e-50 0.0000000000000000e+00  -8.2368480867868822e-51 6.1331018983758834e-52 0.0000000000000000e+00  -3.1756903026799840e-51 -1.7231698411342252e-51 0.0000000000000000e+00  -5.1228747417896534e-52 -1.1117831340876610e-52 0.0000000000000000e+00  -8.2672375669032485e-53 -3.4364062630047289e-53 0.0000000000000000e+00  -2.6846746729970295e-53 -1.2774711152592003e-53 0.0000000000000000e+00  -1.1915927661898195e-54 3.1465507495532756e-55 0.0000000000000000e+00  -1.0753597115496747e-54 -6.6241420606570280e-55 0.0000000000000000e+00  -5.1377377453985293e-56 8.1042488900600758e-57 0.0000000000000000e+00  -2.3587192213270390e-56 -1.2919085234433666e-56 0.0000000000000000e+00  -4.8648685752815992e-57 -2.4653972645458981e-57 0.0000000000000000e+00  -2.4448731792458628e-58 8.3588826580566005e-59 0.0000000000000000e+00  -2.1790235407482549e-58 -1.3017805763118494e-58 0.0000000000000000e+00  -2.0001066381103767e-59 -6.0366784638562696e-60 0.0000000000000000e+00  -2.3799340364700244e-60 -3.3346998011680675e-61 0.0000000000000000e+00  -1.3015613316705938e-60 -7.4827795231897671e-61 0.0000000000000000e+00  -7.7183681125781775e-62 -2.1132986394426432e-62 0.0000000000000000e+00  -1.3632123755895012e-62 -2.8874537410569875e-63 0.0000000000000000e+00  -6.6857351983272882e-63 -3.7378883220430111e-63 0.0000000000000000e+00  -4.8035210348756393e-64 -1.7982856252191920e-64 0.0000000000000000e+00  -4.3627902554561182e-65 9.4691944460258078e-67 0.0000000000000000e+00  -2.9652534866606557e-65 -1.6447476285536886e-65 0.0000000000000000e+00  -3.4319245608938368e-66 -1.9702318045511118e-66 0.0000000000000000e+00  -8.9442431487641802e-68 5.4302073451346703e-68 0.0000000000000000e+00  -8.6708456587197339e-68 -4.1446379312280868e-68 0.0000000000000000e+00  -2.0776367973299579e-68 -1.2760713079792389e-68 0.0000000000000000e+00  -1.1358514868535196e-69 -5.1039708128062903e-70 0.0000000000000000e+00  -8.7859344966726771e-71 1.3711118315115654e-71 0.0000000000000000e+00  -6.9271948587848344e-71 -3.6399077344502987e-71 0.0000000000000000e+00  -1.2512352840528370e-71 -7.6323601502382673e-72 0.0000000000000000e+00  -5.9909806610457756e-73 -2.7430579451587462e-73 0.0000000000000000e+00  -3.9214108641386462e-74 7.4027301618505150e-75 0.0000000000000000e+00  -3.1597821872823509e-74 -1.4761655369711609e-74 0.0000000000000000e+00  -6.5950658527831264e-75 -3.3531954903864166e-75 0.0000000000000000e+00  -7.1811370006433895e-76 -3.1060726160481791e-76 0.0000000000000000e+00  -8.5470508374824662e-76 -1.6232728755499195e-75 0.0000000000000000e+00  -4.7703734449884730e-75 -1.3948710884279950e-74 0.0000000000000000e+00  4.3558212502845990e-75 -8.2990883242684441e-75 0.0000000000000000e+00  -1.6250761018802780e-73 -3.4309867150440972e-73 0.0000000000000000e+00  -9.2512343977877980e-71 -1.0099009742943888e-70 0.0000000000000000e+00  -7.4725312471492967e-70 -1.3206174552168709e-69 0.0000000000000000e+00  -1.0926332835666951e-69 -3.6561585976649431e-69 0.0000000000000000e+00  -7.7150384595191356e-68 -1.7152727954182901e-67 0.0000000000000000e+00  -6.4859383322351432e-68 -3.2636768483252337e-67 0.0000000000000000e+00  -6.7404654279676875e-66 -1.3541216419606789e-65 0.0000000000000000e+00  -4.4807475214013546e-66 -2.1347618811290687e-65 0.0000000000000000e+00  -8.9850504483951827e-65 -1.5642370937180244e-64 0.0000000000000000e+00  1.7039783094921634e-65 -2.1021762466330186e-64 0.0000000000000000e+00  -4.2293720425143407e-62 -6.4378951618598919e-62 0.0000000000000000e+00  -6.9136888762624108e-62 -1.7270039141355856e-61 0.0000000000000000e+00  -2.2954421486283627e-62 -2.7308446484626166e-61 0.0000000000000000e+00  -5.6630867158018323e-60 -1.1418000540659022e-59 0.0000000000000000e+00  4.6904066766234367e-60 -1.4968737266122553e-59 0.0000000000000000e+00  -2.8555305419830038e-59 -4.7796051097223482e-59 0.0000000000000000e+00  8.6710537580401072e-60 -6.0763680038906973e-59 0.0000000000000000e+00  2.2824719615947545e-59 -3.9452296577892529e-59 0.0000000000000000e+00  -5.5337332236946203e-58 -9.0122034672105438e-58 0.0000000000000000e+00  -1.3527033785919413e-59 -1.2604013956091980e-57 0.0000000000000000e+00  -4.5414549480747897e-57 -1.1692437567003503e-56 0.0000000000000000e+00  5.6202572876222703e-57 -8.6044269895865559e-57 0.0000000000000000e+00  -5.2129641200997125e-57 -7.4029578723542275e-57 0.0000000000000000e+00  -1.7248922232875806e-56 -3.7949792418794964e-56 0.0000000000000000e+00  2.1067030584819401e-56 -4.0448767421840029e-56 0.0000000000000000e+00  -4.8740376075319185e-57 -9.2614934966799767e-57 0.0000000000000000e+00  -7.9049877138529435e-56 -2.0408551097965857e-55 0.0000000000000000e+00  6.1670456118993214e-56 -5.0699781841355835e-55 0.0000000000000000e+00  -4.1661087749261932e-55 -7.3079300494513516e-55 0.0000000000000000e+00  -4.8040873423875773e-56 -1.8365243218182551e-54 0.0000000000000000e+00  1.6088542045041050e-55 -5.7215559868631167e-55 0.0000000000000000e+00  -5.0253809034041811e-55 -1.6818240562291402e-54 0.0000000000000000e+00  -2.1827264939490837e-54 -7.0961281908893709e-54 0.0000000000000000e+00  2.4938531814081256e-54 -6.0528879206542984e-54 0.0000000000000000e+00  -6.4980516525579504e-55 -2.3964529843007840e-54 0.0000000000000000e+00  5.1295216044797738e-55 -2.8152871851638687e-54 0.0000000000000000e+00  1.2321647968917953e-55 -1.4241975187833521e-54 0.0000000000000000e+00  -2.1014078208701446e-54 -3.4829166637922993e-54 0.0000000000000000e+00  5.4787159421126538e-55 -8.2262773022278943e-54 0.0000000000000000e+00  -3.7863957088638593e-54 -1.3585154893752475e-53 0.0000000000000000e+00  4.5141227991790056e-54 -7.6920063333929523e-54 0.0000000000000000e+00  1.9530800007169925e-55 -6.4994893176575942e-55 0.0000000000000000e+00  -4.6167780777670502e-54 -8.0270381748429342e-54 0.0000000000000000e+00  4.6393390327253471e-54 -7.8590375742027506e-54 0.0000000000000000e+00  -1.5971909392086805e-56 -1.3352742501790174e-55 0.0000000000000000e+00  1.0710204569820873e-56 -2.7689313064089853e-55 0.0000000000000000e+00  2.1206829483524621e-56 -9.8799280661022734e-56 0.0000000000000000e+00  -5.0013217960267606e-54 -9.3507448767704126e-54 0.0000000000000000e+00  5.3355696726248160e-54 -9.4200705099775606e-54 0.0000000000000000e+00  5.4560421122192647e-56 -1.0535334728825036e-55 0.0000000000000000e+00  -1.3772726374672866e-56 -6.2016342905717777e-56 0.0000000000000000e+00  -4.8085858644795190e-55 -9.0260519919618878e-55 0.0000000000000000e+00  -5.5954596516057938e-54 -1.0016852024674698e-53 0.0000000000000000e+00  4.3368260820145404e-54 -1.0519099832987824e-53 0.0000000000000000e+00  -2.9407308747806462e-54 -7.9650198073912616e-54 0.0000000000000000e+00  2.3511374124863386e-54 -8.5679504973244974e-54 0.0000000000000000e+00  2.1672813207781965e-54 -3.3245996381227430e-54 0.0000000000000000e+00  -5.2477984044615700e-55 -1.4751907927894398e-54 0.0000000000000000e+00  8.0782228219816193e-55 -1.5819307269768205e-54 0.0000000000000000e+00  -4.7578552547912019e-55 -9.7857736442428569e-55 0.0000000000000000e+00  4.9624355129941932e-55 -8.9093066785065756e-55 0.0000000000000000e+00  -1.5171832344185201e-56 -2.6753396273646045e-56 0.0000000000000000e+00  -4.3335934415724731e-56 -1.7170997608939073e-55 0.0000000000000000e+00  4.0565883818727296e-56 -1.7518005517104116e-55 0.0000000000000000e+00  4.6940166131766745e-57 -6.9093936197740331e-56 0.0000000000000000e+00  -2.6723349046747949e-56 -6.5099281018229066e-56 0.0000000000000000e+00  3.2011289546957159e-56 -6.4536295026297827e-56 0.0000000000000000e+00  -2.7852755322828446e-57 -2.8698569950357933e-56 0.0000000000000000e+00  1.2653144785513983e-56 -3.0179900154904195e-56 0.0000000000000000e+00  9.7963271199381168e-58 -2.4113625373047490e-57 0.0000000000000000e+00  -4.2818231795917046e-57 -7.5853960526793068e-57 0.0000000000000000e+00  4.1625118313444281e-57 -1.1057994894383220e-56 0.0000000000000000e+00  3.0606143693490310e-58 -1.0250404249742835e-57 0.0000000000000000e+00  1.4100296565677225e-58 -5.043088