<?xml version="1.0"?>
<VTKFile type="UnstructuredGrid"  version="0.1"  >
<UnstructuredGrid>
<Piece  NumberOfPoints="11902" NumberOfCells="23402">
<Points>
<DataArray  type="Float64"  NumberOfComponents="3"  format="ascii">-5 -5 0  5 -5 0  5 5 0  -5 5 0  1.252021669917822 0.001360699790321352 0  -4.9 -5 0  -4.8 -5 0  -4.7 -5 0  -4.6 -5 0  -4.5 -5 0  -4.4 -5 0  -4.3 -5 0  -4.2 -5 0  -4.1 -5 0  -4 -5 0  -3.9 -5 0  -3.8 -5 0  -3.7 -5 0  -3.6 -5 0  -3.5 -5 0  -3.4 -5 0  -3.3 -5 0  -3.2 -5 0  -3.1 -5 0  -3 -5 0  -2.9 -5 0  -2.8 -5 0  -2.7 -5 0  -2.6 -5 0  -2.5 -5 0  -2.4 -5 0  -2.3 -5 0  -2.2 -5 0  -2.1 -5 0  -2 -5 0  -1.9 -5 0  -1.8 -5 0  -1.7 -5 0  -1.6 -5 0  -1.5 -5 0  -1.4 -5 0  -1.3 -5 0  -1.2 -5 0  -1.1 -5 0  -1 -5 0  -0.9000000000000004 -5 0  -0.7999999999999998 -5 0  -0.7000000000000002 -5 0  -0.5999999999999996 -5 0  -0.5 -5 0  -0.4000000000000004 -5 0  -0.2999999999999998 -5 0  -0.2000000000000002 -5 0  -0.09999999999999964 -5 0  0 -5 0  0.09999999999999964 -5 0  0.2000000000000002 -5 0  0.2999999999999998 -5 0  0.4000000000000004 -5 0  0.5 -5 0  0.5999999999999996 -5 0  0.7000000000000002 -5 0  0.7999999999999998 -5 0  0.9000000000000004 -5 0  1 -5 0  1.1 -5 0  1.2 -5 0  1.3 -5 0  1.4 -5 0  1.5 -5 0  1.6 -5 0  1.7 -5 0  1.8 -5 0  1.9 -5 0  2 -5 0  2.1 -5 0  2.2 -5 0  2.3 -5 0  2.4 -5 0  2.5 -5 0  2.6 -5 0  2.7 -5 0  2.8 -5 0  2.9 -5 0  3 -5 0  3.1 -5 0  3.199999999999999 -5 0  3.300000000000001 -5 0  3.4 -5 0  3.5 -5 0  3.6 -5 0  3.699999999999999 -5 0  3.800000000000001 -5 0  3.9 -5 0  4 -5 0  4.1 -5 0  4.199999999999999 -5 0  4.300000000000001 -5 0  4.4 -5 0  4.5 -5 0  4.6 -5 0  4.699999999999999 -5 0  4.800000000000001 -5 0  4.9 -5 0  5 -4.9 0  5 -4.8 0  5 -4.7 0  5 -4.6 0  5 -4.5 0  5 -4.4 0  5 -4.3 0  5 -4.2 0  5 -4.1 0  5 -4 0  5 -3.9 0  5 -3.8 0  5 -3.7 0  5 -3.6 0  5 -3.5 0  5 -3.4 0  5 -3.3 0  5 -3.2 0  5 -3.1 0  5 -3 0  5 -2.9 0  5 -2.8 0  5 -2.7 0  5 -2.6 0  5 -2.5 0  5 -2.4 0  5 -2.3 0  5 -2.2 0  5 -2.1 0  5 -2 0  5 -1.9 0  5 -1.8 0  5 -1.7 0  5 -1.6 0  5 -1.5 0  5 -1.4 0  5 -1.3 0  5 -1.2 0  5 -1.1 0  5 -1 0  5 -0.9000000000000004 0  5 -0.7999999999999998 0  5 -0.7000000000000002 0  5 -0.5999999999999996 0  5 -0.5 0  5 -0.4000000000000004 0  5 -0.2999999999999998 0  5 -0.2000000000000002 0  5 -0.09999999999999964 0  5 0 0  5 0.09999999999999964 0  5 0.2000000000000002 0  5 0.2999999999999998 0  5 0.4000000000000004 0  5 0.5 0  5 0.5999999999999996 0  5 0.7000000000000002 0  5 0.7999999999999998 0  5 0.9000000000000004 0  5 1 0  5 1.1 0  5 1.2 0  5 1.3 0  5 1.4 0  5 1.5 0  5 1.6 0  5 1.7 0  5 1.8 0  5 1.9 0  5 2 0  5 2.1 0  5 2.2 0  5 2.3 0  5 2.4 0  5 2.5 0  5 2.6 0  5 2.7 0  5 2.8 0  5 2.9 0  5 3 0  5 3.1 0  5 3.199999999999999 0  5 3.300000000000001 0  5 3.4 0  5 3.5 0  5 3.6 0  5 3.699999999999999 0  5 3.800000000000001 0  5 3.9 0  5 4 0  5 4.1 0  5 4.199999999999999 0  5 4.300000000000001 0  5 4.4 0  5 4.5 0  5 4.6 0  5 4.699999999999999 0  5 4.800000000000001 0  5 4.9 0  4.9 5 0  4.8 5 0  4.7 5 0  4.6 5 0  4.5 5 0  4.4 5 0  4.3 5 0  4.2 5 0  4.1 5 0  4 5 0  3.9 5 0  3.8 5 0  3.7 5 0  3.6 5 0  3.5 5 0  3.4 5 0  3.3 5 0  3.2 5 0  3.1 5 0  3 5 0  2.9 5 0  2.8 5 0  2.7 5 0  2.6 5 0  2.5 5 0  2.4 5 0  2.3 5 0  2.2 5 0  2.1 5 0  2 5 0  1.9 5 0  1.8 5 0  1.7 5 0  1.6 5 0  1.5 5 0  1.4 5 0  1.3 5 0  1.2 5 0  1.1 5 0  1 5 0  0.9000000000000004 5 0  0.7999999999999998 5 0  0.7000000000000002 5 0  0.5999999999999996 5 0  0.5 5 0  0.4000000000000004 5 0  0.2999999999999998 5 0  0.2000000000000002 5 0  0.09999999999999964 5 0  0 5 0  -0.09999999999999964 5 0  -0.2000000000000002 5 0  -0.2999999999999998 5 0  -0.4000000000000004 5 0  -0.5 5 0  -0.5999999999999996 5 0  -0.7000000000000002 5 0  -0.7999999999999998 5 0  -0.9000000000000004 5 0  -1 5 0  -1.1 5 0  -1.2 5 0  -1.3 5 0  -1.4 5 0  -1.5 5 0  -1.6 5 0  -1.7 5 0  -1.8 5 0  -1.9 5 0  -2 5 0  -2.1 5 0  -2.2 5 0  -2.3 5 0  -2.4 5 0  -2.5 5 0  -2.6 5 0  -2.7 5 0  -2.8 5 0  -2.9 5 0  -3 5 0  -3.1 5 0  -3.199999999999999 5 0  -3.300000000000001 5 0  -3.4 5 0  -3.5 5 0  -3.6 5 0  -3.699999999999999 5 0  -3.800000000000001 5 0  -3.9 5 0  -4 5 0  -4.1 5 0  -4.199999999999999 5 0  -4.300000000000001 5 0  -4.4 5 0  -4.5 5 0  -4.6 5 0  -4.699999999999999 5 0  -4.800000000000001 5 0  -4.9 5 0  -5 4.9 0  -5 4.8 0  -5 4.7 0  -5 4.6 0  -5 4.5 0  -5 4.4 0  -5 4.3 0  -5 4.2 0  -5 4.1 0  -5 4 0  -5 3.9 0  -5 3.8 0  -5 3.7 0  -5 3.6 0  -5 3.5 0  -5 3.4 0  -5 3.3 0  -5 3.2 0  -5 3.1 0  -5 3 0  -5 2.9 0  -5 2.8 0  -5 2.7 0  -5 2.6 0  -5 2.5 0  -5 2.4 0  -5 2.3 0  -5 2.2 0  -5 2.1 0  -5 2 0  -5 1.9 0  -5 1.8 0  -5 1.7 0  -5 1.6 0  -5 1.5 0  -5 1.4 0  -5 1.3 0  -5 1.2 0  -5 1.1 0  -5 1 0  -5 0.9000000000000004 0  -5 0.7999999999999998 0  -5 0.7000000000000002 0  -5 0.5999999999999996 0  -5 0.5 0  -5 0.4000000000000004 0  -5 0.2999999999999998 0  -5 0.2000000000000002 0  -5 0.09999999999999964 0  -5 0 0  -5 -0.09999999999999964 0  -5 -0.2000000000000002 0  -5 -0.2999999999999998 0  -5 -0.4000000000000004 0  -5 -0.5 0  -5 -0.5999999999999996 0  -5 -0.7000000000000002 0  -5 -0.7999999999999998 0  -5 -0.9000000000000004 0  -5 -1 0  -5 -1.1 0  -5 -1.2 0  -5 -1.3 0  -5 -1.4 0  -5 -1.5 0  -5 -1.6 0  -5 -1.7 0  -5 -1.8 0  -5 -1.9 0  -5 -2 0  -5 -2.1 0  -5 -2.2 0  -5 -2.3 0  -5 -2.4 0  -5 -2.5 0  -5 -2.6 0  -5 -2.7 0  -5 -2.8 0  -5 -2.9 0  -5 -3 0  -5 -3.1 0  -5 -3.199999999999999 0  -5 -3.300000000000001 0  -5 -3.4 0  -5 -3.5 0  -5 -3.6 0  -5 -3.699999999999999 0  -5 -3.800000000000001 0  -5 -3.9 0  -5 -4 0  -5 -4.1 0  -5 -4.199999999999999 0  -5 -4.300000000000001 0  -5 -4.4 0  -5 -4.5 0  -5 -4.6 0  -5 -4.699999999999999 0  -5 -4.800000000000001 0  -5 -4.9 0  1.244325612441224 0.09572406758879051 0  1.2231934229653 0.1930714206085747 0  1.189913796505473 0.2896066915721874 0  1.147187087093563 0.3788057721524209 0  1.090006761836939 0.4694674823004791 0  1.024766742189121 0.5540412186859411 0  0.9471244161493165 0.6338390404563744 0  0.8609402924226923 0.7080628061969021 0  0.7692998582661178 0.7734511006261516 0  0.6671854956567275 0.8309065439332933 0  0.5565077305046328 0.8831958461596525 0  0.4445277694633353 0.9269959458669642 0  0.3317388697411436 0.9595216335823056 0  0.2083956610986623 0.9810693549757614 0  0.08931541347222213 0.9995816565696348 0  -0.02739273718526286 1.002753042784935 0  -0.1451436696949054 0.9894489796861833 0  -0.270828364522148 0.9708581041213462 0  -0.3895346608037412 0.9463246461830578 0  -0.5003875197949268 0.9100746290788305 0  -0.6091593779271012 0.8636810127948517 0  -0.7112893530634525 0.8092165654929114 0  -0.8057890034466687 0.7445462918663293 0  -0.8961302426525415 0.6716165873365189 0  -0.9807232776211279 0.5922608380277576 0  -1.054105590595127 0.5111308997364861 0  -1.115664359903481 0.4253520251913452 0  -1.167709056525563 0.3335388256538958 0  -1.205610403152103 0.2430159589134064 0  -1.230112152777163 0.1485724930258595 0  -1.241700977786056 0.05112944143997545 0  -1.241650440991067 -0.04902090259986173 0  -1.230048140375522 -0.1457870385738302 0  -1.20534743326847 -0.2391355732443417 0  -1.164916707921233 -0.3339897596776367 0  -1.115929132402151 -0.4253571650513882 0  -1.055604173713186 -0.5108591285512665 0  -0.9830230704618987 -0.5912181460234478 0  -0.8990498510724098 -0.6693723217136751 0  -0.8090856622014305 -0.7406973809110253 0  -0.7131381529457174 -0.801677786675514 0  -0.608790927118156 -0.8548958680240641 0  -0.4961256528956372 -0.9041359497925813 0  -0.383389543094825 -0.9435671624641434 0  -0.2675426953563342 -0.9703912302172001 0  -0.1437672031199977 -0.9890908255764128 0  -0.02797311266480278 -1.001927221642516 0  0.08910785825552529 -0.994987825886456 0  0.2132758353532022 -0.9779571913103996 0  0.3341411924070927 -0.9579603051320896 0  0.4486344695800141 -0.9256657763465819 0  0.558804367621462 -0.8823313775998177 0  0.6680814553245817 -0.8309484314490668 0  0.7692960856449393 -0.7746020198807554 0  0.8610467571088666 -0.7090319753613746 0  0.9464256857212077 -0.6338296979174964 0  1.022232563887325 -0.5531993349978928 0  1.090413689108173 -0.4684598930217126 0  1.148078871650788 -0.3790091744283955 0  1.191638868181232 -0.2876051873033887 0  1.223802474661664 -0.1921891225251044 0  1.244594400976097 -0.09541074924983638 0  -2.448580673054783 4.918149052343328 0  -2.44845660218426 -4.910530588125571 0  4.910455784240261 2.447919384343362 0  4.918578925023463 -2.44937865978708 0  2.446189705445778 -4.895768414291813 0  2.440622475655953 4.899529746274953 0  -4.910482553996903 -2.447945512042672 0  -4.910479891608776 2.447949400057261 0  -1.748535530772794 4.911052777593838 0  -1.744321365628363 -4.914492370454692 0  4.920641462309002 1.744091862111754 0  4.909176334541491 -1.747856121811475 0  -4.909470084833941 -1.747590066061227 0  -4.910292275981588 1.747334654449035 0  1.745809653821241 4.904912028429785 0  1.747225141968561 -4.893061422554653 0  -1.148842476415194 4.908844628215121 0  -1.129698859822716 -4.916757952938451 0  -4.909192583348638 -1.147914280292217 0  -4.909010960716969 1.147714645350625 0  1.14383707420665 -4.912943122474692 0  1.148852324222086 4.908831417188175 0  4.909332703951219 1.146189658377439 0  4.920164067704693 -1.151973153443197 0  -0.5466694618006123 -4.910037366844771 0  -0.5464520083989007 4.918720994886536 0  -4.907929049120674 -0.5487009815132053 0  -4.907953032087503 0.5472586309107049 0  4.907248474274177 -0.5490192518077933 0  4.91890622876369 0.5457775710627547 0  0.5424518588418461 -4.896916289657723 0  0.5511807131952097 4.91554400601103 0  -4.911900227018458 -3.04829957623006 0  4.918470748678003 3.046315349778226 0  4.911408086735077 -3.048275378931106 0  -4.912747992612208 3.045391092765998 0  3.055304705963135 -4.917394707643312 0  -3.048635874138776 -4.911331101008989 0  3.052203040448925 4.913408784613953 0  -3.04808146009912 4.912220835506236 0  -4.907038604305276 -0.04990702007823112 0  0.04511984143908942 -4.911987629670168 0  0.04956751216647638 4.919014511776687 0  4.914094495105664 -0.05128912272055412 0  3.545622402899282 -4.919035151786892 0  -3.548903167373
[...]
<PointData  Vectors="f_4222"> 
<DataArray  type="Float64"  Name="f_4222"  NumberOfComponents="3" format="ascii">2.6559658580600264e-76 2.6559658580600264e-76 0.0000000000000000e+00  -2.8445085011138803e-76 2.8445085011138803e-76 0.0000000000000000e+00  -8.5659604779167988e-78 -8.5659604779167988e-78 0.0000000000000000e+00  3.0308186857311637e-76 -3.0308186857311637e-76 0.0000000000000000e+00  -2.1196870924298097e-01 -4.1868698081369326e-03 0.0000000000000000e+00  4.1658830052941775e-75 6.6062763963171343e-75 0.0000000000000000e+00  2.0824296829111477e-75 2.0879929078234904e-74 0.0000000000000000e+00  -3.4057367024209181e-75 6.7714545477492287e-75 0.0000000000000000e+00  4.0001427616502845e-72 6.6681284053416560e-72 0.0000000000000000e+00  5.3169367639069909e-71 1.3458237235677652e-70 0.0000000000000000e+00  -7.9198071918899639e-72 4.5552209106192065e-71 0.0000000000000000e+00  3.2343252777225666e-69 6.1624187476406550e-69 0.0000000000000000e+00  5.1614069451334996e-68 9.3989997083413758e-68 0.0000000000000000e+00  -3.0647076073582083e-68 1.5000427006868628e-67 0.0000000000000000e+00  1.2767873243164610e-67 3.9817464633119283e-67 0.0000000000000000e+00  1.2639104818595696e-68 8.7790243815718776e-67 0.0000000000000000e+00  5.4517445483350719e-64 8.8233490549639967e-64 0.0000000000000000e+00  4.7456015383036797e-65 2.4418590204322945e-63 0.0000000000000000e+00  1.3491684620568679e-62 2.1991108290968702e-62 0.0000000000000000e+00  8.0665235469365901e-63 8.3181572425362891e-62 0.0000000000000000e+00  6.9312210262901235e-61 1.1023634422893620e-60 0.0000000000000000e+00  4.0621889582501009e-60 7.0071508837901636e-60 0.0000000000000000e+00  -2.8468411206255272e-60 7.6986556411953435e-60 0.0000000000000000e+00  5.6618690627159865e-59 1.1368757319026766e-58 0.0000000000000000e+00  -1.7586498974320602e-59 1.1646136421707284e-58 0.0000000000000000e+00  -3.0029250797206935e-59 6.8379492045998721e-59 0.0000000000000000e+00  1.8019638467901767e-58 3.3045604138106132e-58 0.0000000000000000e+00  7.2974379808947721e-58 2.0895642333178071e-57 0.0000000000000000e+00  2.8599047485360470e-57 6.2334621149957939e-57 0.0000000000000000e+00  -3.4063297835232384e-57 5.7373739709770443e-57 0.0000000000000000e+00  -3.5213609568010149e-58 1.0977220089993616e-57 0.0000000000000000e+00  1.9079704234158647e-56 2.9323636543955176e-56 0.0000000000000000e+00  -1.4130030464339844e-56 3.5305940485559473e-56 0.0000000000000000e+00  1.1909044180557961e-56 2.8936683054495566e-56 0.0000000000000000e+00  8.7342733628161579e-56 2.0977273322270293e-55 0.0000000000000000e+00  -2.5089824816755998e-56 5.7433720217318579e-55 0.0000000000000000e+00  5.2079054554420529e-57 8.6133736007188186e-57 0.0000000000000000e+00  5.5420249411771287e-56 1.3817804983834727e-55 0.0000000000000000e+00  1.5481812679113530e-55 6.1697448693318971e-55 0.0000000000000000e+00  -2.2350750659034450e-55 3.5160565424783742e-55 0.0000000000000000e+00  9.8309493190360545e-55 1.7230323086240998e-54 0.0000000000000000e+00  -4.4175316424144935e-55 4.3614327877174148e-54 0.0000000000000000e+00  -2.2811505412480665e-55 2.6819965220351305e-54 0.0000000000000000e+00  -9.6119287474125603e-56 9.4396110928713904e-55 0.0000000000000000e+00  -1.1304125023476237e-55 1.8220721585440610e-55 0.0000000000000000e+00  2.7582777226490366e-54 5.2334780720685329e-54 0.0000000000000000e+00  -2.1585658077174811e-54 4.1389581302016389e-54 0.0000000000000000e+00  -7.1876941851635052e-55 8.0806323998426651e-55 0.0000000000000000e+00  -1.3196486467701226e-55 2.7131362740440219e-55 0.0000000000000000e+00  9.2973911125216872e-55 1.4451380288290813e-54 0.0000000000000000e+00  9.4492334115363993e-55 6.1544427452142995e-54 0.0000000000000000e+00  -1.1278120824994133e-54 5.8988163164562422e-54 0.0000000000000000e+00  5.1438418972031698e-55 4.6480455470502270e-54 0.0000000000000000e+00  1.9075697920279878e-56 5.7929477468373819e-54 0.0000000000000000e+00  3.0156443888154421e-55 6.1511065055246488e-54 0.0000000000000000e+00  -1.2608593503738287e-54 2.0441530669886196e-54 0.0000000000000000e+00  -6.4516437233852986e-55 1.4723222816445197e-53 0.0000000000000000e+00  4.4610917973124065e-54 7.4691645017152181e-54 0.0000000000000000e+00  -4.3447570416475257e-54 8.0958188655902126e-54 0.0000000000000000e+00  1.9208176649381607e-54 3.9569132063056030e-54 0.0000000000000000e+00  -7.3580149900565586e-55 9.4986922906831056e-54 0.0000000000000000e+00  1.3304578060819826e-54 9.3288241646630868e-54 0.0000000000000000e+00  -1.6841084935109548e-54 4.3963429391408460e-54 0.0000000000000000e+00  -9.2464476206316208e-55 2.4046786682918486e-54 0.0000000000000000e+00  3.3301050655739181e-55 1.2996349611027369e-54 0.0000000000000000e+00  2.6560257846871119e-55 2.5376224722694988e-54 0.0000000000000000e+00  -7.8293211263551009e-56 3.4898164522646213e-54 0.0000000000000000e+00  -7.1106478674812326e-55 1.4814066660605758e-54 0.0000000000000000e+00  2.3771773345987522e-55 4.4264068685390308e-55 0.0000000000000000e+00  -2.3091032209200349e-55 6.0230020814740397e-55 0.0000000000000000e+00  5.0322800557119885e-56 2.3981182547910056e-55 0.0000000000000000e+00  1.8659909796918995e-55 9.5245100332405634e-55 0.0000000000000000e+00  -3.3029475668689504e-55 5.3009731762407192e-55 0.0000000000000000e+00  -1.5905396394385727e-56 4.8215635188051337e-56 0.0000000000000000e+00  -1.1347631089701237e-57 1.1332525678524726e-56 0.0000000000000000e+00  6.7523503869822591e-57 2.3553488208043037e-56 0.0000000000000000e+00  -8.9910950335253864e-57 1.5016516369709556e-56 0.0000000000000000e+00  1.7414732918808354e-57 2.8878107811525708e-57 0.0000000000000000e+00  -1.2439977789879318e-57 2.7237355879702262e-57 0.0000000000000000e+00  5.1751945269059766e-57 7.8114416155913811e-57 0.0000000000000000e+00  -4.5320106001816771e-57 1.1248453537950882e-56 0.0000000000000000e+00  -1.8132819022165413e-58 9.3940673247561526e-58 0.0000000000000000e+00  -2.3914611962424888e-58 4.6512017255578961e-58 0.0000000000000000e+00  -7.8753768873065869e-61 8.8102958128853633e-59 0.0000000000000000e+00  -2.4450716852298228e-59 6.4215479523946897e-59 0.0000000000000000e+00  -7.1131112847496978e-60 2.4993887148877291e-59 0.0000000000000000e+00  -4.3833312947516747e-60 2.2384539197731979e-59 0.0000000000000000e+00  -3.0616585474938051e-60 7.1667135889019205e-60 0.0000000000000000e+00  -8.5200765591940123e-62 4.4348318679647548e-61 0.0000000000000000e+00  -1.0754324604888555e-61 2.2336521378391825e-61 0.0000000000000000e+00  -3.5858606937776080e-62 5.6732063938398939e-62 0.0000000000000000e+00  -3.9084522176601986e-64 6.6966771081821696e-64 0.0000000000000000e+00  -2.4303579181686193e-65 5.1701940299335172e-65 0.0000000000000000e+00  3.7068587042337056e-66 1.0387545344609692e-65 0.0000000000000000e+00  -4.8408841591687552e-66 9.2608179171719778e-66 0.0000000000000000e+00  -6.6978230481007104e-68 2.7709842282743968e-67 0.0000000000000000e+00  -7.8515171133157411e-68 1.2916746989674271e-67 0.0000000000000000e+00  -8.0592853151846522e-69 1.1731307162679876e-68 0.0000000000000000e+00  -5.6324058685633636e-70 9.5198594732147726e-70 0.0000000000000000e+00  -3.7789560187514044e-71 6.8184123918735438e-71 0.0000000000000000e+00  -1.8782496428683349e-72 3.2026256684902207e-72 0.0000000000000000e+00  -1.2176771975185999e-73 2.7267113552753513e-73 0.0000000000000000e+00  -4.4209252594172544e-75 1.2911503961932911e-74 0.0000000000000000e+00  -2.5480609178433504e-75 4.2411972597687629e-75 0.0000000000000000e+00  -9.7689027447587715e-76 3.5583137261835238e-76 0.0000000000000000e+00  -1.6211187387154182e-75 -2.3923729460656428e-76 0.0000000000000000e+00  -2.4489008153331984e-74 1.1590993830441519e-74 0.0000000000000000e+00  -3.6791338575017874e-74 1.5503973144169515e-75 0.0000000000000000e+00  -3.8830122668564287e-73 1.4335197038780006e-73 0.0000000000000000e+00  -1.0237160660190805e-71 6.2387723035158867e-72 0.0000000000000000e+00  -6.7404550679036826e-71 3.7087159682542316e-71 0.0000000000000000e+00  -1.0610349430645036e-70 3.9036443008060430e-72 0.0000000000000000e+00  -8.9000864516386096e-70 3.3094822742233542e-70 0.0000000000000000e+00  -2.1284172531948136e-68 1.2867480499603682e-68 0.0000000000000000e+00  -1.0236450215649475e-67 5.1115977511199387e-68 0.0000000000000000e+00  -1.0136859207848374e-67 -6.0280124644948691e-68 0.0000000000000000e+00  -3.1653873511348465e-66 1.7466558558960480e-66 0.0000000000000000e+00  -3.1847808803393107e-65 1.8324298564850754e-65 0.0000000000000000e+00  -5.3857820115054643e-65 5.0479947077338300e-66 0.0000000000000000e+00  -4.4362527924685410e-64 1.4470737696740774e-64 0.0000000000000000e+00  -6.9919181876396265e-63 4.3609697940095717e-63 0.0000000000000000e+00  -1.5063442873217958e-62 3.7502895345377059e-63 0.0000000000000000e+00  -8.4328392202311324e-62 1.9673830281428556e-62 0.0000000000000000e+00  -1.3546747009256247e-60 8.5223555088030331e-61 0.0000000000000000e+00  -2.4168011438332172e-60 3.3837360636292187e-61 0.0000000000000000e+00  -2.1167472658578380e-59 7.4014089874947028e-60 0.0000000000000000e+00  -2.4165913315408255e-58 1.4952924981838338e-58 0.0000000000000000e+00  -2.5878813580020999e-58 -9.4227446029000445e-59 0.0000000000000000e+00  -5.9772814897849810e-57 2.7829511342902769e-57 0.0000000000000000e+00  -2.4831788622540046e-56 1.2396732918739308e-56 0.0000000000000000e+00  -5.5636153605096420e-56 -8.6886549088810820e-57 0.0000000000000000e+00  -1.0111367577075887e-54 6.4820706607835367e-55 0.0000000000000000e+00  -1.1206708966134101e-54 -3.4649820034546863e-55 0.0000000000000000e+00  -2.4077389116876090e-53 1.2696278832827656e-53 0.0000000000000000e+00  -6.5927596938888547e-53 2.9895279903999618e-53 0.0000000000000000e+00  -4.3563822176980301e-52 1.2244926554148308e-52 0.0000000000000000e+00  -2.6657019324224742e-51 1.6630252410885176e-51 0.0000000000000000e+00  -7.6658465944965808e-51 -2.1422624388672204e-52 0.0000000000000000e+00  -7.1967555687061185e-50 4.5962371904077378e-50 0.0000000000000000e+00  -1.6171961145811267e-49 -1.4773765880741310e-50 0.0000000000000000e+00  -1.7296084634396435e-48 1.0097553113110534e-48 0.0000000000000000e+00  -4.3411308701519546e-48 -2.0390464669200098e-49 0.0000000000000000e+00  -2.0139001339280491e-47 1.1092382914733456e-47 0.0000000000000000e+00  -1.1027812039394544e-46 1.8947479122260718e-47 0.0000000000000000e+00  -1.0247958557262109e-46 2.4585105029926864e-47 0.0000000000000000e+00  -1.2408135524105003e-45 5.2493466359248938e-46 0.0000000000000000e+00  -8.7362571943686939e-46 -5.6742612949274168e-46 0.0000000000000000e+00  -1.3432424746069760e-44 8.0638080718142150e-45 0.0000000000000000e+00  -5.7962586797450835e-44 1.3725647958472957e-44 0.0000000000000000e+00  -3.6150516176899315e-44 -1.7496908142719344e-44 0.0000000000000000e+00  -1.1426710806434512e-43 6.4942944296887260e-44 0.0000000000000000e+00  -8.4135554917252811e-43 2.3137545145819973e-43 0.0000000000000000e+00  -1.9291843511892935e-42 1.9734756557767109e-43 0.0000000000000000e+00  -2.5117775861194074e-42 6.0982982103585749e-44 0.0000000000000000e+00  -2.0145599848662444e-42 -1.9459813807690559e-43 0.0000000000000000e+00  -8.6142589691113524e-43 -2.5031742161515478e-43 0.0000000000000000e+00  -1.1326348169338904e-43 -6.4405456413930311e-44 0.0000000000000000e+00  -3.8710012304161030e-44 1.8484924795904896e-44 0.0000000000000000e+00  -6.3170495177259083e-44 -1.0812171526077897e-44 0.0000000000000000e+00  -1.4992040982122290e-44 -7.8599269919242844e-45 0.0000000000000000e+00  -9.9865236188018646e-46 5.6668711050697308e-46 0.0000000000000000e+00  -1.4041897755988939e-45 -5.3813476915893837e-46 0.0000000000000000e+00  -1.1209602593030943e-46 -2.8527356524515378e-47 0.0000000000000000e+00  -1.0182525228042268e-46 -2.1402243390400916e-47 0.0000000000000000e+00  -1.8615994849419693e-47 -1.1961357388547374e-47 0.0000000000000000e+00  -4.0855534320802532e-48 2.0303601237413930e-49 0.0000000000000000e+00  -1.4873341713656368e-48 -9.3497674337420420e-49 0.0000000000000000e+00  -1.6330514216074347e-49 2.4525796882368870e-50 0.0000000000000000e+00  -7.4605633004217085e-50 -4.4156482032659859e-50 0.0000000000000000e+00  -8.2458669147198905e-51 6.3993116075759071e-52 0.0000000000000000e+00  -3.1466409390556579e-51 -1.7814948062107629e-51 0.0000000000000000e+00  -5.1036581463303674e-52 -1.1452979149683832e-52 0.0000000000000000e+00  -8.2083558458399183e-53 -3.5429242973463875e-53 0.0000000000000000e+00  -2.6627560071609677e-53 -1.3142064670222423e-53 0.0000000000000000e+00  -1.1969807282377576e-54 3.2358309154280297e-55 0.0000000000000000e+00  -1.0641397830826290e-54 -6.7978606838066412e-55 0.0000000000000000e+00  -5.1518519810429333e-56 8.3411126730003093e-57 0.0000000000000000e+00  -2.3374014427410807e-56 -1.3225291543094492e-56 0.0000000000000000e+00  -4.8253753490800313e-57 -2.5189595297284819e-57 0.0000000000000000e+00  -2.4581882241952159e-58 8.5383070630807243e-59 0.0000000000000000e+00  -2.1590495534405300e-58 -1.3273895928353367e-58 0.0000000000000000e+00  -1.9913957178563135e-59 -6.1412581377805955e-60 0.0000000000000000e+00  -2.3751017004358856e-60 -3.3932302020588339e-61 0.0000000000000000e+00  -1.2912435573411603e-60 -7.6028940004209901e-61 0.0000000000000000e+00  -7.6917819455636781e-62 -2.1423689428403352e-62 0.0000000000000000e+00  -1.3595183574365255e-62 -2.9284807099051482e-63 0.0000000000000000e+00  -6.6408677399787630e-63 -3.7861200149552145e-63 0.0000000000000000e+00  -4.7838058828885720e-64 -1.8186581147585499e-64 0.0000000000000000e+00  -4.3638216799914569e-65 9.5757591501349493e-67 0.0000000000000000e+00  -2.9487536470450039e-65 -1.6613369936632065e-65 0.0000000000000000e+00  -3.4138822004879160e-66 -1.9879230253761029e-66 0.0000000000000000e+00  -8.9936639100109680e-68 5.4786070652657591e-68 0.0000000000000000e+00  -8.6377689385722683e-68 -4.1761714956428113e-68 0.0000000000000000e+00  -2.0685164560631684e-68 -1.2846123474617100e-68 0.0000000000000000e+00  -1.1327536921086530e-69 -5.1323759683326898e-70 0.0000000000000000e+00  -8.7941220263189003e-71 1.3786193101695168e-71 0.0000000000000000e+00  -6.9088419842465765e-71 -3.6565001173659280e-71 0.0000000000000000e+00  -1.2480217174530964e-71 -7.6611048021984903e-72 0.0000000000000000e+00  -5.9822556119939197e-73 -2.7507734021339223e-73 0.0000000000000000e+00  -3.9236724215699938e-74 7.4227344595636904e-75 0.0000000000000000e+00  -3.1566549863846660e-74 -1.4789136723339727e-74 0.0000000000000000e+00  -6.5907785112998850e-75 -3.3569484398745378e-75 0.0000000000000000e+00  -7.1799402208373761e-76 -3.1071172269766586e-76 0.0000000000000000e+00  -8.5517814619163275e-76 -1.6228598090612043e-75 0.0000000000000000e+00  -4.7734553269409384e-75 -1.3946006598983973e-74 0.0000000000000000e+00  4.3667158043153791e-75 -8.3085254097986917e-75 0.0000000000000000e+00  -1.6292991788465029e-73 -3.4273304283737047e-73 0.0000000000000000e+00  -9.2845828064456501e-71 -1.0070348789751740e-70 0.0000000000000000e+00  -7.5057282008229089e-70 -1.3177921965667863e-69 0.0000000000000000e+00  -1.0983206042376618e-69 -3.6513631242683368e-69 0.0000000000000000e+00  -7.7601014766189002e-68 -1.7115058990682482e-67 0.0000000000000000e+00  -6.5301407112519441e-68 -3.2600369187740189e-67 0.0000000000000000e+00  -6.7888449925439957e-66 -1.3501570413015382e-65 0.0000000000000000e+00  -4.5190777328754163e-66 -2.1317006501780555e-65 0.0000000000000000e+00  -9.0679747981770928e-65 -1.5577005047923204e-64 0.0000000000000000e+00  1.7216538761433551e-65 -2.1035364845371357e-64 0.0000000000000000e+00  -4.2748974196127035e-62 -6.4031343767331144e-62 0.0000000000000000e+00  -6.9972403715158273e-62 -1.7208202091110858e-61 0.0000000000000000e+00  -2.3255353374440546e-62 -2.7286725269837453e-61 0.0000000000000000e+00  -5.7391741977966865e-60 -1.1363480035523070e-59 0.0000000000000000e+00  4.7669314805526397e-60 -1.5019597238957516e-59 0.0000000000000000e+00  -2.9004254826128297e-59 -4.7493476152732667e-59 0.0000000000000000e+00  8.8199263839388648e-60 -6.0859961407220027e-59 0.0000000000000000e+00  2.3251386154056048e-59 -3.9716013358797016e-59 0.0000000000000000e+00  -5.6372691504925716e-58 -8.9482411649453205e-58 0.0000000000000000e+00  -1.3801082021789283e-59 -1.2602402775240403e-57 0.0000000000000000e+00  -4.6334141268033434e-57 -1.1638251039110733e-56 0.0000000000000000e+00  5.7490847161114702e-57 -8.6735908827780958e-57 0.0000000000000000e+00  -5.3336601100640177e-57 -7.3386965181235707e-57 0.0000000000000000e+00  -1.7670994693349823e-56 -3.7736011702097444e-56 0.0000000000000000e+00  2.1618524268112704e-56 -4.0709612614178394e-56 0.0000000000000000e+00  -5.0027317432750676e-57 -9.2012071752044446e-57 0.0000000000000000e+00  -8.1187099288205260e-56 -2.0311051632782393e-55 0.0000000000000000e+00  6.3742379870346670e-56 -5.0769041559690983e-55 0.0000000000000000e+00  -4.2902384939897924e-55 -7.2583361373085736e-55 0.0000000000000000e+00  -4.8810247410564121e-56 -1.8357496766692438e-54 0.0000000000000000e+00  1.6606075245432808e-55 -5.7395998504049435e-55 0.0000000000000000e+00  -5.1834466404189052e-55 -1.6760205560371660e-54 0.0000000000000000e+00  -2.2542408815544701e-54 -7.0720212192530861e-54 0.0000000000000000e+00  2.5829827208594582e-54 -6.0764209046369949e-54 0.0000000000000000e+00  -6.7222830294516602e-55 -2.3897973985452436e-54 0.0000000000000000e+00  5.3267773955229306e-55 -2.8190383859314070e-54 0.0000000000000000e+00  1.2827489574119434e-55 -1.4247848016213230e-54 0.0000000000000000e+00  -2.1810450463861827e-54 -3.4669057334526403e-54 0.0000000000000000e+00  5.7145114489572049e-55 -8.2270032510676644e-54 0.0000000000000000e+00  -3.9320391024756968e-54 -1.3558200260274048e-53 0.0000000000000000e+00  4.6942247526733165e-54 -7.7142435477706695e-54 0.0000000000000000e+00  2.0325387104527097e-55 -6.5059260807946723e-55 0.0000000000000000e+00  -4.8033287663924243e-54 -8.0092134190097652e-54 0.0000000000000000e+00  4.8291884827807142e-54 -7.8694604290605185e-54 0.0000000000000000e+00  -1.6626993206719669e-56 -1.3349940597307585e-55 0.0000000000000000e+00  1.1158899902920091e-56 -2.7680518775399864e-55 0.0000000000000000e+00  2.2079919575252560e-56 -9.8796623840673051e-56 0.0000000000000000e+00  -5.2071826952651149e-54 -9.3536822089712663e-54 0.0000000000000000e+00  5.5539272347595456e-54 -9.4080156267862556e-54 0.0000000000000000e+00  5.6782163942469401e-56 -1.0518968536805592e-55 0.0000000000000000e+00  -1.4337883723865402e-56 -6.2046998324263812e-56 0.0000000000000000e+00  -5.0022563509036177e-55 -9.0461798566901560e-55 0.0000000000000000e+00  -5.8182309432796494e-54 -1.0045416188231858e-53 0.0000000000000000e+00  4.5064541675616475e-54 -1.0492211198416712e-53 0.0000000000000000e+00  -3.0543692435554302e-54 -7.9850465555229757e-54 0.0000000000000000e+00  2.4404006754217008e-54 -8.5501468887190696e-54 0.0000000000000000e+00  2.2478181905888986e-54 -3.3064960120576578e-54 0.0000000000000000e+00  -5.4403483278021034e-55 -1.4797765283793236e-54 0.0000000000000000e+00  8.3619143831775955e-55 -1.5739711838696669e-54 0.0000000000000000e+00  -4.9264940882752810e-55 -9.8316990256661259e-55 0.0000000000000000e+00  5.1279900369007819e-55 -8.8558453540103891e-55 0.0000000000000000e+00  -1.5675071200537043e-56 -2.6918037881670065e-56 0.0000000000000000e+00  -4.4792878581561274e-56 -1.7217540110689648e-55 0.0000000000000000e+00  4.1745647864749187e-56 -1.7468579684147044e-55 0.0000000000000000e+00  4.8044258811749890e-57 -6.9031186676824600e-56 0.0000000000000000e+00  -2.7498395490598600e-56 -6.5422675455973015e-56 0.0000000000000000e+00  3.2892676996324055e-56 -6.4141996300717411e-56 0.0000000000000000e+00  -2.8597254077977100e-57 -2.8733091200667951e-56 0.0000000000000000e+00  1.2964179871273466e-56 -3.0022240103052165e-56 0.0000000000000000e+00  1.0027021421763847e-57 -2.3992073684132995e-57 0.0000000000000000e+00  -4.3837394760019936e-57 -7.6385362567738659e-57 0.0000000000000000e+00  4.2507658836116403e-57 -1.1007428775742362e-56 0.0000000000000000e+00  3.1251810804248734e-58 -1.0213349971797258e-57 0.0000000000000000e+00  1.4382103663108591e-58 -5.0263