<?xml version="1.0"?>
<VTKFile type="UnstructuredGrid"  version="0.1"  >
<UnstructuredGrid>
<Piece  NumberOfPoints="11902" NumberOfCells="23402">
<Points>
<DataArray  type="Float64"  NumberOfComponents="3"  format="ascii">-5 -5 0  5 -5 0  5 5 0  -5 5 0  1.081589080587751 0.0005410072067761849 0  -4.9 -5 0  -4.8 -5 0  -4.7 -5 0  -4.6 -5 0  -4.5 -5 0  -4.4 -5 0  -4.3 -5 0  -4.2 -5 0  -4.1 -5 0  -4 -5 0  -3.9 -5 0  -3.8 -5 0  -3.7 -5 0  -3.6 -5 0  -3.5 -5 0  -3.4 -5 0  -3.3 -5 0  -3.2 -5 0  -3.1 -5 0  -3 -5 0  -2.9 -5 0  -2.8 -5 0  -2.7 -5 0  -2.6 -5 0  -2.5 -5 0  -2.4 -5 0  -2.3 -5 0  -2.2 -5 0  -2.1 -5 0  -2 -5 0  -1.9 -5 0  -1.8 -5 0  -1.7 -5 0  -1.6 -5 0  -1.5 -5 0  -1.4 -5 0  -1.3 -5 0  -1.2 -5 0  -1.1 -5 0  -1 -5 0  -0.9000000000000004 -5 0  -0.7999999999999998 -5 0  -0.7000000000000002 -5 0  -0.5999999999999996 -5 0  -0.5 -5 0  -0.4000000000000004 -5 0  -0.2999999999999998 -5 0  -0.2000000000000002 -5 0  -0.09999999999999964 -5 0  0 -5 0  0.09999999999999964 -5 0  0.2000000000000002 -5 0  0.2999999999999998 -5 0  0.4000000000000004 -5 0  0.5 -5 0  0.5999999999999996 -5 0  0.7000000000000002 -5 0  0.7999999999999998 -5 0  0.9000000000000004 -5 0  1 -5 0  1.1 -5 0  1.2 -5 0  1.3 -5 0  1.4 -5 0  1.5 -5 0  1.6 -5 0  1.7 -5 0  1.8 -5 0  1.9 -5 0  2 -5 0  2.1 -5 0  2.2 -5 0  2.3 -5 0  2.4 -5 0  2.5 -5 0  2.6 -5 0  2.7 -5 0  2.8 -5 0  2.9 -5 0  3 -5 0  3.1 -5 0  3.199999999999999 -5 0  3.300000000000001 -5 0  3.4 -5 0  3.5 -5 0  3.6 -5 0  3.699999999999999 -5 0  3.800000000000001 -5 0  3.9 -5 0  4 -5 0  4.1 -5 0  4.199999999999999 -5 0  4.300000000000001 -5 0  4.4 -5 0  4.5 -5 0  4.6 -5 0  4.699999999999999 -5 0  4.800000000000001 -5 0  4.9 -5 0  5 -4.9 0  5 -4.8 0  5 -4.7 0  5 -4.6 0  5 -4.5 0  5 -4.4 0  5 -4.3 0  5 -4.2 0  5 -4.1 0  5 -4 0  5 -3.9 0  5 -3.8 0  5 -3.7 0  5 -3.6 0  5 -3.5 0  5 -3.4 0  5 -3.3 0  5 -3.2 0  5 -3.1 0  5 -3 0  5 -2.9 0  5 -2.8 0  5 -2.7 0  5 -2.6 0  5 -2.5 0  5 -2.4 0  5 -2.3 0  5 -2.2 0  5 -2.1 0  5 -2 0  5 -1.9 0  5 -1.8 0  5 -1.7 0  5 -1.6 0  5 -1.5 0  5 -1.4 0  5 -1.3 0  5 -1.2 0  5 -1.1 0  5 -1 0  5 -0.9000000000000004 0  5 -0.7999999999999998 0  5 -0.7000000000000002 0  5 -0.5999999999999996 0  5 -0.5 0  5 -0.4000000000000004 0  5 -0.2999999999999998 0  5 -0.2000000000000002 0  5 -0.09999999999999964 0  5 0 0  5 0.09999999999999964 0  5 0.2000000000000002 0  5 0.2999999999999998 0  5 0.4000000000000004 0  5 0.5 0  5 0.5999999999999996 0  5 0.7000000000000002 0  5 0.7999999999999998 0  5 0.9000000000000004 0  5 1 0  5 1.1 0  5 1.2 0  5 1.3 0  5 1.4 0  5 1.5 0  5 1.6 0  5 1.7 0  5 1.8 0  5 1.9 0  5 2 0  5 2.1 0  5 2.2 0  5 2.3 0  5 2.4 0  5 2.5 0  5 2.6 0  5 2.7 0  5 2.8 0  5 2.9 0  5 3 0  5 3.1 0  5 3.199999999999999 0  5 3.300000000000001 0  5 3.4 0  5 3.5 0  5 3.6 0  5 3.699999999999999 0  5 3.800000000000001 0  5 3.9 0  5 4 0  5 4.1 0  5 4.199999999999999 0  5 4.300000000000001 0  5 4.4 0  5 4.5 0  5 4.6 0  5 4.699999999999999 0  5 4.800000000000001 0  5 4.9 0  4.9 5 0  4.8 5 0  4.7 5 0  4.6 5 0  4.5 5 0  4.4 5 0  4.3 5 0  4.2 5 0  4.1 5 0  4 5 0  3.9 5 0  3.8 5 0  3.7 5 0  3.6 5 0  3.5 5 0  3.4 5 0  3.3 5 0  3.2 5 0  3.1 5 0  3 5 0  2.9 5 0  2.8 5 0  2.7 5 0  2.6 5 0  2.5 5 0  2.4 5 0  2.3 5 0  2.2 5 0  2.1 5 0  2 5 0  1.9 5 0  1.8 5 0  1.7 5 0  1.6 5 0  1.5 5 0  1.4 5 0  1.3 5 0  1.2 5 0  1.1 5 0  1 5 0  0.9000000000000004 5 0  0.7999999999999998 5 0  0.7000000000000002 5 0  0.5999999999999996 5 0  0.5 5 0  0.4000000000000004 5 0  0.2999999999999998 5 0  0.2000000000000002 5 0  0.09999999999999964 5 0  0 5 0  -0.09999999999999964 5 0  -0.2000000000000002 5 0  -0.2999999999999998 5 0  -0.4000000000000004 5 0  -0.5 5 0  -0.5999999999999996 5 0  -0.7000000000000002 5 0  -0.7999999999999998 5 0  -0.9000000000000004 5 0  -1 5 0  -1.1 5 0  -1.2 5 0  -1.3 5 0  -1.4 5 0  -1.5 5 0  -1.6 5 0  -1.7 5 0  -1.8 5 0  -1.9 5 0  -2 5 0  -2.1 5 0  -2.2 5 0  -2.3 5 0  -2.4 5 0  -2.5 5 0  -2.6 5 0  -2.7 5 0  -2.8 5 0  -2.9 5 0  -3 5 0  -3.1 5 0  -3.199999999999999 5 0  -3.300000000000001 5 0  -3.4 5 0  -3.5 5 0  -3.6 5 0  -3.699999999999999 5 0  -3.800000000000001 5 0  -3.9 5 0  -4 5 0  -4.1 5 0  -4.199999999999999 5 0  -4.300000000000001 5 0  -4.4 5 0  -4.5 5 0  -4.6 5 0  -4.699999999999999 5 0  -4.800000000000001 5 0  -4.9 5 0  -5 4.9 0  -5 4.8 0  -5 4.7 0  -5 4.6 0  -5 4.5 0  -5 4.4 0  -5 4.3 0  -5 4.2 0  -5 4.1 0  -5 4 0  -5 3.9 0  -5 3.8 0  -5 3.7 0  -5 3.6 0  -5 3.5 0  -5 3.4 0  -5 3.3 0  -5 3.2 0  -5 3.1 0  -5 3 0  -5 2.9 0  -5 2.8 0  -5 2.7 0  -5 2.6 0  -5 2.5 0  -5 2.4 0  -5 2.3 0  -5 2.2 0  -5 2.1 0  -5 2 0  -5 1.9 0  -5 1.8 0  -5 1.7 0  -5 1.6 0  -5 1.5 0  -5 1.4 0  -5 1.3 0  -5 1.2 0  -5 1.1 0  -5 1 0  -5 0.9000000000000004 0  -5 0.7999999999999998 0  -5 0.7000000000000002 0  -5 0.5999999999999996 0  -5 0.5 0  -5 0.4000000000000004 0  -5 0.2999999999999998 0  -5 0.2000000000000002 0  -5 0.09999999999999964 0  -5 0 0  -5 -0.09999999999999964 0  -5 -0.2000000000000002 0  -5 -0.2999999999999998 0  -5 -0.4000000000000004 0  -5 -0.5 0  -5 -0.5999999999999996 0  -5 -0.7000000000000002 0  -5 -0.7999999999999998 0  -5 -0.9000000000000004 0  -5 -1 0  -5 -1.1 0  -5 -1.2 0  -5 -1.3 0  -5 -1.4 0  -5 -1.5 0  -5 -1.6 0  -5 -1.7 0  -5 -1.8 0  -5 -1.9 0  -5 -2 0  -5 -2.1 0  -5 -2.2 0  -5 -2.3 0  -5 -2.4 0  -5 -2.5 0  -5 -2.6 0  -5 -2.7 0  -5 -2.8 0  -5 -2.9 0  -5 -3 0  -5 -3.1 0  -5 -3.199999999999999 0  -5 -3.300000000000001 0  -5 -3.4 0  -5 -3.5 0  -5 -3.6 0  -5 -3.699999999999999 0  -5 -3.800000000000001 0  -5 -3.9 0  -5 -4 0  -5 -4.1 0  -5 -4.199999999999999 0  -5 -4.300000000000001 0  -5 -4.4 0  -5 -4.5 0  -5 -4.6 0  -5 -4.699999999999999 0  -5 -4.800000000000001 0  -5 -4.9 0  1.076318463455974 0.1003777645342095 0  1.060096461661735 0.1996756891541193 0  1.032809934124808 0.2972656079213454 0  0.99624610494418 0.3910152542500169 0  0.9495591461136957 0.4818289014123763 0  0.8937719446152655 0.5675369436728573 0  0.8286571452034248 0.6473510690245671 0  0.7547975266078573 0.7205811022877083 0  0.6740649092665613 0.7869497918717184 0  0.5866421514840032 0.8457331129890554 0  0.4930447799248592 0.8957291360249166 0  0.3944587615255259 0.936957443904143 0  0.2928518909115929 0.9692151167107929 0  0.1876842132411437 0.9912801490205854 0  0.08124829558618646 1.003940509759102 0  -0.02629916955579279 1.006495077834653 0  -0.1335943107801789 0.9986976266548774 0  -0.2396546290002374 0.9816136309761845 0  -0.3433039302604526 0.9546505667935667 0  -0.4434198206733456 0.9179115730304018 0  -0.5389923045404318 0.8724415526713803 0  -0.6293855120703582 0.8179777620111114 0  -0.7135395488206407 0.7555556837684392 0  -0.7906679248452199 0.6857594486557119 0  -0.8601074777582085 0.6084685644427295 0  -0.9206911889577691 0.5253589304870971 0  -0.9726313827226689 0.4374026339187276 0  -1.014470468362857 0.3447010854188857 0  -1.046064465244107 0.2489011670350608 0  -1.067514782603512 0.1506645641104819 0  -1.078394847084956 0.05062961179386343 0  -1.078415379177024 -0.04996009604050652 0  -1.067558081209535 -0.149889989941494 0  -1.047011397092799 -0.2480920863375043 0  -1.014452976769562 -0.3442763272562188 0  -0.9727997426249552 -0.4365872804141236 0  -0.9210341846026729 -0.5246938612176285 0  -0.8605178591090475 -0.6075966496612927 0  -0.7910427585150053 -0.6844376642964828 0  -0.7135865278761535 -0.7540927688616224 0  -0.6290633594244697 -0.8160983340252979 0  -0.5392439514874321 -0.8708737804075619 0  -0.4426548759061371 -0.9163719057054289 0  -0.3424721152221376 -0.9534138127850217 0  -0.2386490902313432 -0.9805937664810526 0  -0.1328006391809946 -0.9979771022018773 0  -0.02575751496531258 -1.006185563763139 0  0.08147189773837132 -1.003334816665732 0  0.1884294299990235 -0.9904455025938866 0  0.2931632394842193 -0.9683090252078743 0  0.3956846621591883 -0.936112908885281 0  0.4934715368112751 -0.89497366744996 0  0.5869511025386098 -0.8450529228881302 0  0.6742674789509612 -0.7871655633407856 0  0.754966141736316 -0.7207945494466567 0  0.8284182064603384 -0.6470197377191178 0  0.8933033682618565 -0.5669596667874626 0  0.9497429884043684 -0.4814643278624081 0  0.9970497654054252 -0.3910599624758206 0  1.033499972136582 -0.2969259484658106 0  1.060150146999597 -0.1993339147023835 0  1.076355749700325 -0.1002160253479934 0  -2.449401960838303 4.919667493054151 0  -2.449350682022276 -4.91218627799875 0  4.912150407104533 2.449112253371145 0  4.920116765697781 -2.450463408686264 0  2.447230066041894 -4.897713718368052 0  2.441628956255124 4.901411568665123 0  -4.912163105732037 -2.449125259540182 0  -4.912164726674543 2.449128921385979 0  -1.749383263807194 4.913237233074045 0  -1.745132103885059 -4.916589004596861 0  4.922781352736263 1.745170783888669 0  4.911619497011015 -1.749093044553184 0  -4.911886107178303 -1.748808463753549 0  -4.91269110558851 1.748540153378422 0  1.746709716808059 4.907259547907731 0  1.748233500874012 -4.895696642254616 0  -1.149516517776033 4.911487851883474 0  -1.130304576765531 -4.919173950089566 0  -4.912215920046769 -1.148916346247141 0  -4.912044336092499 1.1487152654151 0  1.144466944493864 -4.915472389178371 0  1.149518257357753 4.911482538579653 0  4.912381331851033 1.147199518399069 0  4.922842250927286 -1.152866575529529 0  -0.5470202170433424 -4.912906160558952 0  -0.5467688282064791 4.921320885287817 0  -4.911440524877507 -0.5492578636761137 0  -4.911466472326783 0.5478093909139616 0  4.91081886707081 -0.5495868185853172 0  4.922029678173518 0.54626902067667 0  0.5428358846034038 -4.900212062178079 0  0.5515032047111524 4.918247921738955 0  -4.913034270192831 -3.049274932435574 0  4.919529351870783 3.047228160892447 0  4.912555090951159 -3.049266699631593 0  -4.913876732404038 3.04635865436626 0  3.056038048900923 -4.918508397415524 0  -3.049424055010945 -4.912521399892171 0  3.052974670313717 4.914579212363641 0  -3.048865024557079 4.913402095484533 0  -4.910732790582983 -0.04996260172825924 0  0.04514139007913995 -4.914877932260948 0  0.04959174956408265 4.921681382911227 0  4.917539964482541 -0.05134121794656642 0  3.546203947556352 -4.919815247450006 0  -3.54953
[...]
<PointData  Vectors="f_790"> 
<DataArray  type="Float64"  Name="f_790"  NumberOfComponents="3" format="ascii">2.6559658580597462e-76 2.6559658580597462e-76 0.0000000000000000e+00  -2.8445085011135931e-76 2.8445085011135931e-76 0.0000000000000000e+00  -8.5659604778773534e-78 -8.5659604778773534e-78 0.0000000000000000e+00  3.0308186857303181e-76 -3.0308186857303181e-76 0.0000000000000000e+00  -7.9264799522468488e-01 -1.6668675807974591e-02 0.0000000000000000e+00  4.1635597422485950e-75 6.6083147073373547e-75 0.0000000000000000e+00  2.0847118425551591e-75 2.0877960512705948e-74 0.0000000000000000e+00  -3.3989816226685915e-75 6.7655704846642447e-75 0.0000000000000000e+00  3.9916068169651967e-72 6.6755574238320784e-72 0.0000000000000000e+00  5.3047260689347765e-71 1.3468922613819785e-70 0.0000000000000000e+00  -7.8892812116016030e-72 4.5526180392903941e-71 0.0000000000000000e+00  3.2210625546797671e-69 6.1736886120972585e-69 0.0000000000000000e+00  5.1364480488741596e-68 9.4199456361011258e-68 0.0000000000000000e+00  -3.0439425358219874e-68 1.4983601181755921e-67 0.0000000000000000e+00  1.2695348810719896e-67 3.9877454413523362e-67 0.0000000000000000e+00  1.2848101104607639e-68 8.7777429115275052e-67 0.0000000000000000e+00  5.4114678466018327e-64 8.8553810614586867e-64 0.0000000000000000e+00  4.7822536300558496e-65 2.4417094602450253e-63 0.0000000000000000e+00  1.3371375315867314e-62 2.2083010038194989e-62 0.0000000000000000e+00  8.0140099293308147e-63 8.3226507256890373e-62 0.0000000000000000e+00  6.8592039333539532e-61 1.1076338310483961e-60 0.0000000000000000e+00  4.0164095143145466e-60 7.0397437047105527e-60 0.0000000000000000e+00  -2.8119499389408409e-60 7.6746094158302271e-60 0.0000000000000000e+00  5.5914622868386988e-59 1.1417033915452938e-58 0.0000000000000000e+00  -1.7340819229112340e-59 1.1630192858018240e-58 0.0000000000000000e+00  -2.9584417411980390e-59 6.8099704485168167e-59 0.0000000000000000e+00  1.7744246987281881e-58 3.3215721945235933e-58 0.0000000000000000e+00  7.1854361798542211e-58 2.0964850077363798e-57 0.0000000000000000e+00  2.8112472967499983e-57 6.2614932450628742e-57 0.0000000000000000e+00  -3.3443995805857494e-57 5.7034573776657243e-57 0.0000000000000000e+00  -3.4543737314461748e-58 1.0941903445211591e-57 0.0000000000000000e+00  1.8707840236783424e-56 2.9515395872462310e-56 0.0000000000000000e+00  -1.3829390254733074e-56 3.5164275657604058e-56 0.0000000000000000e+00  1.1659513838835190e-56 2.9056300900832494e-56 0.0000000000000000e+00  8.5460203950730557e-56 2.1064804611784295e-55 0.0000000000000000e+00  -2.4218740571889498e-56 5.7414995663120960e-55 0.0000000000000000e+00  5.0835084182976584e-57 8.6635799533522032e-57 0.0000000000000000e+00  5.4081988329208593e-56 1.3870985012822980e-55 0.0000000000000000e+00  1.5104705289681193e-55 6.1845941877745008e-55 0.0000000000000000e+00  -2.1753448650459449e-55 3.4966829920070622e-55 0.0000000000000000e+00  9.5678334393818502e-55 1.7315413136471431e-54 0.0000000000000000e+00  -4.2777510264464977e-55 4.3588832201986174e-54 0.0000000000000000e+00  -2.2081578106427501e-55 2.6808321467429054e-54 0.0000000000000000e+00  -9.3128031307838555e-56 9.4342867431039887e-55 0.0000000000000000e+00  -1.0964982996165594e-55 1.8148059494947846e-55 0.0000000000000000e+00  2.6754753585555255e-54 5.2511672611032792e-54 0.0000000000000000e+00  -2.0919597948534167e-54 4.1271292378551081e-54 0.0000000000000000e+00  -6.9627211434922495e-55 8.0453102868505969e-55 0.0000000000000000e+00  -1.2774612754206094e-55 2.7081768588224299e-55 0.0000000000000000e+00  9.0006606528613510e-55 1.4487093054222371e-54 0.0000000000000000e+00  9.1507357842048358e-55 6.1590597750350691e-54 0.0000000000000000e+00  -1.0906068125832729e-54 5.8981693803883799e-54 0.0000000000000000e+00  4.9784003301023296e-55 4.6503234822651001e-54 0.0000000000000000e+00  1.8631043335123457e-56 5.7948523008177872e-54 0.0000000000000000e+00  2.9168028029397491e-55 6.1530729313191162e-54 0.0000000000000000e+00  -1.2195023378476584e-54 2.0451510880760470e-54 0.0000000000000000e+00  -6.2518268362052293e-55 1.4731627038166373e-53 0.0000000000000000e+00  4.3156947795739644e-54 7.4602895049830134e-54 0.0000000000000000e+00  -4.2043872006137572e-54 8.1084536222159617e-54 0.0000000000000000e+00  1.8590877468691097e-54 3.9505059679268724e-54 0.0000000000000000e+00  -7.1415355487554687e-55 9.5048414248268846e-54 0.0000000000000000e+00  1.2869474145389941e-54 9.3251870248943740e-54 0.0000000000000000e+00  -1.6320864576420276e-54 4.4054656307238148e-54 0.0000000000000000e+00  -8.9699784995274441e-55 2.4107308356758293e-54 0.0000000000000000e+00  3.2273267471773886e-55 1.2977760471905377e-54 0.0000000000000000e+00  2.5714750201316715e-55 2.5363122357007826e-54 0.0000000000000000e+00  -7.7100992639475039e-56 3.4911705933575819e-54 0.0000000000000000e+00  -6.9142813655313492e-55 1.4872292482779497e-54 0.0000000000000000e+00  2.3115478333130227e-55 4.4069427778031334e-55 0.0000000000000000e+00  -2.2493233295805597e-55 6.0438332464799228e-55 0.0000000000000000e+00  4.8950558931400349e-56 2.3938582797053184e-55 0.0000000000000000e+00  1.8158919625374815e-55 9.5082556232971152e-55 0.0000000000000000e+00  -3.2237655232839627e-55 5.3326662209646073e-55 0.0000000000000000e+00  -1.5548905357935992e-56 4.8373244394941873e-56 0.0000000000000000e+00  -1.1133238811647761e-57 1.1344307218807516e-56 0.0000000000000000e+00  6.5974576362853907e-57 2.3486967068692954e-56 0.0000000000000000e+00  -8.8079234122488875e-57 1.5106748933554434e-56 0.0000000000000000e+00  1.7060177250241946e-57 2.8703346606381346e-57 0.0000000000000000e+00  -1.2204107081868859e-57 2.7361710946532627e-57 0.0000000000000000e+00  5.0797354740640730e-57 7.7599056681885371e-57 0.0000000000000000e+00  -4.4572994799049681e-57 1.1292393617366114e-56 0.0000000000000000e+00  -1.7834557481511836e-58 9.4116018786917013e-58 0.0000000000000000e+00  -2.3545454289395909e-58 4.6737974714064877e-58 0.0000000000000000e+00  -7.7594553715674035e-61 8.8110248101860272e-59 0.0000000000000000e+00  -2.4112107749966373e-59 6.4435453178363330e-59 0.0000000000000000e+00  -7.0205355681186599e-60 2.5055827048851003e-59 0.0000000000000000e+00  -4.3370220489422640e-60 2.2418450433072685e-59 0.0000000000000000e+00  -3.0284760857027572e-60 7.1905998059088780e-60 0.0000000000000000e+00  -8.4287909412011921e-62 4.4414179413488636e-61 0.0000000000000000e+00  -1.0648310184984570e-61 2.2415011572732126e-61 0.0000000000000000e+00  -3.5543693212362780e-62 5.6972655202091036e-62 0.0000000000000000e+00  -3.8760528272392022e-64 6.7217355624860413e-64 0.0000000000000000e+00  -2.4125777974355364e-65 5.1842961046608650e-65 0.0000000000000000e+00  3.6780709660970394e-66 1.0364940983704205e-65 0.0000000000000000e+00  -4.8122697612370273e-66 9.2842469174577231e-66 0.0000000000000000e+00  -6.6598173841219773e-68 2.7741075650257952e-67 0.0000000000000000e+00  -7.8131169068103640e-68 1.2948777803202939e-67 0.0000000000000000e+00  -8.0254395790661340e-69 1.1759869762021002e-68 0.0000000000000000e+00  -5.6123112718157921e-70 9.5369697024901497e-70 0.0000000000000000e+00  -3.7679820736483402e-71 6.8278332725905056e-71 0.0000000000000000e+00  -1.8739620710400036e-72 3.2063295384793915e-72 0.0000000000000000e+00  -1.2160307958534778e-73 2.7281452755759790e-73 0.0000000000000000e+00  -4.4156809683661435e-75 1.2916067488266210e-74 0.0000000000000000e+00  -2.5466020227483607e-75 4.2424696375991559e-75 0.0000000000000000e+00  -9.7713723114980159e-76 3.5561569216597233e-76 0.0000000000000000e+00  -1.6204985112153269e-75 -2.3869241941045321e-76 0.0000000000000000e+00  -2.4507737622513086e-74 1.1574567964054979e-74 0.0000000000000000e+00  -3.6795087569851962e-74 1.5470872270082445e-75 0.0000000000000000e+00  -3.8865621347028063e-73 1.4303915000981034e-73 0.0000000000000000e+00  -1.0258787261835646e-71 6.2194479935194830e-72 0.0000000000000000e+00  -6.7558717158356784e-71 3.6947912466710425e-71 0.0000000000000000e+00  -1.0612257718152697e-70 3.8861735158334126e-72 0.0000000000000000e+00  -8.9162143505155799e-70 3.2947613670567441e-70 0.0000000000000000e+00  -2.1359821967594146e-68 1.2796709341213427e-68 0.0000000000000000e+00  -1.0269979055996252e-67 5.0796671238422488e-68 0.0000000000000000e+00  -1.0092209973466516e-67 -5.9844171064369369e-68 0.0000000000000000e+00  -3.1784792851852664e-66 1.7338436908545490e-66 0.0000000000000000e+00  -3.1998547183451252e-65 1.8172935245214963e-65 0.0000000000000000e+00  -5.3902791458911896e-65 5.0016233751523911e-66 0.0000000000000000e+00  -4.4490550279026598e-64 1.4339539645927181e-64 0.0000000000000000e+00  -7.0346930260130987e-63 4.3150877520192391e-63 0.0000000000000000e+00  -1.5102555268384028e-62 3.7069755018197221e-63 0.0000000000000000e+00  -8.4527609330742183e-62 1.9458751834926063e-62 0.0000000000000000e+00  -1.3642670790665397e-60 8.4108471942291476e-61 0.0000000000000000e+00  -2.4208009573654097e-60 3.3353363843797137e-61 0.0000000000000000e+00  -2.1254829576972857e-59 7.2963322870199723e-60 0.0000000000000000e+00  -2.4352515501813239e-58 1.4714228700710408e-58 0.0000000000000000e+00  -2.5756854339081159e-58 -9.2586195341219333e-59 0.0000000000000000e+00  -6.0135070305139225e-57 2.7338539637790591e-57 0.0000000000000000e+00  -2.4997811120061447e-56 1.2158193998844163e-56 0.0000000000000000e+00  -5.5513844328424177e-56 -8.4830434681458813e-57 0.0000000000000000e+00  -1.0200266457128326e-54 6.3444773825410485e-55 0.0000000000000000e+00  -1.1158753664122252e-54 -3.3855397137669039e-55 0.0000000000000000e+00  -2.4253389466416418e-53 1.2401951420291272e-53 0.0000000000000000e+00  -6.6340694485979190e-53 2.9148637502131007e-53 0.0000000000000000e+00  -4.3734290939100606e-52 1.1944835217508408e-52 0.0000000000000000e+00  -2.6882675341117067e-51 1.6178510945943167e-51 0.0000000000000000e+00  -7.6639989396838476e-51 -2.0419245164649644e-52 0.0000000000000000e+00  -7.2567126961203823e-50 4.4610722311286382e-50 0.0000000000000000e+00  -1.6156518145994546e-49 -1.4241359905024272e-50 0.0000000000000000e+00  -1.7419638934411232e-48 9.7787124139065806e-49 0.0000000000000000e+00  -4.3398236964272901e-48 -1.9536864805306714e-49 0.0000000000000000e+00  -2.0261643321399700e-47 1.0718063939309872e-47 0.0000000000000000e+00  -1.1050670951660001e-46 1.8329578615835817e-47 0.0000000000000000e+00  -1.0270907942241691e-46 2.3701329009073001e-47 0.0000000000000000e+00  -1.2457212333144271e-45 5.0603815265293555e-46 0.0000000000000000e+00  -8.6950856630994433e-46 -5.4599765596611431e-46 0.0000000000000000e+00  -1.3490195825970290e-44 7.7586732638412257e-45 0.0000000000000000e+00  -5.8065434652894962e-44 1.3206844674828519e-44 0.0000000000000000e+00  -3.6083661140485918e-44 -1.6805443651305323e-44 0.0000000000000000e+00  -1.1452289180394922e-43 6.2380054545141478e-44 0.0000000000000000e+00  -8.4226682315967795e-43 2.2222031042220732e-43 0.0000000000000000e+00  -1.9303439768610351e-42 1.8953404986074932e-43 0.0000000000000000e+00  -2.5130080034927454e-42 5.8536883416259927e-44 0.0000000000000000e+00  -2.0157198839881645e-42 -1.8689264648546205e-43 0.0000000000000000e+00  -8.6236327939101782e-43 -2.4040194024949668e-43 0.0000000000000000e+00  -1.1351375252513167e-43 -6.1862853421145286e-44 0.0000000000000000e+00  -3.8639861956852492e-44 1.7754360669027188e-44 0.0000000000000000e+00  -6.3256586772671123e-44 -1.0406081606444126e-44 0.0000000000000000e+00  -1.5048182789745770e-44 -7.5624807440779372e-45 0.0000000000000000e+00  -9.9455057083645166e-46 5.4528662055783018e-46 0.0000000000000000e+00  -1.4091944062102965e-45 -5.1874438195879061e-46 0.0000000000000000e+00  -1.1236405839758852e-46 -2.7504108151180746e-47 0.0000000000000000e+00  -1.0207424198362413e-46 -2.0692772943310190e-47 0.0000000000000000e+00  -1.8747631679229040e-47 -1.1556846622259098e-47 0.0000000000000000e+00  -4.0843210660978506e-48 1.9443253515548064e-49 0.0000000000000000e+00  -1.4987388688760979e-48 -9.0539052199043460e-49 0.0000000000000000e+00  -1.6302978662143334e-49 2.3689846702254770e-50 0.0000000000000000e+00  -7.5180812584585150e-50 -4.2856888520230114e-50 0.0000000000000000e+00  -8.2383700142405982e-51 6.1778522603011976e-52 0.0000000000000000e+00  -3.1707736202575426e-51 -1.7329978926087058e-51 0.0000000000000000e+00  -5.1196188965730012e-52 -1.1174369788537946e-52 0.0000000000000000e+00  -8.2572636034432563e-53 -3.4543699164208044e-53 0.0000000000000000e+00  -2.6809595141357778e-53 -1.2836703257333442e-53 0.0000000000000000e+00  -1.1925061094063604e-54 3.1616184782057360e-55 0.0000000000000000e+00  -1.0734566051735750e-54 -6.6534783101127665e-55 0.0000000000000000e+00  -5.1401298226176381e-56 8.1442193461493548e-57 0.0000000000000000e+00  -2.3551007396920924e-56 -1.2970832861979719e-56 0.0000000000000000e+00  -4.8581611799464147e-57 -2.4744544036984454e-57 0.0000000000000000e+00  -2.4471347237509145e-58 8.3892245691756589e-59 0.0000000000000000e+00  -2.1756292118085644e-58 -1.3061135758313604e-58 0.0000000000000000e+00  -1.9986252602781946e-59 -6.0543868184620342e-60 0.0000000000000000e+00  -2.3791123253703065e-60 -3.3446094805751070e-61 0.0000000000000000e+00  -1.2998060913553699e-60 -7.5031247969388231e-61 0.0000000000000000e+00  -7.7138422318613909e-62 -2.1182260920103237e-62 0.0000000000000000e+00  -1.3625836206715559e-62 -2.8944067084918505e-63 0.0000000000000000e+00  -6.6780952735351502e-63 -3.7460656851896749e-63 0.0000000000000000e+00  -4.8001623374537115e-64 -1.8017413797777273e-64 0.0000000000000000e+00  -4.3629659712924233e-65 9.4872708367440160e-67 0.0000000000000000e+00  -2.9624415474490562e-65 -1.6475626466894643e-65 0.0000000000000000e+00  -3.4288487144781413e-66 -1.9732347982912130e-66 0.0000000000000000e+00  -8.9526685261151054e-68 5.4384231107090063e-68 0.0000000000000000e+00  -8.6652042954083193e-68 -4.1499929542325974e-68 0.0000000000000000e+00  -2.0760808186887705e-68 -1.2775221857978535e-68 0.0000000000000000e+00  -1.1353227761266618e-69 -5.1087979792225715e-70 0.0000000000000000e+00  -8.7873319121620225e-71 1.3723876691730355e-71 0.0000000000000000e+00  -6.9240614525023297e-71 -3.6427283945033482e-71 0.0000000000000000e+00  -1.2506864703746689e-71 -7.6372480757169031e-72 0.0000000000000000e+00  -5.9894900058620881e-73 -2.7443704535981568e-73 0.0000000000000000e+00  -3.9217972496613975e-74 7.4061332020826359e-75 0.0000000000000000e+00  -3.1592477284448551e-74 -1.4766331940577193e-74 0.0000000000000000e+00  -6.5943328993443253e-75 -3.3538343305938938e-75 0.0000000000000000e+00  -7.1809323034122867e-76 -3.1062505193539626e-76 0.0000000000000000e+00  -8.5478598064079563e-76 -1.6232025416316370e-75 0.0000000000000000e+00  -4.7709006176293727e-75 -1.3948250289164199e-74 0.0000000000000000e+00  4.3576826689725021e-75 -8.3006937951046906e-75 0.0000000000000000e+00  -1.6257976209514174e-73 -3.4303647172244297e-73 0.0000000000000000e+00  -9.2569286555119654e-71 -1.0094136899873319e-70 0.0000000000000000e+00  -7.4781978824655292e-70 -1.3201372649510083e-69 0.0000000000000000e+00  -1.0936037186960659e-69 -3.6553438606475635e-69 0.0000000000000000e+00  -7.7227255003932721e-68 -1.7146329897228291e-67 0.0000000000000000e+00  -6.4934742804001318e-68 -3.2630589575812153e-67 0.0000000000000000e+00  -6.7487122636020174e-66 -1.3534487438328087e-65 0.0000000000000000e+00  -4.4872765257705733e-66 -2.1342426923028964e-65 0.0000000000000000e+00  -8.9991703431378400e-65 -1.5631288809216294e-64 0.0000000000000000e+00  1.7069860907496569e-65 -2.1024067145274573e-64 0.0000000000000000e+00  -4.2371172827020251e-62 -6.4320068222959335e-62 0.0000000000000000e+00  -6.9278939303693214e-62 -1.7259571408208409e-61 0.0000000000000000e+00  -2.3005555982693783e-62 -2.7304771612502836e-61 0.0000000000000000e+00  -5.6760134599937522e-60 -1.1408778126088187e-59 0.0000000000000000e+00  4.7033876071033789e-60 -1.4977326840481093e-59 0.0000000000000000e+00  -2.8631481983979688e-59 -4.7744934795967512e-59 0.0000000000000000e+00  8.6962929976219437e-60 -6.0779932023717559e-59 0.0000000000000000e+00  2.2896995370658501e-59 -3.9496773261597645e-59 0.0000000000000000e+00  -5.5512716808759464e-58 -9.0014161138415663e-58 0.0000000000000000e+00  -1.3573415772767283e-59 -1.2603742465522542e-57 0.0000000000000000e+00  -4.5570194735969765e-57 -1.1683306816560499e-56 0.0000000000000000e+00  5.6420281270825451e-57 -8.6160634062094914e-57 0.0000000000000000e+00  -5.2333582949420425e-57 -7.3921476167218490e-57 0.0000000000000000e+00  -1.7320190352118501e-56 -3.7913856554299466e-56 0.0000000000000000e+00  2.1160063539574996e-56 -4.0492570889733592e-56 0.0000000000000000e+00  -4.8957447494695727e-57 -9.2513706815825436e-57 0.0000000000000000e+00  -7.9410239465258280e-56 -2.0392186085798867e-55 0.0000000000000000e+00  6.2018652999404641e-56 -5.0711359825956278e-55 0.0000000000000000e+00  -4.1870058743239678e-55 -7.2996192200425422e-55 0.0000000000000000e+00  -4.8172280155992782e-56 -1.8363937532331284e-54 0.0000000000000000e+00  1.6175549456692322e-55 -5.7245755689812304e-55 0.0000000000000000e+00  -5.0519655786165702e-55 -1.6808524734106041e-54 0.0000000000000000e+00  -2.1947458278600370e-54 -7.0920955377006998e-54 0.0000000000000000e+00  2.5088077389025012e-54 -6.0568177591478971e-54 0.0000000000000000e+00  -6.5357009302262891e-55 -2.3953407857310232e-54 0.0000000000000000e+00  5.1625686972388553e-55 -2.8159124854710726e-54 0.0000000000000000e+00  1.2406281222225527e-55 -1.4242951322442947e-54 0.0000000000000000e+00  -2.1147532808160146e-54 -3.4802462634547026e-54 0.0000000000000000e+00  5.5181280737566877e-55 -8.2263965846262373e-54 0.0000000000000000e+00  -3.8107948494850401e-54 -1.3580661126385759e-53 0.0000000000000000e+00  4.5442701412451324e-54 -7.6957106217769797e-54 0.0000000000000000e+00  1.9663747405519031e-55 -6.5005609004287785e-55 0.0000000000000000e+00  -4.6479958396188011e-54 -8.0240698768213069e-54 0.0000000000000000e+00  4.6710995868943523e-54 -7.8607725620110151e-54 0.0000000000000000e+00  -1.6081495317600283e-56 -1.3352276093804326e-55 0.0000000000000000e+00  1.0785227937989528e-56 -2.7687848847167461e-55 0.0000000000000000e+00  2.1352871835886642e-56 -9.8798835802285705e-56 0.0000000000000000e+00  -5.0357563807210091e-54 -9.3512343434551584e-54 0.0000000000000000e+00  5.3720993713171743e-54 -9.4180628403847765e-54 0.0000000000000000e+00  5.4932146682739584e-56 -1.0532608844940312e-55 0.0000000000000000e+00  -1.3867268018019730e-56 -6.2021446906750330e-56 0.0000000000000000e+00  -4.8409975321425972e-55 -9.0294049725830390e-55 0.0000000000000000e+00  -5.6327510384534910e-54 -1.0021611687584690e-53 0.0000000000000000e+00  4.3652326660276404e-54 -1.0514617663863451e-53 0.0000000000000000e+00  -2.9597662326437466e-54 -7.9683590266472989e-54 0.0000000000000000e+00  2.3660954054757521e-54 -8.5649807761351055e-54 0.0000000000000000e+00  2.1807829139261691e-54 -3.3215783784488889e-54 0.0000000000000000e+00  -5.2800867467903702e-55 -1.4759562920752887e-54 0.0000000000000000e+00  8.1258373612501562e-55 -1.5806008413247110e-54 0.0000000000000000e+00  -4.7861543316288843e-55 -9.7934453098833874e-55 0.0000000000000000e+00  4.9902493320828912e-55 -8.9003653038184886e-55 0.0000000000000000e+00  -1.5256385984961884e-56 -2.6780930541156053e-56 0.0000000000000000e+00  -4.3580682486460200e-56 -1.7178779712214847e-55 0.0000000000000000e+00  4.0764576804709108e-56 -1.7509718930840406e-55 0.0000000000000000e+00  4.7126880074398729e-57 -6.9083386129617946e-56 0.0000000000000000e+00  -2.6853879064492732e-56 -6.5153503973627027e-56 0.0000000000000000e+00  3.2159846833758564e-56 -6.4470124752012149e-56 0.0000000000000000e+00  -2.7978304570700957e-57 -2.8704364342480062e-56 0.0000000000000000e+00  1.2705658126093158e-56 -3.0153398086303218e-56 0.0000000000000000e+00  9.8352996744059546e-58 -2.4093180870742571e-57 0.0000000000000000e+00  -4.2990376825366462e-57 -7.5943326685406884e-57 0.0000000000000000e+00  4.1774404505533456e-57 -1.1049478503376040e-56 0.0000000000000000e+00  3.0715365028091215e-58 -1.0244163205924177e-57 0.0000000000000000e+00  1.4147995543571243e-58 -5.040261