<?xml version="1.0"?>
<VTKFile type="UnstructuredGrid"  version="0.1"  >
<UnstructuredGrid>
<Piece  NumberOfPoints="11902" NumberOfCells="23402">
<Points>
<DataArray  type="Float64"  NumberOfComponents="3"  format="ascii">-5 -5 0  5 -5 0  5 5 0  -5 5 0  1.173320816211858 0.001150185367134916 0  -4.9 -5 0  -4.8 -5 0  -4.7 -5 0  -4.6 -5 0  -4.5 -5 0  -4.4 -5 0  -4.3 -5 0  -4.2 -5 0  -4.1 -5 0  -4 -5 0  -3.9 -5 0  -3.8 -5 0  -3.7 -5 0  -3.6 -5 0  -3.5 -5 0  -3.4 -5 0  -3.3 -5 0  -3.2 -5 0  -3.1 -5 0  -3 -5 0  -2.9 -5 0  -2.8 -5 0  -2.7 -5 0  -2.6 -5 0  -2.5 -5 0  -2.4 -5 0  -2.3 -5 0  -2.2 -5 0  -2.1 -5 0  -2 -5 0  -1.9 -5 0  -1.8 -5 0  -1.7 -5 0  -1.6 -5 0  -1.5 -5 0  -1.4 -5 0  -1.3 -5 0  -1.2 -5 0  -1.1 -5 0  -1 -5 0  -0.9000000000000004 -5 0  -0.7999999999999998 -5 0  -0.7000000000000002 -5 0  -0.5999999999999996 -5 0  -0.5 -5 0  -0.4000000000000004 -5 0  -0.2999999999999998 -5 0  -0.2000000000000002 -5 0  -0.09999999999999964 -5 0  0 -5 0  0.09999999999999964 -5 0  0.2000000000000002 -5 0  0.2999999999999998 -5 0  0.4000000000000004 -5 0  0.5 -5 0  0.5999999999999996 -5 0  0.7000000000000002 -5 0  0.7999999999999998 -5 0  0.9000000000000004 -5 0  1 -5 0  1.1 -5 0  1.2 -5 0  1.3 -5 0  1.4 -5 0  1.5 -5 0  1.6 -5 0  1.7 -5 0  1.8 -5 0  1.9 -5 0  2 -5 0  2.1 -5 0  2.2 -5 0  2.3 -5 0  2.4 -5 0  2.5 -5 0  2.6 -5 0  2.7 -5 0  2.8 -5 0  2.9 -5 0  3 -5 0  3.1 -5 0  3.199999999999999 -5 0  3.300000000000001 -5 0  3.4 -5 0  3.5 -5 0  3.6 -5 0  3.699999999999999 -5 0  3.800000000000001 -5 0  3.9 -5 0  4 -5 0  4.1 -5 0  4.199999999999999 -5 0  4.300000000000001 -5 0  4.4 -5 0  4.5 -5 0  4.6 -5 0  4.699999999999999 -5 0  4.800000000000001 -5 0  4.9 -5 0  5 -4.9 0  5 -4.8 0  5 -4.7 0  5 -4.6 0  5 -4.5 0  5 -4.4 0  5 -4.3 0  5 -4.2 0  5 -4.1 0  5 -4 0  5 -3.9 0  5 -3.8 0  5 -3.7 0  5 -3.6 0  5 -3.5 0  5 -3.4 0  5 -3.3 0  5 -3.2 0  5 -3.1 0  5 -3 0  5 -2.9 0  5 -2.8 0  5 -2.7 0  5 -2.6 0  5 -2.5 0  5 -2.4 0  5 -2.3 0  5 -2.2 0  5 -2.1 0  5 -2 0  5 -1.9 0  5 -1.8 0  5 -1.7 0  5 -1.6 0  5 -1.5 0  5 -1.4 0  5 -1.3 0  5 -1.2 0  5 -1.1 0  5 -1 0  5 -0.9000000000000004 0  5 -0.7999999999999998 0  5 -0.7000000000000002 0  5 -0.5999999999999996 0  5 -0.5 0  5 -0.4000000000000004 0  5 -0.2999999999999998 0  5 -0.2000000000000002 0  5 -0.09999999999999964 0  5 0 0  5 0.09999999999999964 0  5 0.2000000000000002 0  5 0.2999999999999998 0  5 0.4000000000000004 0  5 0.5 0  5 0.5999999999999996 0  5 0.7000000000000002 0  5 0.7999999999999998 0  5 0.9000000000000004 0  5 1 0  5 1.1 0  5 1.2 0  5 1.3 0  5 1.4 0  5 1.5 0  5 1.6 0  5 1.7 0  5 1.8 0  5 1.9 0  5 2 0  5 2.1 0  5 2.2 0  5 2.3 0  5 2.4 0  5 2.5 0  5 2.6 0  5 2.7 0  5 2.8 0  5 2.9 0  5 3 0  5 3.1 0  5 3.199999999999999 0  5 3.300000000000001 0  5 3.4 0  5 3.5 0  5 3.6 0  5 3.699999999999999 0  5 3.800000000000001 0  5 3.9 0  5 4 0  5 4.1 0  5 4.199999999999999 0  5 4.300000000000001 0  5 4.4 0  5 4.5 0  5 4.6 0  5 4.699999999999999 0  5 4.800000000000001 0  5 4.9 0  4.9 5 0  4.8 5 0  4.7 5 0  4.6 5 0  4.5 5 0  4.4 5 0  4.3 5 0  4.2 5 0  4.1 5 0  4 5 0  3.9 5 0  3.8 5 0  3.7 5 0  3.6 5 0  3.5 5 0  3.4 5 0  3.3 5 0  3.2 5 0  3.1 5 0  3 5 0  2.9 5 0  2.8 5 0  2.7 5 0  2.6 5 0  2.5 5 0  2.4 5 0  2.3 5 0  2.2 5 0  2.1 5 0  2 5 0  1.9 5 0  1.8 5 0  1.7 5 0  1.6 5 0  1.5 5 0  1.4 5 0  1.3 5 0  1.2 5 0  1.1 5 0  1 5 0  0.9000000000000004 5 0  0.7999999999999998 5 0  0.7000000000000002 5 0  0.5999999999999996 5 0  0.5 5 0  0.4000000000000004 5 0  0.2999999999999998 5 0  0.2000000000000002 5 0  0.09999999999999964 5 0  0 5 0  -0.09999999999999964 5 0  -0.2000000000000002 5 0  -0.2999999999999998 5 0  -0.4000000000000004 5 0  -0.5 5 0  -0.5999999999999996 5 0  -0.7000000000000002 5 0  -0.7999999999999998 5 0  -0.9000000000000004 5 0  -1 5 0  -1.1 5 0  -1.2 5 0  -1.3 5 0  -1.4 5 0  -1.5 5 0  -1.6 5 0  -1.7 5 0  -1.8 5 0  -1.9 5 0  -2 5 0  -2.1 5 0  -2.2 5 0  -2.3 5 0  -2.4 5 0  -2.5 5 0  -2.6 5 0  -2.7 5 0  -2.8 5 0  -2.9 5 0  -3 5 0  -3.1 5 0  -3.199999999999999 5 0  -3.300000000000001 5 0  -3.4 5 0  -3.5 5 0  -3.6 5 0  -3.699999999999999 5 0  -3.800000000000001 5 0  -3.9 5 0  -4 5 0  -4.1 5 0  -4.199999999999999 5 0  -4.300000000000001 5 0  -4.4 5 0  -4.5 5 0  -4.6 5 0  -4.699999999999999 5 0  -4.800000000000001 5 0  -4.9 5 0  -5 4.9 0  -5 4.8 0  -5 4.7 0  -5 4.6 0  -5 4.5 0  -5 4.4 0  -5 4.3 0  -5 4.2 0  -5 4.1 0  -5 4 0  -5 3.9 0  -5 3.8 0  -5 3.7 0  -5 3.6 0  -5 3.5 0  -5 3.4 0  -5 3.3 0  -5 3.2 0  -5 3.1 0  -5 3 0  -5 2.9 0  -5 2.8 0  -5 2.7 0  -5 2.6 0  -5 2.5 0  -5 2.4 0  -5 2.3 0  -5 2.2 0  -5 2.1 0  -5 2 0  -5 1.9 0  -5 1.8 0  -5 1.7 0  -5 1.6 0  -5 1.5 0  -5 1.4 0  -5 1.3 0  -5 1.2 0  -5 1.1 0  -5 1 0  -5 0.9000000000000004 0  -5 0.7999999999999998 0  -5 0.7000000000000002 0  -5 0.5999999999999996 0  -5 0.5 0  -5 0.4000000000000004 0  -5 0.2999999999999998 0  -5 0.2000000000000002 0  -5 0.09999999999999964 0  -5 0 0  -5 -0.09999999999999964 0  -5 -0.2000000000000002 0  -5 -0.2999999999999998 0  -5 -0.4000000000000004 0  -5 -0.5 0  -5 -0.5999999999999996 0  -5 -0.7000000000000002 0  -5 -0.7999999999999998 0  -5 -0.9000000000000004 0  -5 -1 0  -5 -1.1 0  -5 -1.2 0  -5 -1.3 0  -5 -1.4 0  -5 -1.5 0  -5 -1.6 0  -5 -1.7 0  -5 -1.8 0  -5 -1.9 0  -5 -2 0  -5 -2.1 0  -5 -2.2 0  -5 -2.3 0  -5 -2.4 0  -5 -2.5 0  -5 -2.6 0  -5 -2.7 0  -5 -2.8 0  -5 -2.9 0  -5 -3 0  -5 -3.1 0  -5 -3.199999999999999 0  -5 -3.300000000000001 0  -5 -3.4 0  -5 -3.5 0  -5 -3.6 0  -5 -3.699999999999999 0  -5 -3.800000000000001 0  -5 -3.9 0  -5 -4 0  -5 -4.1 0  -5 -4.199999999999999 0  -5 -4.300000000000001 0  -5 -4.4 0  -5 -4.5 0  -5 -4.6 0  -5 -4.699999999999999 0  -5 -4.800000000000001 0  -5 -4.9 0  1.167593352873456 0.09975168101652199 0  1.149527238884292 0.1984291191750402 0  1.119130632964332 0.2959568479553603 0  1.07957132947835 0.3881946508842308 0  1.028365937088622 0.4790297792215725 0  0.9677876521957698 0.5643699959979985 0  0.8966262133214072 0.6441403940923865 0  0.8161261162395383 0.716961040679119 0  0.7285849621620575 0.7828901156377472 0  0.6334240878580015 0.8415921801324158 0  0.5312893436882103 0.8920082753637326 0  0.4245183783699578 0.9336317966070613 0  0.3152102850955584 0.9663469095512872 0  0.2011516267237712 0.988713313634129 0  0.08733812967127229 1.002454192342768 0  -0.02756173612247589 1.005141940767669 0  -0.1424368819091676 0.9962231628156226 0  -0.2573811492113953 0.9788275593904402 0  -0.3695844059266553 0.9523029229773329 0  -0.4772631149729298 0.9156822731190422 0  -0.580001756436445 0.8702759735928385 0  -0.6776609262674574 0.815570347753237 0  -0.7684653929150871 0.7529463873060782 0  -0.8523448705870029 0.6828381414166751 0  -0.928609180853913 0.6049570600838799 0  -0.9948998978184878 0.5221946760146019 0  -1.052012284463242 0.434892144440524 0  -1.097981984603114 0.3424455600904284 0  -1.132521980785987 0.2476768559122772 0  -1.155881060656137 0.1504380792377449 0  -1.167759247659247 0.05085635066551455 0  -1.167773470112422 -0.04934262046802459 0  -1.155878229309332 -0.1486593766292227 0  -1.133630339715177 -0.2459090339759573 0  -1.097692419678981 -0.3419808196157464 0  -1.052384320047191 -0.4336156044651532 0  -0.9957471479385329 -0.521200769722416 0  -0.929830863599835 -0.6035701347091411 0  -0.8537244952496477 -0.6804244386248727 0  -0.7693408470693772 -0.7498188967062243 0  -0.6775163066472502 -0.8112826818417348 0  -0.5803305627376618 -0.8658307553700534 0  -0.4750561842202561 -0.9120307670847058 0  -0.3670779773306035 -0.9497814732723343 0  -0.2549522271063561 -0.9773319583592077 0  -0.1410681501562403 -0.9952032228399976 0  -0.02692278817704649 -1.004392269106192 0  0.08792826084082986 -1.000592784340467 0  0.203409964322826 -0.9867629312403725 0  0.3164617500299065 -0.964740685695092 0  0.4274421184904493 -0.9322470777498272 0  0.5326500542736516 -0.8910186023501433 0  0.6340602218672278 -0.8410103724011604 0  0.7287999678760618 -0.7836902799812888 0  0.8162395362794409 -0.7175478370090402 0  0.8961822803016344 -0.6435626101445555 0  0.9666204039141807 -0.5636641530627732 0  1.028332989370615 -0.4785260905208628 0  1.080650831412061 -0.3882940496159125 0  1.120412293724774 -0.294801698243284 0  1.149705246606189 -0.1976848281190188 0  1.167604492973418 -0.09932843440318945 0  -2.448896246542061 4.918730239896322 0  -2.448800270480608 -4.911164436708687 0  4.911104217293437 2.448374177372337 0  4.919167437123629 -2.44979221839964 0  2.446589627691865 -4.89651303512412 0  2.44100927087456 4.900249999111149 0  -4.911125774251992 -2.44839538280277 0  -4.911124623599948 2.448399195068719 0  -1.748862269269904 4.911891340770032 0  -1.744633962172669 -4.915297410588615 0  4.921461513807941 1.744503869768332 0  4.910112719949251 -1.748328417886664 0  -4.91039617795121 -1.748055381102726 0  -4.911211643327573 1.747795098791363 0  1.746156641680962 4.905813152857656 0  1.74761401675096 -4.894073129920876 0  -1.149102869694824 4.909861546913646 0  -1.129932942164712 -4.917687723720513 0  -4.910352966539327 -1.148297466567008 0  -4.91017508251125 1.148097382027602 0  1.144080616351603 -4.913916336393047 0  1.149109680361641 4.909851341310208 0  4.91050257783611 1.146575824783605 0  4.921191832179528 -1.152314729625997 0  -0.5468051657274222 -4.911142993612466 0  -0.5465745784429196 4.919722748049443 0  -4.909278092394123 -0.5489141038726392 0  -4.909302767100541 0.5474695551614254 0  4.908619987527548 -0.5492364283841722 0  4.920106010131642 0.5459657175590196 0  0.5426006597187338 -4.898186418212483 0  0.5513055744687132 4.916585820236578 0  -4.91233380775721 -3.048671092165236 0  4.918875360992651 3.046662962373578 0  4.911846567997061 -3.048652899148321 0  -4.913179444432715 3.045759629517589 0  3.055585858624644 -4.917819929973409 0  -3.048938069857861 -4.91178567282862 0  3.052498801411004 4.913855635717949 0  -3.048381783276981 4.912671883272665 0  -4.908458282178638 -0.0499282253399528 0  0.04512829806193766 -4.91310204467923 0  0.04957694663242428 4.920042554332615 0  4.915418430528748 -0.05130901687010554 0  3.545844943103806 -4.919332474127921 0  -3.549145117695532 4.
[...]
<PointData  Vectors="f_1830"> 
<DataArray  type="Float64"  Name="f_1830"  NumberOfComponents="3" format="ascii">2.6559658580598855e-76 2.6559658580598855e-76 0.0000000000000000e+00  -2.8445085011137520e-76 2.8445085011137520e-76 0.0000000000000000e+00  -8.5659604778973052e-78 -8.5659604778973052e-78 0.0000000000000000e+00  3.0308186857307673e-76 -3.0308186857307673e-76 0.0000000000000000e+00  -4.8598222266974211e-01 -9.5707771161678834e-03 0.0000000000000000e+00  4.1650005259082485e-75 6.6070536102290638e-75 0.0000000000000000e+00  2.0832973562645273e-75 2.0879177746995356e-74 0.0000000000000000e+00  -3.4031695637291308e-75 6.7692098339107790e-75 0.0000000000000000e+00  3.9968986766213550e-72 6.6709626480757901e-72 0.0000000000000000e+00  5.3122958327982369e-71 1.3462314032477320e-70 0.0000000000000000e+00  -7.9081986067423780e-72 4.5542272664619767e-71 0.0000000000000000e+00  3.2292811751944898e-69 6.1667214273934787e-69 0.0000000000000000e+00  5.1519115898032335e-68 9.4069990853850726e-68 0.0000000000000000e+00  -3.0568024973177136e-68 1.4993996676098698e-67 0.0000000000000000e+00  1.2740274665960431e-67 3.9840381600840179e-67 0.0000000000000000e+00  1.2719013645470469e-68 8.7785318263748513e-67 0.0000000000000000e+00  5.4364051233266973e-64 8.8355957517531922e-64 0.0000000000000000e+00  4.7596737017368354e-65 2.4418009573214466e-63 0.0000000000000000e+00  1.3445834046451991e-62 2.2026268921390689e-62 0.0000000000000000e+00  8.0465480364666371e-63 8.3198736046787501e-62 0.0000000000000000e+00  6.9037565410295099e-61 1.1043812220541083e-60 0.0000000000000000e+00  4.0447232689007369e-60 7.0196343865748463e-60 0.0000000000000000e+00  -2.8335233528693321e-60 7.6894412231305021e-60 0.0000000000000000e+00  5.6349935840583773e-59 1.1387258035094807e-58 0.0000000000000000e+00  -1.7492648393508703e-59 1.1640021810839903e-58 0.0000000000000000e+00  -2.9859259081071771e-59 6.8272145808180996e-59 0.0000000000000000e+00  1.7914376168086547e-58 3.3110888027589186e-58 0.0000000000000000e+00  7.2546252459542975e-58 2.0922202503486012e-57 0.0000000000000000e+00  2.8412907678037610e-57 6.2442286309834060e-57 0.0000000000000000e+00  -3.3826244654853942e-57 5.7243391233063611e-57 0.0000000000000000e+00  -3.4957101954576126e-58 1.0963640096624507e-57 0.0000000000000000e+00  1.8937274270269929e-56 2.9397382239237097e-56 0.0000000000000000e+00  -1.4014783969618559e-56 3.5251409893910002e-56 0.0000000000000000e+00  1.1813404594245825e-56 2.8982718392187897e-56 0.0000000000000000e+00  8.6620957554292120e-56 2.1010971043209571e-55 0.0000000000000000e+00  -2.4754333226807139e-56 5.7426448958880903e-55 0.0000000000000000e+00  5.1601567946870668e-57 8.6327253462175093e-57 0.0000000000000000e+00  5.4906501157065864e-56 1.3838305804335461e-55 0.0000000000000000e+00  1.5337032160822025e-55 6.1754700123462212e-55 0.0000000000000000e+00  -2.2121150436443879e-55 3.5085782203293023e-55 0.0000000000000000e+00  9.7298070188581090e-55 1.7263169110820559e-54 0.0000000000000000e+00  -4.3636760532875016e-55 4.3604456068538798e-54 0.0000000000000000e+00  -2.2530245841171921e-55 2.6815454621583549e-54 0.0000000000000000e+00  -9.4967017930875888e-56 9.4375506601575103e-55 0.0000000000000000e+00  -1.1173545026585133e-55 1.8192627946675153e-55 0.0000000000000000e+00  2.7263960007214699e-54 5.2403173671778674e-54 0.0000000000000000e+00  -2.1329093135717508e-54 4.1343830337190869e-54 0.0000000000000000e+00  -7.1010142458628768e-55 8.0669690241802472e-55 0.0000000000000000e+00  -1.3033890040735625e-55 2.7112172661967302e-55 0.0000000000000000e+00  9.1830303043503403e-55 1.4465197130332066e-54 0.0000000000000000e+00  9.3342107048018932e-55 6.1562293020858481e-54 0.0000000000000000e+00  -1.1134655919647476e-54 5.8985669156605215e-54 0.0000000000000000e+00  5.0800716003413811e-55 4.6489271874839433e-54 0.0000000000000000e+00  1.8905140748410559e-56 5.7936853681007955e-54 0.0000000000000000e+00  2.9775319794300726e-55 6.1518677501975011e-54 0.0000000000000000e+00  -1.2449137550696787e-54 2.0445412047370441e-54 0.0000000000000000e+00  -6.3746890955026727e-55 1.4726478267160378e-53 0.0000000000000000e+00  4.4050394519256705e-54 7.4657215409191995e-54 0.0000000000000000e+00  -4.2906514348807780e-54 8.1007168208885889e-54 0.0000000000000000e+00  1.8970260761585132e-54 3.9544299558212328e-54 0.0000000000000000e+00  -7.2747134272133297e-55 9.5010719115231391e-54 0.0000000000000000e+00  1.3136836286045626e-54 9.3274129751871361e-54 0.0000000000000000e+00  -1.6640719353195480e-54 4.3998745129021429e-54 0.0000000000000000e+00  -9.1400203214153838e-55 2.4070200150521361e-54 0.0000000000000000e+00  3.2905206809458567e-55 1.2989152840843929e-54 0.0000000000000000e+00  2.6234478911287617e-55 2.5371146458788842e-54 0.0000000000000000e+00  -7.7840464177324918e-56 3.4903379577285011e-54 0.0000000000000000e+00  -7.0351469078980591e-55 1.4836560431389843e-54 0.0000000000000000e+00  2.3519434808233818e-55 4.4188874996567459e-55 0.0000000000000000e+00  -2.2861389029680328e-55 6.0310414741931392e-55 0.0000000000000000e+00  4.9795302707896455e-56 2.3964728145338167e-55 0.0000000000000000e+00  1.8467377740130934e-55 9.5182330855480891e-55 0.0000000000000000e+00  -3.2725588929674457e-55 5.3131911113682391e-55 0.0000000000000000e+00  -1.5768693139278486e-56 4.8276342973054752e-56 0.0000000000000000e+00  -1.1265585919907731e-57 1.1337055217903468e-56 0.0000000000000000e+00  6.6929384929998387e-57 2.3527858202097526e-56 0.0000000000000000e+00  -8.9209235154730488e-57 1.5051233641142955e-56 0.0000000000000000e+00  1.7278906332187730e-57 2.8810868003023357e-57 0.0000000000000000e+00  -1.2349678682024787e-57 2.7285165856643331e-57 0.0000000000000000e+00  5.1386587022844149e-57 7.7916330531428774e-57 0.0000000000000000e+00  -4.5034442148434504e-57 1.1265325076313966e-56 0.0000000000000000e+00  -1.8018776576194333e-58 9.4007999248480963e-58 0.0000000000000000e+00  -2.3773532146237297e-58 4.6598730965891612e-58 0.0000000000000000e+00  -7.8310885025026954e-61 8.8105754470882708e-59 0.0000000000000000e+00  -2.4321406180743164e-59 6.4299830413849624e-59 0.0000000000000000e+00  -7.0777721771508708e-60 2.5017628533869447e-59 0.0000000000000000e+00  -4.3656751048908010e-60 2.2397521124314171e-59 0.0000000000000000e+00  -3.0490047174239555e-60 7.1758593181522813e-60 0.0000000000000000e+00  -8.4852669151093400e-62 4.4373534756805225e-61 0.0000000000000000e+00  -1.0713914455134785e-61 2.2366560554521808e-61 0.0000000000000000e+00  -3.5738623171358683e-62 5.6824097490585487e-62 0.0000000000000000e+00  -3.8961108412205635e-64 6.7062604069060232e-64 0.0000000000000000e+00  -2.4235882629808798e-65 5.1755847187958020e-65 0.0000000000000000e+00  3.6958960803892256e-66 1.0378902983533198e-65 0.0000000000000000e+00  -4.8299956930049304e-66 9.2697686014800809e-66 0.0000000000000000e+00  -6.6833622125380702e-68 2.7721773443394427e-67 0.0000000000000000e+00  -7.8369109416737274e-68 1.2928978682569041e-67 0.0000000000000000e+00  -8.0464148007206697e-69 1.1742211580927604e-68 0.0000000000000000e+00  -5.6247664944437752e-70 9.5263899591981675e-70 0.0000000000000000e+00  -3.7747851687960179e-71 6.8220070951324040e-71 0.0000000000000000e+00  -1.8766204303932237e-72 3.2040386304315786e-72 0.0000000000000000e+00  -1.2170518275446216e-73 2.7272581615173569e-73 0.0000000000000000e+00  -4.4189332460593672e-75 1.2913244217491236e-74 0.0000000000000000e+00  -2.5475068868583774e-75 4.2416823614182626e-75 0.0000000000000000e+00  -9.7698406304142756e-76 3.5574913959765707e-76 0.0000000000000000e+00  -1.6208831376603177e-75 -2.3902950316666012e-76 0.0000000000000000e+00  -2.4496122506128716e-74 1.1584729951649895e-74 0.0000000000000000e+00  -3.6792762969486943e-74 1.5491347355480422e-75 0.0000000000000000e+00  -3.8843609592576235e-73 1.4323265430015486e-73 0.0000000000000000e+00  -1.0245379551665572e-71 6.2313995466711266e-72 0.0000000000000000e+00  -6.7463149338349746e-71 3.7034024401543473e-71 0.0000000000000000e+00  -1.0611074897375659e-70 3.8969765072178109e-72 0.0000000000000000e+00  -8.9062176109185866e-70 3.3038641020520402e-70 0.0000000000000000e+00  -2.1312938549407989e-68 1.2840464442508107e-68 0.0000000000000000e+00  -1.0249201815139712e-67 5.0994066777241834e-68 0.0000000000000000e+00  -1.0119874741317794e-67 -6.0113644590239903e-68 0.0000000000000000e+00  -3.1703675972649584e-66 1.7417631054325436e-66 0.0000000000000000e+00  -3.1905161222298588e-65 1.8266485298127814e-65 0.0000000000000000e+00  -5.3874933839889215e-65 5.0302800424724164e-66 0.0000000000000000e+00  -4.4411244250536268e-64 1.4420620432151849e-64 0.0000000000000000e+00  -7.0082003889166301e-63 4.3434375600923241e-63 0.0000000000000000e+00  -1.5078333874212030e-62 3.7337355315219826e-63 0.0000000000000000e+00  -8.4404227185942245e-62 1.9591644477876809e-62 0.0000000000000000e+00  -1.3583278169537430e-60 8.4797266394917464e-61 0.0000000000000000e+00  -2.4183247577603515e-60 3.3652292628306166e-61 0.0000000000000000e+00  -2.1200747788123870e-59 7.3612319006043044e-60 0.0000000000000000e+00  -2.4237016485080729e-58 1.4861625765654331e-58 0.0000000000000000e+00  -2.5832329759304379e-58 -9.3599528821965289e-59 0.0000000000000000e+00  -5.9910891146901428e-57 2.7641666974742512e-57 0.0000000000000000e+00  -2.4895088801251582e-56 1.2305440519065701e-56 0.0000000000000000e+00  -5.5589481594616877e-56 -8.6099038929817311e-57 0.0000000000000000e+00  -1.0145275358990402e-54 6.4293916652244569e-55 0.0000000000000000e+00  -1.1188411975068531e-54 -3.4345570506696659e-55 0.0000000000000000e+00  -2.4144543982145106e-53 1.2583552015075036e-53 0.0000000000000000e+00  -6.6085272601605623e-53 2.9609219610320666e-53 0.0000000000000000e+00  -4.3628883102053332e-52 1.2129966083176616e-52 0.0000000000000000e+00  -2.6743186222429922e-51 1.6457105708084310e-51 0.0000000000000000e+00  -7.6651370792022761e-51 -2.1037108890514727e-52 0.0000000000000000e+00  -7.2196601011180315e-50 4.5444080878059353e-50 0.0000000000000000e+00  -1.6166052756597403e-49 -1.4569392109878131e-50 0.0000000000000000e+00  -1.7343304180472304e-48 9.9752431752405771e-49 0.0000000000000000e+00  -4.3406296247176425e-48 -2.0062479515347043e-49 0.0000000000000000e+00  -2.0185891871140405e-47 1.0948730429267685e-47 0.0000000000000000e+00  -1.1036550584037170e-46 1.8710408068483741e-47 0.0000000000000000e+00  -1.0256736442839757e-46 2.4245787616888596e-47 0.0000000000000000e+00  -1.2426907118232859e-45 5.1767944548694494e-46 0.0000000000000000e+00  -8.7205047774390806e-46 -5.5919588328241784e-46 0.0000000000000000e+00  -1.3454528564124360e-44 7.9466102144132429e-45 0.0000000000000000e+00  -5.8001938380136636e-44 1.3526384362220689e-44 0.0000000000000000e+00  -3.6124932328072767e-44 -1.7231240262500052e-44 0.0000000000000000e+00  -1.1436498981377373e-43 6.3958265660682574e-44 0.0000000000000000e+00  -8.4170428652287235e-43 2.2785791689879609e-43 0.0000000000000000e+00  -1.9296282098378251e-42 1.9434547533025500e-43 0.0000000000000000e+00  -2.5122486408092826e-42 6.0042988058271057e-44 0.0000000000000000e+00  -2.0150041806753149e-42 -1.9163764723310493e-43 0.0000000000000000e+00  -8.6178491367743801e-43 -2.4650780073231033e-43 0.0000000000000000e+00  -1.1335932878869363e-43 -6.3428591158806212e-44 0.0000000000000000e+00  -3.8683145902926892e-44 1.8204240315641493e-44 0.0000000000000000e+00  -6.3203448204730000e-44 -1.0656216801499906e-44 0.0000000000000000e+00  -1.5013530405624117e-44 -7.7456878702236501e-45 0.0000000000000000e+00  -9.9708235448215692e-46 5.5846803119902477e-46 0.0000000000000000e+00  -1.4061045845803518e-45 -5.3069037783107880e-46 0.0000000000000000e+00  -1.1219857128452777e-46 -2.8134519503330770e-47 0.0000000000000000e+00  -1.0192045995376236e-46 -2.1130025933166268e-47 0.0000000000000000e+00  -1.8666334281620725e-47 -1.1806125149875900e-47 0.0000000000000000e+00  -4.0850805219403944e-48 1.9972995000903758e-49 0.0000000000000000e+00  -1.4916934701500833e-48 -9.2362796329716856e-49 0.0000000000000000e+00  -1.6319982988732968e-49 2.4205002184100238e-50 0.0000000000000000e+00  -7.4825387751418799e-50 -4.3658204232161038e-50 0.0000000000000000e+00  -8.2429991212559363e-51 6.3143313301627879e-52 0.0000000000000000e+00  -3.1558569619319443e-51 -1.7629087781215705e-51 0.0000000000000000e+00  -5.1097498426341923e-52 -1.1346268479427445e-52 0.0000000000000000e+00  -8.2270247626703060e-53 -3.5090012984936733e-53 0.0000000000000000e+00  -2.6697021442517353e-53 -1.3025127477614031e-53 0.0000000000000000e+00  -1.1952733921960496e-54 3.2074128434628226e-55 0.0000000000000000e+00  -1.0676935256968155e-54 -6.7425898720887029e-55 0.0000000000000000e+00  -5.1473787676587530e-56 8.2657119713016595e-57 0.0000000000000000e+00  -2.3441498945178671e-56 -1.3127919093109074e-56 0.0000000000000000e+00  -4.8378721903329348e-57 -2.5019340758855803e-57 0.0000000000000000e+00  -2.4539751698889884e-58 8.4812774417831455e-59 0.0000000000000000e+00  -2.1653671256200724e-58 -1.3192529496981753e-58 0.0000000000000000e+00  -1.9941494155801205e-59 -6.1080487771748957e-60 0.0000000000000000e+00  -2.3766294050112094e-60 -3.3746421812312504e-61 0.0000000000000000e+00  -1.2945043914144491e-60 -7.5647598891400683e-61 0.0000000000000000e+00  -7.7001800112788463e-62 -2.1331441808072323e-62 0.0000000000000000e+00  -1.3606853558654931e-62 -2.9154602985133784e-63 0.0000000000000000e+00  -6.6550378197723799e-63 -3.7708175996126566e-63 0.0000000000000000e+00  -4.7900300688629123e-64 -1.8121968508798249e-64 0.0000000000000000e+00  -4.3634960548398609e-65 9.5419614460000001e-67 0.0000000000000000e+00  -2.9539613546938014e-65 -1.6560768765979292e-65 0.0000000000000000e+00  -3.4195753437490258e-66 -1.9823148623259052e-66 0.0000000000000000e+00  -8.9780697621593096e-68 5.4632644481309944e-68 0.0000000000000000e+00  -8.6482026158651088e-68 -4.1661784663490793e-68 0.0000000000000000e+00  -2.0713927051218579e-68 -1.2819062805548673e-68 0.0000000000000000e+00  -1.1337303339780728e-69 -5.1233790141252250e-70 0.0000000000000000e+00  -8.7915407784752467e-71 1.3762414444367776e-71 0.0000000000000000e+00  -6.9146265687185684e-71 -3.6512460453648173e-71 0.0000000000000000e+00  -1.2490343625869534e-71 -7.6520046546921823e-72 0.0000000000000000e+00  -5.9850041485288697e-73 -2.7483315537376370e-73 0.0000000000000000e+00  -3.9229599986154434e-74 7.4164033851203462e-75 0.0000000000000000e+00  -3.1576398342257923e-74 -1.4780441576854028e-74 0.0000000000000000e+00  -6.5921283936972092e-75 -3.3557612858344386e-75 0.0000000000000000e+00  -7.1803168814364248e-76 -3.1067869198197812e-76 0.0000000000000000e+00  -8.5502923613372237e-76 -1.6229904420328896e-75 0.0000000000000000e+00  -4.7724854491741358e-75 -1.3946861629375304e-74 0.0000000000000000e+00  4.3632839255483101e-75 -8.3055387270351787e-75 0.0000000000000000e+00  -1.6279688323517040e-73 -3.4284876189009552e-73 0.0000000000000000e+00  -9.2740722251797740e-71 -1.0079424312297051e-70 0.0000000000000000e+00  -7.4952625536914998e-70 -1.3186870632252632e-69 0.0000000000000000e+00  -1.0965270310911603e-69 -3.6528825418990105e-69 0.0000000000000000e+00  -7.7458868692752289e-68 -1.7126997092426250e-67 0.0000000000000000e+00  -6.5161908018240329e-68 -3.2611910551125842e-67 0.0000000000000000e+00  -6.7735747741449075e-66 -1.3514142968866273e-65 0.0000000000000000e+00  -4.5069717184838354e-66 -2.1326720585573442e-65 0.0000000000000000e+00  -9.0417762271125754e-65 -1.5597753963305569e-64 0.0000000000000000e+00  1.7160664855130421e-65 -2.1031044651429980e-64 0.0000000000000000e+00  -4.2605038453483894e-62 -6.4141766727115753e-62 0.0000000000000000e+00  -6.9708085945704868e-62 -1.7227857704751159e-61 0.0000000000000000e+00  -2.3160105955702447e-62 -2.7293633099868987e-61 0.0000000000000000e+00  -5.7150884936451716e-60 -1.1380821385677905e-59 0.0000000000000000e+00  4.7426743206983653e-60 -1.5003397097430221e-59 0.0000000000000000e+00  -2.8861979602665625e-59 -4.7589827548558738e-59 0.0000000000000000e+00  8.7727128999042570e-60 -6.0829278681899707e-59 0.0000000000000000e+00  2.3115974394171357e-59 -3.9631907818033743e-59 0.0000000000000000e+00  -5.6044095563141666e-58 -8.9686404254917410e-58 0.0000000000000000e+00  -1.3714039086283337e-59 -1.2602917033424219e-57 0.0000000000000000e+00  -4.6042072609613161e-57 -1.1655546143330672e-56 0.0000000000000000e+00  5.7081117693246727e-57 -8.6514839889931291e-57 0.0000000000000000e+00  -5.2952690976316474e-57 -7.3592387635408425e-57 0.0000000000000000e+00  -1.7536657220554368e-56 -3.7804397590938409e-56 0.0000000000000000e+00  2.1442845476554546e-56 -4.0626094785690217e-56 0.0000000000000000e+00  -4.9617316572868142e-57 -9.2205116411944867e-57 0.0000000000000000e+00  -8.0505995650391673e-56 -2.0342283285414287e-55 0.0000000000000000e+00  6.3080119618881494e-56 -5.0746772462096210e-55 0.0000000000000000e+00  -4.2506244341379306e-55 -7.2742460552310385e-55 0.0000000000000000e+00  -4.8567960310317442e-56 -1.8359968405974561e-54 0.0000000000000000e+00  1.6440709938121778e-55 -5.7338038461396155e-55 0.0000000000000000e+00  -5.1329592033320226e-55 -1.6778840494058180e-54 0.0000000000000000e+00  -2.2313839583835425e-54 -7.0797676121177230e-54 0.0000000000000000e+00  2.5544520464289568e-54 -6.0688465513144742e-54 0.0000000000000000e+00  -6.6505520669580566e-55 -2.3919381678175555e-54 0.0000000000000000e+00  5.2635493905736460e-55 -2.8178289273984307e-54 0.0000000000000000e+00  1.2665151781823907e-55 -1.4245949157880806e-54 0.0000000000000000e+00  -2.1555243305278575e-54 -3.4720652491177831e-54 0.0000000000000000e+00  5.6387687884682329e-55 -8.2267658402906714e-54 0.0000000000000000e+00  -3.8853528119315645e-54 -1.3566889938136514e-53 0.0000000000000000e+00  4.6364495971816364e-54 -7.7070684728547963e-54 0.0000000000000000e+00  2.0070386537948109e-55 -6.5038476687230826e-55 0.0000000000000000e+00  -4.7434689689109136e-54 -8.0149670527312760e-54 0.0000000000000000e+00  4.7682537600628905e-54 -7.8660937931584713e-54 0.0000000000000000e+00  -1.6416725493031937e-56 -1.3350845822357268e-55 0.0000000000000000e+00  1.1014809523338188e-56 -2.7683356309783830e-55 0.0000000000000000e+00  2.1799652545897378e-56 -9.8797466191792030e-56 0.0000000000000000e+00  -5.1411002364261586e-54 -9.3527374966253529e-54 0.0000000000000000e+00  5.4838412458364899e-54 -9.4119023876312389e-54 0.0000000000000000e+00  5.6069127438351523e-56 -1.0524245926038396e-55 0.0000000000000000e+00  -1.4156476602870672e-56 -6.2037111792174287e-56 0.0000000000000000e+00  -4.9401145403715825e-55 -9.0396895789459659e-55 0.0000000000000000e+00  -5.7467681899257915e-54 -1.0036207307771573e-53 0.0000000000000000e+00  4.4520585406320796e-54 -1.0500877350771329e-53 0.0000000000000000e+00  -3.0179368210731644e-54 -7.9785934105970201e-54 0.0000000000000000e+00  2.4117926525442359e-54 -8.5558817212378077e-54 0.0000000000000000e+00  2.2220170681546426e-54 -3.3123249656929127e-54 0.0000000000000000e+00  -5.3786765799362294e-55 -1.4783003733011308e-54 0.0000000000000000e+00  8.2711242680706117e-55 -1.5765313126847597e-54 0.0000000000000000e+00  -4.8725156498879748e-55 -9.8169247607548014e-55 0.0000000000000000e+00  5.0750541213739089e-55 -8.8730250589310440e-55 0.0000000000000000e+00  -1.5514174015119737e-56 -2.6865128199989161e-56 0.0000000000000000e+00  -4.4326980751168651e-56 -1.7202580224116971e-55 0.0000000000000000e+00  4.1369249288092512e-56 -1.7484427499145311e-55 0.0000000000000000e+00  4.7693296797161616e-57 -6.9051254823845422e-56 0.0000000000000000e+00  -2.7251117263486555e-56 -6.5318989466132221e-56 0.0000000000000000e+00  3.2611670143229236e-56 -6.4268314486620802e-56 0.0000000000000000e+00  -2.8359996421954053e-57 -2.8722034483197875e-56 0.0000000000000000e+00  1.2865163521302918e-56 -3.0072671928957255e-56 0.0000000000000000e+00  9.9536202704194340e-58 -2.4030934416792755e-57 0.0000000000000000e+00  -4.3513075524433287e-57 -7.6215447393394684e-57 0.0000000000000000e+00  4.2227179540086518e-57 -1.1023575494852189e-56 0.0000000000000000e+00  3.1046617564532470e-58 -1.0225181548433788e-57 0.0000000000000000e+00  1.4292592519064599e-58 -5.0316