<?xml version="1.0"?>
<VTKFile type="UnstructuredGrid"  version="0.1"  >
<UnstructuredGrid>
<Piece  NumberOfPoints="11902" NumberOfCells="23402">
<Points>
<DataArray  type="Float64"  NumberOfComponents="3"  format="ascii">-5 -5 0  5 -5 0  5 5 0  -5 5 0  1.259149117967404 0.001341906553175302 0  -4.9 -5 0  -4.8 -5 0  -4.7 -5 0  -4.6 -5 0  -4.5 -5 0  -4.4 -5 0  -4.3 -5 0  -4.2 -5 0  -4.1 -5 0  -4 -5 0  -3.9 -5 0  -3.8 -5 0  -3.7 -5 0  -3.6 -5 0  -3.5 -5 0  -3.4 -5 0  -3.3 -5 0  -3.2 -5 0  -3.1 -5 0  -3 -5 0  -2.9 -5 0  -2.8 -5 0  -2.7 -5 0  -2.6 -5 0  -2.5 -5 0  -2.4 -5 0  -2.3 -5 0  -2.2 -5 0  -2.1 -5 0  -2 -5 0  -1.9 -5 0  -1.8 -5 0  -1.7 -5 0  -1.6 -5 0  -1.5 -5 0  -1.4 -5 0  -1.3 -5 0  -1.2 -5 0  -1.1 -5 0  -1 -5 0  -0.9000000000000004 -5 0  -0.7999999999999998 -5 0  -0.7000000000000002 -5 0  -0.5999999999999996 -5 0  -0.5 -5 0  -0.4000000000000004 -5 0  -0.2999999999999998 -5 0  -0.2000000000000002 -5 0  -0.09999999999999964 -5 0  0 -5 0  0.09999999999999964 -5 0  0.2000000000000002 -5 0  0.2999999999999998 -5 0  0.4000000000000004 -5 0  0.5 -5 0  0.5999999999999996 -5 0  0.7000000000000002 -5 0  0.7999999999999998 -5 0  0.9000000000000004 -5 0  1 -5 0  1.1 -5 0  1.2 -5 0  1.3 -5 0  1.4 -5 0  1.5 -5 0  1.6 -5 0  1.7 -5 0  1.8 -5 0  1.9 -5 0  2 -5 0  2.1 -5 0  2.2 -5 0  2.3 -5 0  2.4 -5 0  2.5 -5 0  2.6 -5 0  2.7 -5 0  2.8 -5 0  2.9 -5 0  3 -5 0  3.1 -5 0  3.199999999999999 -5 0  3.300000000000001 -5 0  3.4 -5 0  3.5 -5 0  3.6 -5 0  3.699999999999999 -5 0  3.800000000000001 -5 0  3.9 -5 0  4 -5 0  4.1 -5 0  4.199999999999999 -5 0  4.300000000000001 -5 0  4.4 -5 0  4.5 -5 0  4.6 -5 0  4.699999999999999 -5 0  4.800000000000001 -5 0  4.9 -5 0  5 -4.9 0  5 -4.8 0  5 -4.7 0  5 -4.6 0  5 -4.5 0  5 -4.4 0  5 -4.3 0  5 -4.2 0  5 -4.1 0  5 -4 0  5 -3.9 0  5 -3.8 0  5 -3.7 0  5 -3.6 0  5 -3.5 0  5 -3.4 0  5 -3.3 0  5 -3.2 0  5 -3.1 0  5 -3 0  5 -2.9 0  5 -2.8 0  5 -2.7 0  5 -2.6 0  5 -2.5 0  5 -2.4 0  5 -2.3 0  5 -2.2 0  5 -2.1 0  5 -2 0  5 -1.9 0  5 -1.8 0  5 -1.7 0  5 -1.6 0  5 -1.5 0  5 -1.4 0  5 -1.3 0  5 -1.2 0  5 -1.1 0  5 -1 0  5 -0.9000000000000004 0  5 -0.7999999999999998 0  5 -0.7000000000000002 0  5 -0.5999999999999996 0  5 -0.5 0  5 -0.4000000000000004 0  5 -0.2999999999999998 0  5 -0.2000000000000002 0  5 -0.09999999999999964 0  5 0 0  5 0.09999999999999964 0  5 0.2000000000000002 0  5 0.2999999999999998 0  5 0.4000000000000004 0  5 0.5 0  5 0.5999999999999996 0  5 0.7000000000000002 0  5 0.7999999999999998 0  5 0.9000000000000004 0  5 1 0  5 1.1 0  5 1.2 0  5 1.3 0  5 1.4 0  5 1.5 0  5 1.6 0  5 1.7 0  5 1.8 0  5 1.9 0  5 2 0  5 2.1 0  5 2.2 0  5 2.3 0  5 2.4 0  5 2.5 0  5 2.6 0  5 2.7 0  5 2.8 0  5 2.9 0  5 3 0  5 3.1 0  5 3.199999999999999 0  5 3.300000000000001 0  5 3.4 0  5 3.5 0  5 3.6 0  5 3.699999999999999 0  5 3.800000000000001 0  5 3.9 0  5 4 0  5 4.1 0  5 4.199999999999999 0  5 4.300000000000001 0  5 4.4 0  5 4.5 0  5 4.6 0  5 4.699999999999999 0  5 4.800000000000001 0  5 4.9 0  4.9 5 0  4.8 5 0  4.7 5 0  4.6 5 0  4.5 5 0  4.4 5 0  4.3 5 0  4.2 5 0  4.1 5 0  4 5 0  3.9 5 0  3.8 5 0  3.7 5 0  3.6 5 0  3.5 5 0  3.4 5 0  3.3 5 0  3.2 5 0  3.1 5 0  3 5 0  2.9 5 0  2.8 5 0  2.7 5 0  2.6 5 0  2.5 5 0  2.4 5 0  2.3 5 0  2.2 5 0  2.1 5 0  2 5 0  1.9 5 0  1.8 5 0  1.7 5 0  1.6 5 0  1.5 5 0  1.4 5 0  1.3 5 0  1.2 5 0  1.1 5 0  1 5 0  0.9000000000000004 5 0  0.7999999999999998 5 0  0.7000000000000002 5 0  0.5999999999999996 5 0  0.5 5 0  0.4000000000000004 5 0  0.2999999999999998 5 0  0.2000000000000002 5 0  0.09999999999999964 5 0  0 5 0  -0.09999999999999964 5 0  -0.2000000000000002 5 0  -0.2999999999999998 5 0  -0.4000000000000004 5 0  -0.5 5 0  -0.5999999999999996 5 0  -0.7000000000000002 5 0  -0.7999999999999998 5 0  -0.9000000000000004 5 0  -1 5 0  -1.1 5 0  -1.2 5 0  -1.3 5 0  -1.4 5 0  -1.5 5 0  -1.6 5 0  -1.7 5 0  -1.8 5 0  -1.9 5 0  -2 5 0  -2.1 5 0  -2.2 5 0  -2.3 5 0  -2.4 5 0  -2.5 5 0  -2.6 5 0  -2.7 5 0  -2.8 5 0  -2.9 5 0  -3 5 0  -3.1 5 0  -3.199999999999999 5 0  -3.300000000000001 5 0  -3.4 5 0  -3.5 5 0  -3.6 5 0  -3.699999999999999 5 0  -3.800000000000001 5 0  -3.9 5 0  -4 5 0  -4.1 5 0  -4.199999999999999 5 0  -4.300000000000001 5 0  -4.4 5 0  -4.5 5 0  -4.6 5 0  -4.699999999999999 5 0  -4.800000000000001 5 0  -4.9 5 0  -5 4.9 0  -5 4.8 0  -5 4.7 0  -5 4.6 0  -5 4.5 0  -5 4.4 0  -5 4.3 0  -5 4.2 0  -5 4.1 0  -5 4 0  -5 3.9 0  -5 3.8 0  -5 3.7 0  -5 3.6 0  -5 3.5 0  -5 3.4 0  -5 3.3 0  -5 3.2 0  -5 3.1 0  -5 3 0  -5 2.9 0  -5 2.8 0  -5 2.7 0  -5 2.6 0  -5 2.5 0  -5 2.4 0  -5 2.3 0  -5 2.2 0  -5 2.1 0  -5 2 0  -5 1.9 0  -5 1.8 0  -5 1.7 0  -5 1.6 0  -5 1.5 0  -5 1.4 0  -5 1.3 0  -5 1.2 0  -5 1.1 0  -5 1 0  -5 0.9000000000000004 0  -5 0.7999999999999998 0  -5 0.7000000000000002 0  -5 0.5999999999999996 0  -5 0.5 0  -5 0.4000000000000004 0  -5 0.2999999999999998 0  -5 0.2000000000000002 0  -5 0.09999999999999964 0  -5 0 0  -5 -0.09999999999999964 0  -5 -0.2000000000000002 0  -5 -0.2999999999999998 0  -5 -0.4000000000000004 0  -5 -0.5 0  -5 -0.5999999999999996 0  -5 -0.7000000000000002 0  -5 -0.7999999999999998 0  -5 -0.9000000000000004 0  -5 -1 0  -5 -1.1 0  -5 -1.2 0  -5 -1.3 0  -5 -1.4 0  -5 -1.5 0  -5 -1.6 0  -5 -1.7 0  -5 -1.8 0  -5 -1.9 0  -5 -2 0  -5 -2.1 0  -5 -2.2 0  -5 -2.3 0  -5 -2.4 0  -5 -2.5 0  -5 -2.6 0  -5 -2.7 0  -5 -2.8 0  -5 -2.9 0  -5 -3 0  -5 -3.1 0  -5 -3.199999999999999 0  -5 -3.300000000000001 0  -5 -3.4 0  -5 -3.5 0  -5 -3.6 0  -5 -3.699999999999999 0  -5 -3.800000000000001 0  -5 -3.9 0  -5 -4 0  -5 -4.1 0  -5 -4.199999999999999 0  -5 -4.300000000000001 0  -5 -4.4 0  -5 -4.5 0  -5 -4.6 0  -5 -4.699999999999999 0  -5 -4.800000000000001 0  -5 -4.9 0  1.251027744060716 0.09473503479127084 0  1.229324340605414 0.1923290713780048 0  1.195892246898976 0.288832321769544 0  1.153049406838082 0.3775168778581539 0  1.095100185285113 0.4683541666399996 0  1.029313057381603 0.5526120649341272 0  0.9509755841773466 0.6326185159150045 0  0.864169915861876 0.7072658951417092 0  0.7723919003262337 0.7726940303645934 0  0.670042986172623 0.8300581395554548 0  0.5581597341996893 0.8823260915105506 0  0.4456218077126703 0.9267750178461799 0  0.3332954978522831 0.958945248964947 0  0.2087194172782854 0.9805637929650139 0  0.08889545627410483 0.9994756580669857 0  -0.02705781637994436 1.002783544006852 0  -0.1447665883590668 0.9890440511121431 0  -0.2720866929197669 0.9700495813779278 0  -0.3913760186984048 0.9458252033653771 0  -0.5020130479292393 0.9098490134826623 0  -0.6114119365200207 0.8633841395384849 0  -0.7135624054333995 0.8087261979731462 0  -0.8082236713369279 0.7438723932018302 0  -0.8992478154033917 0.6703913532076782 0  -0.9848236573889266 0.5906453483644515 0  -1.059105940233496 0.5095311044824062 0  -1.120893844209163 0.424224483390984 0  -1.174211705781155 0.3318743553054304 0  -1.212154965203075 0.2427372339455921 0  -1.236634141504936 0.1485661947166462 0  -1.247665720848128 0.05162363937794703 0  -1.24761990848148 -0.04949646215062015 0  -1.236612262224878 -0.1456700318524195 0  -1.211808672509755 -0.2380718029402089 0  -1.170406237041593 -0.3328724666807786 0  -1.121246310633446 -0.4246585878874325 0  -1.060808951045658 -0.5093703201081484 0  -0.9872651834901228 -0.5896251800293392 0  -0.9023216782105414 -0.6682610842307852 0  -0.8118088246244491 -0.7398983991372869 0  -0.7158905065518371 -0.8009184113958882 0  -0.6111969073081628 -0.8540161529208992 0  -0.497322272633911 -0.9035272590394209 0  -0.3844793965643659 -0.9433305365374615 0  -0.2687883171348894 -0.9697507954923578 0  -0.1432726824338859 -0.9888768498938896 0  -0.02788561400873162 -1.001997514466655 0  0.08819591885091148 -0.9947355007101992 0  0.2142059770834691 -0.9771434029258613 0  0.3358718282324687 -0.9573523262437783 0  0.4497712961470617 -0.9254523324490531 0  0.5605651552731615 -0.8815407555525139 0  0.6710219100347834 -0.8301071357322651 0  0.7723471798516544 -0.7738074411440279 0  0.8642190146140621 -0.7083234176061202 0  0.9500123057494543 -0.632760663745333 0  1.026708480114308 -0.5515810021673552 0  1.095900361497399 -0.4672484841135067 0  1.153877353042481 -0.3778730742395142 0  1.197637701841159 -0.2868578461551278 0  1.230003868518248 -0.191473776318601 0  1.25138601530392 -0.09450031820722954 0  -2.448553071726987 4.918099035743698 0  -2.448426471405055 -4.91047596466423 0  4.910399838867631 2.447880667759106 0  4.918528166053677 -2.449343506168631 0  2.44615470043886 -4.895704362452525 0  2.440588566695848 4.899467760597584 0  -4.91042697170621 -2.447907162608772 0  -4.910424239781271 2.447911121230892 0  -1.748506822480104 4.910980295801306 0  -1.74429381107727 -4.914422700073396 0  4.920570833989208 1.744056809943652 0  4.909095698684594 -1.747816024224949 0  -4.909390190326684 -1.747550433031616 0  -4.910213028248502 1.747295507254202 0  1.745779041930064 4.904834142420722 0  1.74719091534861 -4.892973997321809 0  -1.148819534499902 4.908756429350833 0  -1.129678136902981 -4.916677222238491 0  -4.909092591067311 -1.147881654834471 0  -4.90891070440541 1.147682128545798 0  1.143815543420163 -4.91285871462463 0  1.148829485334459 4.908742962877801 0  4.909232059719359 1.146156805423997 0  4.92007565683607 -1.151944185612627 0  -0.5466574129543904 -4.909941168044738 0  -0.5464412270291482 4.918633904079883 0  -4.907812887597345 -0.5486828275078485 0  -4.907836844481825 0.5472407301532642 0  4.907130567307302 -0.549000871955834 0  4.918803082909387 0.5457615410871527 0  0.5424386640211299 -4.896805834785831 0  0.5511695456457988 4.915453436505891 0  -4.911862707438673 -3.048267881321646 0  4.918435786840992 3.046285737076309 0  4.911370214811955 -3.048243257036528 0  -4.912710705582404 3.045359702993612 0  3.055280203074277 -4.917358262863385 0  -3.048609489420018 -4.911292057658636 0  3.052177234698858 4.913370461422273 0  -3.0480552916997 4.912182150797601 0  -4.906916398414425 -0.04990518489233594 0  0.04511909530578757 -4.911890619979344 0  0.04956657970189582 4.918925069125922 0  4.91398069890294 -0.05128749269931654 0  3.54560306337802 -4.919009730566921 0  -3.548882141320647 4.9
[...]
<PointData  Vectors="f_4950"> 
<DataArray  type="Float64"  Name="f_4950"  NumberOfComponents="3" format="ascii">2.6559658580600310e-76 2.6559658580600310e-76 0.0000000000000000e+00  -2.8445085011138821e-76 2.8445085011138821e-76 0.0000000000000000e+00  -8.5659604779172897e-78 -8.5659604779172897e-78 0.0000000000000000e+00  3.0308186857311723e-76 -3.0308186857311723e-76 0.0000000000000000e+00  7.8329829682172647e-01 8.9785934106953891e-03 0.0000000000000000e+00  4.1659583379427487e-75 6.6062090307774903e-75 0.0000000000000000e+00  2.0823555571848492e-75 2.0879994255466308e-74 0.0000000000000000e+00  -3.4059559311609930e-75 6.7716491912520437e-75 0.0000000000000000e+00  4.0004198116685516e-72 6.6678826317306633e-72 0.0000000000000000e+00  5.3173331011852901e-71 1.3457883724233164e-70 0.0000000000000000e+00  -7.9207991768203593e-72 4.5553071338567595e-71 0.0000000000000000e+00  3.2347563508529417e-69 6.1620453429421339e-69 0.0000000000000000e+00  5.1622186858631279e-68 9.3983052323177023e-68 0.0000000000000000e+00  -3.0653839153967992e-68 1.5000985775076695e-67 0.0000000000000000e+00  1.2770233325753476e-67 3.9815474319178724e-67 0.0000000000000000e+00  1.2632233331294104e-68 8.7790675209169090e-67 0.0000000000000000e+00  5.4530574771815293e-64 8.8222843223768871e-64 0.0000000000000000e+00  4.7443851522585189e-65 2.4418641792611029e-63 0.0000000000000000e+00  1.3495612249467031e-62 2.1988048416520303e-62 0.0000000000000000e+00  8.0682305881639005e-63 8.3180082391283616e-62 0.0000000000000000e+00  6.9335756420411481e-61 1.1021876659088434e-60 0.0000000000000000e+00  4.0636871315613621e-60 7.0060627064298063e-60 0.0000000000000000e+00  -2.8479841788297545e-60 7.6994594442724322e-60 0.0000000000000000e+00  5.6641759666025895e-59 1.1367143256082562e-58 0.0000000000000000e+00  -1.7594562771093593e-59 1.1646670522540918e-58 0.0000000000000000e+00  -3.0043864382956010e-59 6.8388874737163540e-59 0.0000000000000000e+00  1.8028690169163292e-58 3.3039895808754185e-58 0.0000000000000000e+00  7.3011196537492579e-58 2.0893319849210176e-57 0.0000000000000000e+00  2.8615072403221916e-57 6.2325193604461221e-57 0.0000000000000000e+00  -3.4083722237791751e-57 5.7385164749128059e-57 0.0000000000000000e+00  -3.5235724135356596e-58 1.0978410920310019e-57 0.0000000000000000e+00  1.9091986847369964e-56 2.9317165433425023e-56 0.0000000000000000e+00  -1.4139980945988971e-56 3.5310732983727057e-56 0.0000000000000000e+00  1.1917299816774478e-56 2.8932638153052061e-56 0.0000000000000000e+00  8.7405065840001184e-56 2.0974310967443861e-55 0.0000000000000000e+00  -2.5118990564236704e-56 5.7434369147160152e-55 0.0000000000000000e+00  5.2120358379709784e-57 8.6116687793835833e-57 0.0000000000000000e+00  5.5464697933218684e-56 1.3815998493018786e-55 0.0000000000000000e+00  1.5494340240103622e-55 6.1692402609261261e-55 0.0000000000000000e+00  -2.2370652920655880e-55 3.5167171023343417e-55 0.0000000000000000e+00  9.8397167896452546e-55 1.7227421654207352e-54 0.0000000000000000e+00  -4.4222155315853760e-55 4.3615205132176661e-54 0.0000000000000000e+00  -2.2835973127474874e-55 2.6820366336395207e-54 0.0000000000000000e+00  -9.6219481562169901e-56 9.4397939803822719e-55 0.0000000000000000e+00  -1.1315471255920591e-55 1.8223211070782558e-55 0.0000000000000000e+00  2.7610479948822007e-54 5.2328720019983836e-54 0.0000000000000000e+00  -2.1607965163262829e-54 4.1393638943629721e-54 0.0000000000000000e+00  -7.1952330625200202e-55 8.0818446729531976e-55 0.0000000000000000e+00  -1.3210634350146652e-55 2.7133066173514001e-55 0.0000000000000000e+00  9.3073416405453700e-55 1.4450153470970814e-54 0.0000000000000000e+00  9.4592394857689468e-55 6.1542841287746888e-54 0.0000000000000000e+00  -1.1290611706084040e-54 5.8988385543757310e-54 0.0000000000000000e+00  5.1493918655816053e-55 4.6479672195817429e-54 0.0000000000000000e+00  1.9090531832449891e-56 5.7928822043139534e-54 0.0000000000000000e+00  3.0189636429022071e-55 6.1510388422457048e-54 0.0000000000000000e+00  -1.2622473032019688e-54 2.0441186593045241e-54 0.0000000000000000e+00  -6.4583247100051136e-55 1.4722933789403658e-53 0.0000000000000000e+00  4.4659694755779456e-54 7.4694699015748284e-54 0.0000000000000000e+00  -4.3494638574285934e-54 8.0953843923041020e-54 0.0000000000000000e+00  1.9228870129190455e-54 3.9571334311162495e-54 0.0000000000000000e+00  -7.3652397787110254e-55 9.4984815489368511e-54 0.0000000000000000e+00  1.3319174664069450e-54 9.3289495126094404e-54 0.0000000000000000e+00  -1.6858491533172234e-54 4.3960301168468056e-54 0.0000000000000000e+00  -9.2556849353036758e-55 2.4044714737458800e-54 0.0000000000000000e+00  3.3335437083502527e-55 1.2996987121711678e-54 0.0000000000000000e+00  2.6588577328239474e-55 2.5376675437350786e-54 0.0000000000000000e+00  -7.8331600720730526e-56 3.4897706420608419e-54 0.0000000000000000e+00  -7.1171880081240918e-55 1.4812080946616940e-54 0.0000000000000000e+00  2.3793631774321113e-55 4.4270706357365945e-55 0.0000000000000000e+00  -2.3110895948974682e-55 6.0222936113610901e-55 0.0000000000000000e+00  5.0368477770371477e-56 2.3982634660564795e-55 0.0000000000000000e+00  1.8676574716829169e-55 9.5250637564328070e-55 0.0000000000000000e+00  -3.3055721469919657e-55 5.2998985113439740e-55 0.0000000000000000e+00  -1.5917188130456492e-56 4.8210303259229313e-56 0.0000000000000000e+00  -1.1354685396080388e-57 1.1332129052224022e-56 0.0000000000000000e+00  6.7574771366565995e-57 2.3555740319517758e-56 0.0000000000000000e+00  -8.9971387024548822e-57 1.5013472950749349e-56 0.0000000000000000e+00  1.7426431150765214e-57 2.8884002052488333e-57 0.0000000000000000e+00  -1.2447746968084059e-57 2.7233169819890912e-57 0.0000000000000000e+00  5.1783368342414269e-57 7.8131751143716800e-57 0.0000000000000000e+00  -4.5344639264071060e-57 1.1246979562045447e-56 0.0000000000000000e+00  -1.8142613243643820e-58 9.3934791441157103e-58 0.0000000000000000e+00  -2.3926719569611659e-58 4.6504448095723251e-58 0.0000000000000000e+00  -7.8791756392487035e-61 8.8102714100878797e-59 0.0000000000000000e+00  -2.4461802653742148e-59 6.4208125994346016e-59 0.0000000000000000e+00  -7.1161392072972028e-60 2.4991818790879635e-59 0.0000000000000000e+00  -4.3848414988575520e-60 2.2383410430983533e-59 0.0000000000000000e+00  -3.0627412228836969e-60 7.1659181285695312e-60 0.0000000000000000e+00  -8.5230547754353311e-62 4.4346125622124342e-61 0.0000000000000000e+00  -1.0757780177645880e-61 2.2333910447429849e-61 0.0000000000000000e+00  -3.5868860740888006e-62 5.6724070404142993e-62 0.0000000000000000e+00  -3.9095066124985432e-64 6.6958450242727347e-64 0.0000000000000000e+00  -2.4309359687925957e-65 5.1697262721406860e-65 0.0000000000000000e+00  3.7077949882002391e-66 1.0388295444114814e-65 0.0000000000000000e+00  -4.8418132548807201e-66 9.2600418829610621e-66 0.0000000000000000e+00  -6.6990568534300933e-68 2.7708807949288716e-67 0.0000000000000000e+00  -7.8527628604353405e-68 1.2915687043238815e-67 0.0000000000000000e+00  -8.0603827147275354e-69 1.1730362539257361e-68 0.0000000000000000e+00  -5.6330570652660133e-70 9.5192939180325003e-70 0.0000000000000000e+00  -3.7793114583070988e-71 6.8181011713723451e-71 0.0000000000000000e+00  -1.8783884552837649e-72 3.2025033656948826e-72 0.0000000000000000e+00  -1.2177304625898130e-73 2.7266640419464613e-73 0.0000000000000000e+00  -4.4210949291518400e-75 1.2911353380800540e-74 0.0000000000000000e+00  -2.5481080994919700e-75 4.2411552921636547e-75 0.0000000000000000e+00  -9.7688228725363585e-76 3.5583848692539131e-76 0.0000000000000000e+00  -1.6211388047801987e-75 -2.3925527274786395e-76 0.0000000000000000e+00  -2.4488402231018075e-74 1.1591535780843225e-74 0.0000000000000000e+00  -3.6791217249338176e-74 1.5505065606522215e-75 0.0000000000000000e+00  -3.8828973896520546e-73 1.4336229438513330e-73 0.0000000000000000e+00  -1.0236460565868220e-71 6.2394102476828732e-72 0.0000000000000000e+00  -6.7399559161617675e-71 3.7091757196020508e-71 0.0000000000000000e+00  -1.0610287635502392e-70 3.9042211952040349e-72 0.0000000000000000e+00  -8.8995641925356648e-70 3.3099683680895685e-70 0.0000000000000000e+00  -2.1281722397374459e-68 1.2869817622039326e-68 0.0000000000000000e+00  -1.0235364174674966e-67 5.1126522596304454e-68 0.0000000000000000e+00  -1.0138305605415175e-67 -6.0294522363334804e-68 0.0000000000000000e+00  -3.1649632370576156e-66 1.7470789900372985e-66 0.0000000000000000e+00  -3.1842925332916216e-65 1.8329297363290008e-65 0.0000000000000000e+00  -5.3856363100862072e-65 5.0495260842185254e-66 0.0000000000000000e+00  -4.4358380258133675e-64 1.4475070352522975e-64 0.0000000000000000e+00  -6.9905322433284171e-63 4.3624849437453574e-63 0.0000000000000000e+00  -1.5062175562553870e-62 3.7517197855746654e-63 0.0000000000000000e+00  -8.4321937456868652e-62 1.9680932403075671e-62 0.0000000000000000e+00  -1.3543638774795917e-60 8.5260372586601407e-61 0.0000000000000000e+00  -2.4166715349013596e-60 3.3853339681482895e-61 0.0000000000000000e+00  -2.1164641985891441e-59 7.4048780781230826e-60 0.0000000000000000e+00  -2.4159866446181828e-58 1.4960804838297446e-58 0.0000000000000000e+00  -2.5882765759845177e-58 -9.4281621253123925e-59 0.0000000000000000e+00  -5.9761075706901180e-57 2.7845717334631279e-57 0.0000000000000000e+00  -2.4826408232549237e-56 1.2404606251427206e-56 0.0000000000000000e+00  -5.5640117981544062e-56 -8.6954409831286501e-57 0.0000000000000000e+00  -1.0108486366728901e-54 6.4866119921039698e-55 0.0000000000000000e+00  -1.1208263292399464e-54 -3.4676039583425134e-55 0.0000000000000000e+00  -2.4071684544726555e-53 1.2705992924327930e-53 0.0000000000000000e+00  -6.5914206540139804e-53 2.9919922244614431e-53 0.0000000000000000e+00  -4.3558296600026994e-52 1.2254830709944762e-52 0.0000000000000000e+00  -2.6649704103810109e-51 1.6645162042305760e-51 0.0000000000000000e+00  -7.6659065598078429e-51 -2.1455751521471684e-52 0.0000000000000000e+00  -7.1948117306520168e-50 4.6006984925308857e-50 0.0000000000000000e+00  -1.6172461957613627e-49 -1.4791340995071845e-50 0.0000000000000000e+00  -1.7292078655787703e-48 1.0108077568018663e-48 0.0000000000000000e+00  -4.3411732537544446e-48 -2.0418652523440584e-49 0.0000000000000000e+00  -2.0135024895066403e-47 1.1104739922910630e-47 0.0000000000000000e+00  -1.1027070818625908e-46 1.8967875550084041e-47 0.0000000000000000e+00  -1.0247214598345104e-46 2.4614284718822291e-47 0.0000000000000000e+00  -1.2406544583734702e-45 5.2555857644432693e-46 0.0000000000000000e+00  -8.7375911592816355e-46 -5.6813373309767420e-46 0.0000000000000000e+00  -1.3430553011029910e-44 8.0738841831607744e-45 0.0000000000000000e+00  -5.7959254198011779e-44 1.3742779861858680e-44 0.0000000000000000e+00  -3.6152676635876448e-44 -1.7519744452546777e-44 0.0000000000000000e+00  -1.1425884087469335e-43 6.5027585950676759e-44 0.0000000000000000e+00  -8.4132609514709759e-43 2.3167781016774948e-43 0.0000000000000000e+00  -1.9291467980861362e-42 1.9760561597015282e-43 0.0000000000000000e+00  -2.5117376321002016e-42 6.1063775195815161e-44 0.0000000000000000e+00  -2.0145221366837316e-42 -1.9485261958870263e-43 0.0000000000000000e+00  -8.6139524282132079e-43 -2.5064489161936240e-43 0.0000000000000000e+00  -1.1325529964364638e-43 -6.4489427832727207e-44 0.0000000000000000e+00  -3.8712306070378938e-44 1.8509052326246133e-44 0.0000000000000000e+00  -6.3167689927418971e-44 -1.0825580732617379e-44 0.0000000000000000e+00  -1.4990211048192089e-44 -7.8697490474143405e-45 0.0000000000000000e+00  -9.9878605105520476e-46 5.6739377808346062e-46 0.0000000000000000e+00  -1.4040268256257811e-45 -5.3877498075156197e-46 0.0000000000000000e+00  -1.1208729950779154e-46 -2.8561141025915088e-47 0.0000000000000000e+00  -1.0181715312515660e-46 -2.1425664055995231e-47 0.0000000000000000e+00  -1.8611712173276551e-47 -1.1974711612892034e-47 0.0000000000000000e+00  -4.0855936963052364e-48 2.0332014235964911e-49 0.0000000000000000e+00  -1.4869633319035256e-48 -9.3595338007099704e-49 0.0000000000000000e+00  -1.6331410096472303e-49 2.4553393408139624e-50 0.0000000000000000e+00  -7.4586938574654597e-50 -4.4199377853714172e-50 0.0000000000000000e+00  -8.2461108348070107e-51 6.4066219542794093e-52 0.0000000000000000e+00  -3.1458568802400522e-51 -1.7830954801446483e-51 0.0000000000000000e+00  -5.1031398164935110e-52 -1.1462174764098239e-52 0.0000000000000000e+00  -8.2067673857534530e-53 -3.5458471005183217e-53 0.0000000000000000e+00  -2.6621649173504784e-53 -1.3152143755475363e-53 0.0000000000000000e+00  -1.1971260198812003e-54 3.2382804918508465e-55 0.0000000000000000e+00  -1.0638373211133760e-54 -6.8026267395988142e-55 0.0000000000000000e+00  -5.1522326173263796e-56 8.3476115649436379e-57 0.0000000000000000e+00  -2.3368269648575352e-56 -1.3233691967434310e-56 0.0000000000000000e+00  -4.8243113476362981e-57 -2.5204289037627306e-57 0.0000000000000000e+00  -2.4585469387151917e-58 8.5432292022131920e-59 0.0000000000000000e+00  -2.1585115655062076e-58 -1.3280921060542900e-58 0.0000000000000000e+00  -1.9911611684680423e-59 -6.1441268298447103e-60 0.0000000000000000e+00  -2.3749715793251719e-60 -3.3948357717967535e-61 0.0000000000000000e+00  -1.2909657758571791e-60 -7.6061889704274441e-61 0.0000000000000000e+00  -7.6910663573712172e-62 -2.1431664431526919e-62 0.0000000000000000e+00  -1.3594189252346697e-62 -2.9296061877375891e-63 0.0000000000000000e+00  -6.6396602501558189e-63 -3.7874431097597364e-63 0.0000000000000000e+00  -4.7832754120421208e-64 -1.8192169686022231e-64 0.0000000000000000e+00  -4.3638494322254704e-65 9.5786824173956082e-67 0.0000000000000000e+00  -2.9483097585743079e-65 -1.6617920674443378e-65 0.0000000000000000e+00  -3.4133968871535274e-66 -1.9884083187177128e-66 0.0000000000000000e+00  -8.9949932416908492e-68 5.4799347265206647e-68 0.0000000000000000e+00  -8.6368794381189667e-68 -4.1770364244520820e-68 0.0000000000000000e+00  -2.0682712359597666e-68 -1.2848465987632470e-68 0.0000000000000000e+00  -1.1326704233139611e-69 -5.1331549075727119e-70 0.0000000000000000e+00  -8.7943421030172081e-71 1.3788251799757654e-71 0.0000000000000000e+00  -6.9083487891597451e-71 -3.6569550378782782e-71 0.0000000000000000e+00  -1.2479353803090036e-71 -7.6618927657491519e-72 0.0000000000000000e+00  -5.9820212863338947e-73 -2.7509848389271159e-73 0.0000000000000000e+00  -3.9237331585934395e-74 7.4232826557349536e-75 0.0000000000000000e+00  -3.1565710302140536e-74 -1.4789889590756233e-74 0.0000000000000000e+00  -6.5906634465055755e-75 -3.3570512227742477e-75 0.0000000000000000e+00  -7.1799081195543110e-76 -3.1071458202726002e-76 0.0000000000000000e+00  -8.5519083817419780e-76 -1.6228484998742147e-75 0.0000000000000000e+00  -4.7735379783990148e-75 -1.3945932591120596e-74 0.0000000000000000e+00  4.3670084399665789e-75 -8.3087840977437560e-75 0.0000000000000000e+00  -1.6294126194937991e-73 -3.4272301974369888e-73 0.0000000000000000e+00  -9.2854793429828326e-71 -1.0069562427201385e-70 0.0000000000000000e+00  -7.5066211050844517e-70 -1.3177146378881353e-69 0.0000000000000000e+00  -1.0984736661686817e-69 -3.6512313955236469e-69 0.0000000000000000e+00  -7.7613147804412311e-68 -1.7114023738122696e-67 0.0000000000000000e+00  -6.5313318783582357e-68 -3.2599367875094246e-67 0.0000000000000000e+00  -6.7901490441490932e-66 -1.3500479482019305e-65 0.0000000000000000e+00  -4.5201121466073257e-66 -2.1316163010412411e-65 0.0000000000000000e+00  -9.0702139932473242e-65 -1.5575202746259196e-64 0.0000000000000000e+00  1.7221316713281573e-65 -2.1035740347103711e-64 0.0000000000000000e+00  -4.2761284615301660e-62 -6.4021744017248763e-62 0.0000000000000000e+00  -6.9995023409198226e-62 -1.7206491988349055e-61 0.0000000000000000e+00  -2.3263508342754164e-62 -2.7286123889251461e-61 0.0000000000000000e+00  -5.7412366701850267e-60 -1.1361970054149523e-59 0.0000000000000000e+00  4.7690115012648179e-60 -1.5021010450862962e-59 0.0000000000000000e+00  -2.9016451729408489e-59 -4.7485073926482531e-59 0.0000000000000000e+00  8.8239769089947913e-60 -6.0862639711600923e-59 0.0000000000000000e+00  2.3263012369012734e-59 -3.9723362721737592e-59 0.0000000000000000e+00  -5.6400904402887878e-58 -8.9464586028063954e-58 0.0000000000000000e+00  -1.3808561639543951e-59 -1.2602357786446057e-57 0.0000000000000000e+00  -4.6359237654538557e-57 -1.1636738068807833e-56 0.0000000000000000e+00  5.7526106372024942e-57 -8.6755287060132876e-57 0.0000000000000000e+00  -5.3369642548931347e-57 -7.3368955100300416e-57 0.0000000000000000e+00  -1.7682564848259191e-56 -3.7730009909585926e-56 0.0000000000000000e+00  2.1633669598162899e-56 -4.0716952478682962e-56 0.0000000000000000e+00  -5.0062668404400311e-57 -9.1995102303665845e-57 0.0000000000000000e+00  -8.1245845473118904e-56 -2.0308304869104945e-55 0.0000000000000000e+00  6.3799697604692099e-56 -5.0771011886558432e-55 0.0000000000000000e+00  -4.2936607797348146e-55 -7.2569335372872498e-55 0.0000000000000000e+00  -4.8830835576197023e-56 -1.8357280850257970e-54 0.0000000000000000e+00  1.6620381571085937e-55 -5.7401119459309488e-55 0.0000000000000000e+00  -5.1878124506424759e-55 -1.6758560190782573e-54 0.0000000000000000e+00  -2.2562189495830809e-54 -7.0713363737335637e-54 0.0000000000000000e+00  2.5854563424946907e-54 -6.0770927035848081e-54 0.0000000000000000e+00  -6.7284972882363669e-55 -2.3896077883781701e-54 0.0000000000000000e+00  5.3322683253477846e-55 -2.8191460921722262e-54 0.0000000000000000e+00  1.2841608423401915e-55 -1.4248018384685118e-54 0.0000000000000000e+00  -2.1832607175470701e-54 -3.4664467407107402e-54 0.0000000000000000e+00  5.7211068365723477e-55 -8.2270253858883842e-54 0.0000000000000000e+00  -3.9360937366493426e-54 -1.3557426420427116e-53 0.0000000000000000e+00  4.6992471064617809e-54 -7.7148850287356874e-54 0.0000000000000000e+00  2.0347565387146901e-55 -6.5061128679352704e-55 0.0000000000000000e+00  -4.8085340635381240e-54 -8.0086975275793826e-54 0.0000000000000000e+00  4.8344890560885368e-54 -7.8697648358983735e-54 0.0000000000000000e+00  -1.6645285064095016e-56 -1.3349858304174871e-55 0.0000000000000000e+00  1.1171442633636997e-56 -2.7680268228871922e-55 0.0000000000000000e+00  2.2104303673990774e-56 -9.8796574794566024e-56 0.0000000000000000e+00  -5.2129320564149798e-54 -9.3537599799383169e-54 0.0000000000000000e+00  5.5600240676974213e-54 -9.4076770609286334e-54 0.0000000000000000e+00  5.6844183700595326e-56 -1.0518506681398146e-55 0.0000000000000000e+00  -1.4353665487855841e-56 -6.2047859440626279e-56 0.0000000000000000e+00  -5.0076599434847494e-55 -9.0467500278694503e-55 0.0000000000000000e+00  -5.8244432681303176e-54 -1.0046226461647456e-53 0.0000000000000000e+00  4.5111807699311243e-54 -1.0491447865911349e-53 0.0000000000000000e+00  -3.0575340441916160e-54 -7.9856151379530710e-54 0.0000000000000000e+00  2.4428847469835504e-54 -8.5496414978081287e-54 0.0000000000000000e+00  2.2500574282116557e-54 -3.3059823342071613e-54 0.0000000000000000e+00  -5.4456991769484471e-55 -1.4799065994384276e-54 0.0000000000000000e+00  8.3697839900947675e-55 -1.5737456974454572e-54 0.0000000000000000e+00  -4.9311738259128833e-55 -9.8330004290143085e-55 0.0000000000000000e+00  5.1325736091309220e-55 -8.8543334789543560e-55 0.0000000000000000e+00  -1.5689000970322398e-56 -2.6922692443306999e-56 0.0000000000000000e+00  -4.4833223857082952e-56 -1.7218856762275786e-55 0.0000000000000000e+00  4.1778153814968639e-56 -1.7467188210387698e-55 0.0000000000000000e+00  4.8074438819554724e-57 -6.9029429779640272e-56 0.0000000000000000e+00  -2.7519751250389174e-56 -6.5431777941326182e-56 0.0000000000000000e+00  3.2916925451106691e-56 -6.4130915788569288e-56 0.0000000000000000e+00  -2.8617720098024339e-57 -2.8734060183634648e-56 0.0000000000000000e+00  1.2972709382342316e-56 -3.0017824389469297e-56 0.0000000000000000e+00  1.0033340691424798e-57 -2.3988673278108542e-57 0.0000000000000000e+00  -4.3865320601893652e-57 -7.6400232750046325e-57 0.0000000000000000e+00  4.2531774497465737e-57 -1.1006017913924878e-56 0.0000000000000000e+00  3.1269452945392500e-58 -1.0212316213339412e-57 0.0000000000000000e+00  1.4389795073424488e-58 -5.025843