<?xml version="1.0"?>
<VTKFile type="UnstructuredGrid"  version="0.1"  >
<UnstructuredGrid>
<Piece  NumberOfPoints="11902" NumberOfCells="23402">
<Points>
<DataArray  type="Float64"  NumberOfComponents="3"  format="ascii">-5 -5 0  5 -5 0  5 5 0  -5 5 0  1.254478415282488 0.001355116686200155 0  -4.9 -5 0  -4.8 -5 0  -4.7 -5 0  -4.6 -5 0  -4.5 -5 0  -4.4 -5 0  -4.3 -5 0  -4.2 -5 0  -4.1 -5 0  -4 -5 0  -3.9 -5 0  -3.8 -5 0  -3.7 -5 0  -3.6 -5 0  -3.5 -5 0  -3.4 -5 0  -3.3 -5 0  -3.2 -5 0  -3.1 -5 0  -3 -5 0  -2.9 -5 0  -2.8 -5 0  -2.7 -5 0  -2.6 -5 0  -2.5 -5 0  -2.4 -5 0  -2.3 -5 0  -2.2 -5 0  -2.1 -5 0  -2 -5 0  -1.9 -5 0  -1.8 -5 0  -1.7 -5 0  -1.6 -5 0  -1.5 -5 0  -1.4 -5 0  -1.3 -5 0  -1.2 -5 0  -1.1 -5 0  -1 -5 0  -0.9000000000000004 -5 0  -0.7999999999999998 -5 0  -0.7000000000000002 -5 0  -0.5999999999999996 -5 0  -0.5 -5 0  -0.4000000000000004 -5 0  -0.2999999999999998 -5 0  -0.2000000000000002 -5 0  -0.09999999999999964 -5 0  0 -5 0  0.09999999999999964 -5 0  0.2000000000000002 -5 0  0.2999999999999998 -5 0  0.4000000000000004 -5 0  0.5 -5 0  0.5999999999999996 -5 0  0.7000000000000002 -5 0  0.7999999999999998 -5 0  0.9000000000000004 -5 0  1 -5 0  1.1 -5 0  1.2 -5 0  1.3 -5 0  1.4 -5 0  1.5 -5 0  1.6 -5 0  1.7 -5 0  1.8 -5 0  1.9 -5 0  2 -5 0  2.1 -5 0  2.2 -5 0  2.3 -5 0  2.4 -5 0  2.5 -5 0  2.6 -5 0  2.7 -5 0  2.8 -5 0  2.9 -5 0  3 -5 0  3.1 -5 0  3.199999999999999 -5 0  3.300000000000001 -5 0  3.4 -5 0  3.5 -5 0  3.6 -5 0  3.699999999999999 -5 0  3.800000000000001 -5 0  3.9 -5 0  4 -5 0  4.1 -5 0  4.199999999999999 -5 0  4.300000000000001 -5 0  4.4 -5 0  4.5 -5 0  4.6 -5 0  4.699999999999999 -5 0  4.800000000000001 -5 0  4.9 -5 0  5 -4.9 0  5 -4.8 0  5 -4.7 0  5 -4.6 0  5 -4.5 0  5 -4.4 0  5 -4.3 0  5 -4.2 0  5 -4.1 0  5 -4 0  5 -3.9 0  5 -3.8 0  5 -3.7 0  5 -3.6 0  5 -3.5 0  5 -3.4 0  5 -3.3 0  5 -3.2 0  5 -3.1 0  5 -3 0  5 -2.9 0  5 -2.8 0  5 -2.7 0  5 -2.6 0  5 -2.5 0  5 -2.4 0  5 -2.3 0  5 -2.2 0  5 -2.1 0  5 -2 0  5 -1.9 0  5 -1.8 0  5 -1.7 0  5 -1.6 0  5 -1.5 0  5 -1.4 0  5 -1.3 0  5 -1.2 0  5 -1.1 0  5 -1 0  5 -0.9000000000000004 0  5 -0.7999999999999998 0  5 -0.7000000000000002 0  5 -0.5999999999999996 0  5 -0.5 0  5 -0.4000000000000004 0  5 -0.2999999999999998 0  5 -0.2000000000000002 0  5 -0.09999999999999964 0  5 0 0  5 0.09999999999999964 0  5 0.2000000000000002 0  5 0.2999999999999998 0  5 0.4000000000000004 0  5 0.5 0  5 0.5999999999999996 0  5 0.7000000000000002 0  5 0.7999999999999998 0  5 0.9000000000000004 0  5 1 0  5 1.1 0  5 1.2 0  5 1.3 0  5 1.4 0  5 1.5 0  5 1.6 0  5 1.7 0  5 1.8 0  5 1.9 0  5 2 0  5 2.1 0  5 2.2 0  5 2.3 0  5 2.4 0  5 2.5 0  5 2.6 0  5 2.7 0  5 2.8 0  5 2.9 0  5 3 0  5 3.1 0  5 3.199999999999999 0  5 3.300000000000001 0  5 3.4 0  5 3.5 0  5 3.6 0  5 3.699999999999999 0  5 3.800000000000001 0  5 3.9 0  5 4 0  5 4.1 0  5 4.199999999999999 0  5 4.300000000000001 0  5 4.4 0  5 4.5 0  5 4.6 0  5 4.699999999999999 0  5 4.800000000000001 0  5 4.9 0  4.9 5 0  4.8 5 0  4.7 5 0  4.6 5 0  4.5 5 0  4.4 5 0  4.3 5 0  4.2 5 0  4.1 5 0  4 5 0  3.9 5 0  3.8 5 0  3.7 5 0  3.6 5 0  3.5 5 0  3.4 5 0  3.3 5 0  3.2 5 0  3.1 5 0  3 5 0  2.9 5 0  2.8 5 0  2.7 5 0  2.6 5 0  2.5 5 0  2.4 5 0  2.3 5 0  2.2 5 0  2.1 5 0  2 5 0  1.9 5 0  1.8 5 0  1.7 5 0  1.6 5 0  1.5 5 0  1.4 5 0  1.3 5 0  1.2 5 0  1.1 5 0  1 5 0  0.9000000000000004 5 0  0.7999999999999998 5 0  0.7000000000000002 5 0  0.5999999999999996 5 0  0.5 5 0  0.4000000000000004 5 0  0.2999999999999998 5 0  0.2000000000000002 5 0  0.09999999999999964 5 0  0 5 0  -0.09999999999999964 5 0  -0.2000000000000002 5 0  -0.2999999999999998 5 0  -0.4000000000000004 5 0  -0.5 5 0  -0.5999999999999996 5 0  -0.7000000000000002 5 0  -0.7999999999999998 5 0  -0.9000000000000004 5 0  -1 5 0  -1.1 5 0  -1.2 5 0  -1.3 5 0  -1.4 5 0  -1.5 5 0  -1.6 5 0  -1.7 5 0  -1.8 5 0  -1.9 5 0  -2 5 0  -2.1 5 0  -2.2 5 0  -2.3 5 0  -2.4 5 0  -2.5 5 0  -2.6 5 0  -2.7 5 0  -2.8 5 0  -2.9 5 0  -3 5 0  -3.1 5 0  -3.199999999999999 5 0  -3.300000000000001 5 0  -3.4 5 0  -3.5 5 0  -3.6 5 0  -3.699999999999999 5 0  -3.800000000000001 5 0  -3.9 5 0  -4 5 0  -4.1 5 0  -4.199999999999999 5 0  -4.300000000000001 5 0  -4.4 5 0  -4.5 5 0  -4.6 5 0  -4.699999999999999 5 0  -4.800000000000001 5 0  -4.9 5 0  -5 4.9 0  -5 4.8 0  -5 4.7 0  -5 4.6 0  -5 4.5 0  -5 4.4 0  -5 4.3 0  -5 4.2 0  -5 4.1 0  -5 4 0  -5 3.9 0  -5 3.8 0  -5 3.7 0  -5 3.6 0  -5 3.5 0  -5 3.4 0  -5 3.3 0  -5 3.2 0  -5 3.1 0  -5 3 0  -5 2.9 0  -5 2.8 0  -5 2.7 0  -5 2.6 0  -5 2.5 0  -5 2.4 0  -5 2.3 0  -5 2.2 0  -5 2.1 0  -5 2 0  -5 1.9 0  -5 1.8 0  -5 1.7 0  -5 1.6 0  -5 1.5 0  -5 1.4 0  -5 1.3 0  -5 1.2 0  -5 1.1 0  -5 1 0  -5 0.9000000000000004 0  -5 0.7999999999999998 0  -5 0.7000000000000002 0  -5 0.5999999999999996 0  -5 0.5 0  -5 0.4000000000000004 0  -5 0.2999999999999998 0  -5 0.2000000000000002 0  -5 0.09999999999999964 0  -5 0 0  -5 -0.09999999999999964 0  -5 -0.2000000000000002 0  -5 -0.2999999999999998 0  -5 -0.4000000000000004 0  -5 -0.5 0  -5 -0.5999999999999996 0  -5 -0.7000000000000002 0  -5 -0.7999999999999998 0  -5 -0.9000000000000004 0  -5 -1 0  -5 -1.1 0  -5 -1.2 0  -5 -1.3 0  -5 -1.4 0  -5 -1.5 0  -5 -1.6 0  -5 -1.7 0  -5 -1.8 0  -5 -1.9 0  -5 -2 0  -5 -2.1 0  -5 -2.2 0  -5 -2.3 0  -5 -2.4 0  -5 -2.5 0  -5 -2.6 0  -5 -2.7 0  -5 -2.8 0  -5 -2.9 0  -5 -3 0  -5 -3.1 0  -5 -3.199999999999999 0  -5 -3.300000000000001 0  -5 -3.4 0  -5 -3.5 0  -5 -3.6 0  -5 -3.699999999999999 0  -5 -3.800000000000001 0  -5 -3.9 0  -5 -4 0  -5 -4.1 0  -5 -4.199999999999999 0  -5 -4.300000000000001 0  -5 -4.4 0  -5 -4.5 0  -5 -4.6 0  -5 -4.699999999999999 0  -5 -4.800000000000001 0  -5 -4.9 0  1.24662505883653 0.09541839748407481 0  1.225306088755385 0.1928341169899559 0  1.191972484454693 0.2893474002613823 0  1.149188813855146 0.3783825434946425 0  1.091741471507556 0.4690999430593712 0  1.026342529136418 0.5535892481436024 0  0.9484535123328633 0.6334299389877981 0  0.8620656457287836 0.7077932556060579 0  0.770382558897255 0.7731967729848087 0  0.6681553694782483 0.8306024328963358 0  0.5570956137798532 0.882899704840737 0  0.4449613321283614 0.9269113224486561 0  0.3322690477278075 0.9593334734786686 0  0.208534248394654 0.9808715425506263 0  0.08923402832132414 0.9995571234559496 0  -0.0273067190637772 1.002772241683319 0  -0.1450607111625409 0.9892933515714426 0  -0.2712315340389019 0.9705979878141584 0  -0.3901357048567278 0.9461713563808186 0  -0.5009711351356869 0.9099777036141494 0  -0.6099457019361626 0.863560324258091 0  -0.7121030801539112 0.8090520789475324 0  -0.8066707767532016 0.7442936175093213 0  -0.8972278582697019 0.6711858606497445 0  -0.9821433042804468 0.5917140110289282 0  -1.05583221759769 0.5106195810503714 0  -1.117464247645643 0.4249743078174775 0  -1.169892867407442 0.3330313302828105 0  -1.207850040606708 0.2429041883173284 0  -1.232350384808848 0.1485399665880147 0  -1.243777242489311 0.0512553378206286 0  -1.243726225250377 -0.04915669712290115 0  -1.232300582569624 -0.1457357011657082 0  -1.207557829798779 -0.2387987762823036 0  -1.166797533248492 -0.3336203103463891 0  -1.117755843302345 -0.4251104516524055 0  -1.057385623209734 -0.5103876557266221 0  -0.9844872034370802 -0.5906811520495833 0  -0.9001933818117618 -0.6689795568702077 0  -0.8100498457075932 -0.7404283544357061 0  -0.7140941128509269 -0.8014254668140418 0  -0.609600758040967 -0.8545788700497785 0  -0.4965787760078236 -0.9039203412532444 0  -0.3837824256393549 -0.943486750453386 0  -0.2679593436884378 -0.9701834497474627 0  -0.1436575495301147 -0.9889887105891653 0  -0.02796046235773767 -1.001958877782731 0  0.08887073730306499 -0.9949010174026374 0  0.2135617889789932 -0.9776792935547249 0  0.3347035308275128 -0.9577726979906097 0  0.4490829677814993 -0.9255827328017041 0  0.5594236299376663 -0.8820550529186797 0  0.6690623929485142 -0.8306591870226315 0  0.7703644856427531 -0.7743352607040819 0  0.8621779087804946 -0.7087741018598285 0  0.9477050428416923 -0.6334636362236172 0  1.023762709342546 -0.5526947733828274 0  1.092262975891951 -0.4680633186524693 0  1.150066031241727 -0.3786221211639964 0  1.193712820134083 -0.2873343059151699 0  1.225939259600792 -0.1919547037290882 0  1.246921783384949 -0.09512898949574421 0  -2.448571547347718 4.918132441241664 0  -2.448446653890573 -4.910512457510245 0  4.910437251806789 2.447906517497666 0  4.918562102325263 -2.449366960764442 0  2.446178128507335 -4.895747142919554 0  2.440611284565181 4.899509172738927 0  -4.910464145323193 -2.447932765945036 0  -4.910461455180039 2.447936659439261 0  -1.748526041218978 4.911028720550086 0  -1.744312278425107 -4.914469256351297 0  4.920618050986786 1.744080212402189 0  4.909149597996301 -1.747842770027009 0  -4.909443608905721 -1.747576892436988 0  -4.91026601027411 1.74732161721204 0  1.745799566008631 4.904886189003618 0  1.747213827404919 -4.893032406606197 0  -1.148834889446699 4.908815369308462 0  -1.129692034728544 -4.916731179335903 0  -4.909159433259351 -1.1479034385103 0  -4.908977720038687 1.1477038084432 0  1.143829956307444 -4.91291512182559 0  1.148844811854475 4.908802081858956 0  4.909299327830493 1.146178742176458 0  4.920134743449722 -1.151963501094944 0  -0.5466655032881564 -4.910005470541008 0  -0.5464484323023379 4.918692114427905 0  -4.907890527400914 -0.5486949570557891 0  -4.907914500120999 0.5472526548351838 0  4.907209358285861 -0.5490131173801081 0  4.918872012328513 0.5457722519379967 0  0.5424474891024627 -4.896879661943524 0  0.5511770545266631 4.9155139759491 0  -4.91188780651219 -3.048289043407706 0  4.918459173446805 3.046305509768569 0  4.911395539592615 -3.048264692796488 0  -4.912735644621624 3.045380649101275 0  3.055296598649192 -4.917382598712002 0  -3.048627156006978 -4.911318137071469 0  3.052194515437718 4.913396060347694 0  -3.048072804996834 4.912207981682698 0  -4.906998074046728 -0.04990642804399863 0  0.04511957967566255 -4.91195546537848 0  0.04956722798215404 4.918984856410906 0  4.914056741062536 -0.05128856319589141 0  3.545616001964966 -4.919026702840306 0  -3.548896211045136 4
[...]
<PointData  Vectors="f_4430"> 
<DataArray  type="Float64"  Name="f_4430"  NumberOfComponents="3" format="ascii">2.6559658580600279e-76 2.6559658580600279e-76 0.0000000000000000e+00  -2.8445085011138809e-76 2.8445085011138809e-76 0.0000000000000000e+00  -8.5659604779170154e-78 -8.5659604779170154e-78 0.0000000000000000e+00  3.0308186857311674e-76 -3.0308186857311674e-76 0.0000000000000000e+00  -2.0143924549532347e-01 -4.4021788336519440e-03 0.0000000000000000e+00  4.1659080333661131e-75 6.6062541121899852e-75 0.0000000000000000e+00  2.0824050571805343e-75 2.0879950636602229e-74 0.0000000000000000e+00  -3.4058095357194487e-75 6.7715189321027569e-75 0.0000000000000000e+00  4.0002348043636548e-72 6.6680471084879158e-72 0.0000000000000000e+00  5.3170684375048553e-71 1.3458120299591974e-70 0.0000000000000000e+00  -7.9201367368182848e-72 4.5552494289934453e-71 0.0000000000000000e+00  3.2344684823280417e-69 6.1622952456623199e-69 0.0000000000000000e+00  5.1616766017720724e-68 9.3987700251861232e-68 0.0000000000000000e+00  -3.0649322576662542e-68 1.5000611781940639e-67 0.0000000000000000e+00  1.2768657228984900e-67 3.9816806416665589e-67 0.0000000000000000e+00  1.2636823436034816e-68 8.7790386294857316e-67 0.0000000000000000e+00  5.4521806479723920e-64 8.8229969926838607e-64 0.0000000000000000e+00  4.7451979014005198e-65 2.4418607203216736e-63 0.0000000000000000e+00  1.3492989108122520e-62 2.1990096678003347e-62 0.0000000000000000e+00  8.0670906468149131e-63 8.3181079611268976e-62 0.0000000000000000e+00  6.9320030012465109e-61 1.1023053392344897e-60 0.0000000000000000e+00  4.0626864793858543e-60 7.0067912240705734e-60 0.0000000000000000e+00  -2.8472206896171859e-60 7.6989212774522657e-60 0.0000000000000000e+00  5.6626350965675918e-59 1.1368223923446463e-58 0.0000000000000000e+00  -1.7589176371792261e-59 1.1646312887612311e-58 0.0000000000000000e+00  -3.0034102626462681e-59 6.8382591701516745e-59 0.0000000000000000e+00  1.8022643609558721e-58 3.3043718469219643e-58 0.0000000000000000e+00  7.2986602855326828e-58 2.0894875135260296e-57 0.0000000000000000e+00  2.8604367058210092e-57 6.2331507706618342e-57 0.0000000000000000e+00  -3.4070077257239422e-57 5.7377512119013818e-57 0.0000000000000000e+00  -3.5220949485562020e-58 1.0977613244625851e-57 0.0000000000000000e+00  1.9083780772904356e-56 2.9321500332322252e-56 0.0000000000000000e+00  -1.4133332531421689e-56 3.5307522055456274e-56 0.0000000000000000e+00  1.1911783885439890e-56 2.8935348123955835e-56 0.0000000000000000e+00  8.7363418123763099e-56 2.0976295767958726e-55 0.0000000000000000e+00  -2.5099496001866893e-56 5.7433933626174989e-55 0.0000000000000000e+00  5.2092758370107122e-57 8.6128112891898915e-57 0.0000000000000000e+00  5.5434996288385062e-56 1.3817209171874090e-55 0.0000000000000000e+00  1.5485968949268978e-55 6.1695784483934444e-55 0.0000000000000000e+00  -2.2357352313117487e-55 3.5162742675061331e-55 0.0000000000000000e+00  9.8338575131025524e-55 1.7229366765247461e-54 0.0000000000000000e+00  -4.4190847297305211e-55 4.3614616424861955e-54 0.0000000000000000e+00  -2.2819618163912675e-55 2.6820097094153753e-54 0.0000000000000000e+00  -9.6152510558916925e-56 9.4396712558264855e-55 0.0000000000000000e+00  -1.1307887598373406e-55 1.8221541106952659e-55 0.0000000000000000e+00  2.7591963836985613e-54 5.2332785599217348e-54 0.0000000000000000e+00  -2.1593054926961437e-54 4.1390916253331667e-54 0.0000000000000000e+00  -7.1901939301145700e-55 8.0810310648878343e-55 0.0000000000000000e+00  -1.3201177408690755e-55 2.7131922297526104e-55 0.0000000000000000e+00  9.3006903689104298e-55 1.4450977258332901e-54 0.0000000000000000e+00  9.4525511412538683e-55 6.1543905904841530e-54 0.0000000000000000e+00  -1.1282262150293234e-54 5.8988234460776533e-54 0.0000000000000000e+00  5.1456820146279178e-55 4.6480198048684439e-54 0.0000000000000000e+00  1.9080611377585907e-56 5.7929261348872462e-54 0.0000000000000000e+00  3.0167447914054694e-55 6.1510842461461958e-54 0.0000000000000000e+00  -1.2613195428296590e-54 2.0441414955566702e-54 0.0000000000000000e+00  -6.4538598349571484e-55 1.4723127391756368e-53 0.0000000000000000e+00  4.4627091190106342e-54 7.4692660084466287e-54 0.0000000000000000e+00  -4.3463177812567142e-54 8.0956748147020187e-54 0.0000000000000000e+00  1.9215038602999781e-54 3.9569861733346092e-54 0.0000000000000000e+00  -7.3604116927885841e-55 9.4986226540220342e-54 0.0000000000000000e+00  1.3309417987107650e-54 9.3288657324464576e-54 0.0000000000000000e+00  -1.6846857930883892e-54 4.3962394671448930e-54 0.0000000000000000e+00  -9.2495116128088940e-55 2.4046101624110977e-54 0.0000000000000000e+00  3.3312455215464547e-55 1.2996560458833395e-54 0.0000000000000000e+00  2.6569649382587060e-55 2.5376373815269185e-54 0.0000000000000000e+00  -7.8305986063367870e-56 3.4898013169111998e-54 0.0000000000000000e+00  -7.1128177933484509e-55 1.4813410265653370e-54 0.0000000000000000e+00  2.3779025664304295e-55 4.4266262828766244e-55 0.0000000000000000e+00  -2.3097623998746325e-55 6.0227678895491109e-55 0.0000000000000000e+00  5.0337956352761133e-56 2.3981662540776012e-55 0.0000000000000000e+00  1.8665439547104156e-55 9.5246930635546705e-55 0.0000000000000000e+00  -3.3038187119493460e-55 5.3006179024691468e-55 0.0000000000000000e+00  -1.5909310938345569e-56 4.8213872332261779e-56 0.0000000000000000e+00  -1.1349973944188402e-57 1.1332394514404838e-56 0.0000000000000000e+00  6.7540522455272448e-57 2.3554232778397600e-56 0.0000000000000000e+00  -8.9931017778135643e-57 1.5015509986483760e-56 0.0000000000000000e+00  1.7418617212676808e-57 2.8880056893404355e-57 0.0000000000000000e+00  -1.2442557827611263e-57 2.7235971491542902e-57 0.0000000000000000e+00  5.1762380962009247e-57 7.8120149331577325e-57 0.0000000000000000e+00  -4.5328255116029633e-57 1.1247965968679317e-56 0.0000000000000000e+00  -1.8136072324779635e-58 9.3938727629078479e-58 0.0000000000000000e+00  -2.3918634066925305e-58 4.6509513261606190e-58 0.0000000000000000e+00  -7.8766389094734299e-61 8.8102877398296891e-59 0.0000000000000000e+00  -2.4454400033464268e-59 6.4213046528202304e-59 0.0000000000000000e+00  -7.1141173639476862e-60 2.4993202760649604e-59 0.0000000000000000e+00  -4.3838332002865497e-60 2.2384165623808874e-59 0.0000000000000000e+00  -3.0620183509041763e-60 7.1664503345922542e-60 0.0000000000000000e+00  -8.5210663094896903e-62 4.4347592891139176e-61 0.0000000000000000e+00  -1.0755473071684984e-61 2.2335657236310543e-61 0.0000000000000000e+00  -3.5862015085070030e-62 5.6729418092129311e-62 0.0000000000000000e+00  -3.9088026880178783e-64 6.6964016801489197e-64 0.0000000000000000e+00  -2.4305500695485570e-65 5.1700391865806466e-65 0.0000000000000000e+00  3.7071699285688125e-66 1.0387793645427865e-65 0.0000000000000000e+00  -4.8411930291617219e-66 9.2605610009478490e-66 0.0000000000000000e+00  -6.6982332205690091e-68 2.7709499849318872e-67 0.0000000000000000e+00  -7.8519312734533459e-68 1.2916396061097778e-67 0.0000000000000000e+00  -8.0596501679831483e-69 1.1730994404551963e-68 0.0000000000000000e+00  -5.6326223781960161e-70 9.5196722164804890e-70 0.0000000000000000e+00  -3.7790741983010226e-71 6.8183093431540510e-71 0.0000000000000000e+00  -1.8782957973543842e-72 3.2025851717434692e-72 0.0000000000000000e+00  -1.2176949084467494e-73 2.7266956884557084e-73 0.0000000000000000e+00  -4.4209816754104632e-75 1.2911454100249873e-74 0.0000000000000000e+00  -2.5480766061594446e-75 4.2411833629292417e-75 0.0000000000000000e+00  -9.7688761865015691e-76 3.5583372840040176e-76 0.0000000000000000e+00  -1.6211254108993768e-75 -2.3924324779413068e-76 0.0000000000000000e+00  -2.4488806678059947e-74 1.1591173288614980e-74 0.0000000000000000e+00  -3.6791298232774908e-74 1.5504334897879612e-75 0.0000000000000000e+00  -3.8829740689181555e-73 1.4335538902508755e-73 0.0000000000000000e+00  -1.0236927866587914e-71 6.2389835536088533e-72 0.0000000000000000e+00  -6.7402890884002676e-71 3.7088682139884406e-71 0.0000000000000000e+00  -1.0610328881866320e-70 3.9038353428120387e-72 0.0000000000000000e+00  -8.8999127854298142e-70 3.3096432460982457e-70 0.0000000000000000e+00  -2.1283357756306799e-68 1.2868254482549899e-68 0.0000000000000000e+00  -1.0236089048524803e-67 5.1119469836633749e-68 0.0000000000000000e+00  -1.0137340234884291e-67 -6.0284893115461256e-68 0.0000000000000000e+00  -3.1652463033352955e-66 1.7467959969399869e-66 0.0000000000000000e+00  -3.1846184627749497e-65 1.8325954238694683e-65 0.0000000000000000e+00  -5.3857335508029433e-65 5.0485019478362790e-66 0.0000000000000000e+00  -4.4361148413473867e-64 1.4472172791299866e-64 0.0000000000000000e+00  -6.9914571846450989e-63 4.3614716975715765e-63 0.0000000000000000e+00  -1.5063021305805342e-62 3.7507633440438463e-63 0.0000000000000000e+00  -8.4326245143817678e-62 1.9676182934690747e-62 0.0000000000000000e+00  -1.3545712970084758e-60 8.5235753003225809e-61 0.0000000000000000e+00  -2.4167580226776792e-60 3.3842655009995906e-61 0.0000000000000000e+00  -2.1166530896759775e-59 7.4025583962846331e-60 0.0000000000000000e+00  -2.4163901305357016e-58 1.4955536092923610e-58 0.0000000000000000e+00  -2.5880128732155964e-58 -9.4245399407072059e-59 0.0000000000000000e+00  -5.9768908438747723e-57 2.7834881985982995e-57 0.0000000000000000e+00  -2.4829998003071287e-56 1.2399342379252715e-56 0.0000000000000000e+00  -5.5637473340180288e-56 -8.6909045384332450e-57 0.0000000000000000e+00  -1.0110408572937232e-54 6.4835759666632060e-55 0.0000000000000000e+00  -1.1207226379361597e-54 -3.4658511815250575e-55 0.0000000000000000e+00  -2.4075490113307001e-53 1.2699499096126453e-53 0.0000000000000000e+00  -6.5923138820716379e-53 2.9903449762166817e-53 0.0000000000000000e+00  -4.3561982591749481e-52 1.2248210049948169e-52 0.0000000000000000e+00  -2.6654583434220653e-51 1.6635196089213934e-51 0.0000000000000000e+00  -7.6658666132170167e-51 -2.1433615663747635e-52 0.0000000000000000e+00  -7.1961081678022014e-50 4.5977166230405149e-50 0.0000000000000000e+00  -1.6172128073886927e-49 -1.4779595758449914e-50 0.0000000000000000e+00  -1.7294750140143539e-48 1.0101043552262006e-48 0.0000000000000000e+00  -4.3411450220544579e-48 -2.0399816919888014e-49 0.0000000000000000e+00  -2.0137676310894157e-47 1.1096481544979653e-47 0.0000000000000000e+00  -1.1027565094799508e-46 1.8954243908825355e-47 0.0000000000000000e+00  -1.0247710549283533e-46 2.4594784448482292e-47 0.0000000000000000e+00  -1.2407605162398763e-45 5.2514162687190613e-46 0.0000000000000000e+00  -8.7367021860903597e-46 -5.6766087224710263e-46 0.0000000000000000e+00  -1.3431800338289783e-44 8.0671507645921888e-45 0.0000000000000000e+00  -5.7961475162438647e-44 1.3731331362715756e-44 0.0000000000000000e+00  -3.6151238608758089e-44 -1.7504484439856595e-44 0.0000000000000000e+00  -1.1426434403039979e-43 6.4971025411221074e-44 0.0000000000000000e+00  -8.4134570141243311e-43 2.3147576392037077e-43 0.0000000000000000e+00  -1.9291718145788632e-42 1.9743317907784111e-43 0.0000000000000000e+00  -2.5117642770226723e-42 6.1009789696207176e-44 0.0000000000000000e+00  -2.0145474269370766e-42 -1.9468256175531553e-43 0.0000000000000000e+00  -8.6141574423860060e-43 -2.5042606053600955e-43 0.0000000000000000e+00  -1.1326077129665778e-43 -6.4433313908683249e-44 0.0000000000000000e+00  -3.8710772054239890e-44 1.8492929119706210e-44 0.0000000000000000e+00  -6.3169563653346248e-44 -1.0816619456729089e-44 0.0000000000000000e+00  -1.4991433487940005e-44 -7.8631851091833106e-45 0.0000000000000000e+00  -9.9869674497073657e-46 5.6692152118441947e-46 0.0000000000000000e+00  -1.4041356481720234e-45 -5.3834711208123347e-46 0.0000000000000000e+00  -1.1209312720303541e-46 -2.8538561929937847e-47 0.0000000000000000e+00  -1.0182256095011760e-46 -2.1410009982078317e-47 0.0000000000000000e+00  -1.8614571851346825e-47 -1.1965786037373514e-47 0.0000000000000000e+00  -4.0855667944855101e-48 2.0313027858337911e-49 0.0000000000000000e+00  -1.4872109353637875e-48 -9.3530057782036884e-49 0.0000000000000000e+00  -1.6330811900773245e-49 2.4534948723688346e-50 0.0000000000000000e+00  -7.4599420074451619e-50 -4.4170703325050358e-50 0.0000000000000000e+00  -8.2459479710699293e-51 6.4017359320732236e-52 0.0000000000000000e+00  -3.1463803550849889e-51 -1.7820253953337949e-51 0.0000000000000000e+00  -5.1034858755972023e-52 -1.1456026606121332e-52 0.0000000000000000e+00  -8.2078279129854565e-53 -3.5438929827450699e-53 0.0000000000000000e+00  -2.6625595567461574e-53 -1.3145404651785043e-53 0.0000000000000000e+00  -1.1970290161784793e-54 3.2366426315660888e-55 0.0000000000000000e+00  -1.0640392610650492e-54 -6.7994397931900262e-55 0.0000000000000000e+00  -5.1519784881237951e-56 8.3432662698647280e-57 0.0000000000000000e+00  -2.3372105230695919e-56 -1.3228074340848563e-56 0.0000000000000000e+00  -4.8250217533443764e-57 -2.5194462200167683e-57 0.0000000000000000e+00  -2.4583074339649518e-58 8.5399373617753329e-59 0.0000000000000000e+00  -2.1588707721128149e-58 -1.3276222477182574e-58 0.0000000000000000e+00  -1.9913177770899846e-59 -6.1422080071188084e-60 0.0000000000000000e+00  -2.3750584609891713e-60 -3.3937618446692598e-61 0.0000000000000000e+00  -1.2911512529469553e-60 -7.6039849203225967e-61 0.0000000000000000e+00  -7.6915441739171490e-62 -2.1426329347039866e-62 0.0000000000000000e+00  -1.3594853182677613e-62 -2.9288532882904898e-63 0.0000000000000000e+00  -6.6404665285418646e-63 -3.7865579689345177e-63 0.0000000000000000e+00  -4.7836296300999292e-64 -1.8188430764502179e-64 0.0000000000000000e+00  -4.3638309008669378e-65 9.5767266522583867e-67 0.0000000000000000e+00  -2.9486061657200750e-65 -1.6614875944237103e-65 0.0000000000000000e+00  -3.4137209596472100e-66 -1.9880836137333702e-66 0.0000000000000000e+00  -8.9941055675909408e-68 5.4790463997489454e-68 0.0000000000000000e+00  -8.6374734180783713e-68 -4.1764576827247463e-68 0.0000000000000000e+00  -2.0684349874413446e-68 -1.2846898518086534e-68 0.0000000000000000e+00  -1.1327260285242936e-69 -5.1326336700891399e-70 0.0000000000000000e+00  -8.7941951402829758e-71 1.3786874195013878e-71 0.0000000000000000e+00  -6.9086781366863027e-71 -3.6566506149462782e-71 0.0000000000000000e+00  -1.2479930350522414e-71 -7.6613654687753113e-72 0.0000000000000000e+00  -5.9821777662640678e-73 -2.7508433451937080e-73 0.0000000000000000e+00  -3.9236925991317598e-74 7.4229158024875541e-75 0.0000000000000000e+00  -3.1566270951861136e-74 -1.4789385766991328e-74 0.0000000000000000e+00  -6.5907402854125582e-75 -3.3569824395035295e-75 0.0000000000000000e+00  -7.1799295563401188e-76 -3.1071266853690625e-76 0.0000000000000000e+00  -8.5518236263093932e-76 -1.6228560680993440e-75 0.0000000000000000e+00  -4.7734827851632437e-75 -1.3945982117343023e-74 0.0000000000000000e+00  4.3668130187748328e-75 -8.3086109768590249e-75 0.0000000000000000e+00  -1.6293368641223461e-73 -3.4272972747477357e-73 0.0000000000000000e+00  -9.2848806314671932e-71 -1.0070088693435776e-70 0.0000000000000000e+00  -7.5060248133284655e-70 -1.3177665444972780e-69 0.0000000000000000e+00  -1.0983714485843766e-69 -3.6513195577122841e-69 0.0000000000000000e+00  -7.7605045066238788e-68 -1.7114716615952296e-67 0.0000000000000000e+00  -6.5305363750378251e-68 -3.2600038061035191e-67 0.0000000000000000e+00  -6.7892781483266820e-66 -1.3501209658359361e-65 0.0000000000000000e+00  -4.5194213077195244e-66 -2.1316727604631113e-65 0.0000000000000000e+00  -9.0687185153646338e-65 -1.5576409159723455e-64 0.0000000000000000e+00  1.7218125616574655e-65 -2.1035488982388575e-64 0.0000000000000000e+00  -4.2753062674653282e-62 -6.4028170304457632e-62 0.0000000000000000e+00  -6.9979915627355429e-62 -1.7207636849387708e-61 0.0000000000000000e+00  -2.3258061480901958e-62 -2.7286526517869888e-61 0.0000000000000000e+00  -5.7398590956294704e-60 -1.1362981014550458e-59 0.0000000000000000e+00  4.7676221113466354e-60 -1.5020064116612921e-59 0.0000000000000000e+00  -2.9008304672221782e-59 -4.7490700155614856e-59 0.0000000000000000e+00  8.8212712155534636e-60 -6.0860846118517620e-59 0.0000000000000000e+00  2.3255245917808040e-59 -3.9718440528266393e-59 0.0000000000000000e+00  -5.6382057840438413e-58 -8.9476524649277511e-58 0.0000000000000000e+00  -1.3803564952369172e-59 -1.2602387920891855e-57 0.0000000000000000e+00  -4.6342472293304134e-57 -1.1637751483889814e-56 0.0000000000000000e+00  5.7502550057046531e-57 -8.6742304436731152e-57 0.0000000000000000e+00  -5.3347567756183944e-57 -7.3381021353135431e-57 0.0000000000000000e+00  -1.7674834607706111e-56 -3.7734031392638215e-56 0.0000000000000000e+00  2.1623550214475373e-56 -4.0712033668855146e-56 0.0000000000000000e+00  -5.0039048421314522e-57 -9.2006474626328859e-57 0.0000000000000000e+00  -8.1206593115081773e-56 -2.0310145762415239e-55 0.0000000000000000e+00  6.3761392880111993e-56 -5.0769690396188638e-55 0.0000000000000000e+00  -4.2913739253632040e-55 -7.2578738391191561e-55 0.0000000000000000e+00  -4.8817090088767075e-56 -1.8357425422983814e-54 0.0000000000000000e+00  1.6610821040782272e-55 -5.7397685366799935e-55 0.0000000000000000e+00  -5.1848949686270461e-55 -1.6759663460547893e-54 0.0000000000000000e+00  -2.2548970382610570e-54 -7.0717956657788905e-54 0.0000000000000000e+00  2.5838031067248479e-54 -6.0766419270632863e-54 0.0000000000000000e+00  -6.7243441737281991e-55 -2.3897349856653422e-54 0.0000000000000000e+00  5.3285981849093347e-55 -2.8190737648347250e-54 0.0000000000000000e+00  1.2832170707278410e-55 -1.4247903793114341e-54 0.0000000000000000e+00  -2.1817797835559704e-54 -3.4667549121373411e-54 0.0000000000000000e+00  5.7166979361335725e-55 -8.2270103534250645e-54 0.0000000000000000e+00  -3.9333836107570137e-54 -1.3557946094478684e-53 0.0000000000000000e+00  4.6958900188724866e-54 -7.7144537581808487e-54 0.0000000000000000e+00  2.0332740486076623e-55 -6.5059870827130970e-55 0.0000000000000000e+00  -4.8050546470385044e-54 -8.0090446839607460e-54 0.0000000000000000e+00  4.8309459191718972e-54 -7.8695594026172244e-54 0.0000000000000000e+00  -1.6633057966787591e-56 -1.3349913949434671e-55 0.0000000000000000e+00  1.1163058754902899e-56 -2.7680435865353505e-55 0.0000000000000000e+00  2.2088004347326652e-56 -9.8796601416349286e-56 0.0000000000000000e+00  -5.2090889636583244e-54 -9.3537093313364548e-54 0.0000000000000000e+00  5.5559487945189013e-54 -9.4079024596577750e-54 0.0000000000000000e+00  5.6802728717582070e-56 -1.0518814712263549e-55 0.0000000000000000e+00  -1.4343116521467200e-56 -6.2047286243126793e-56 0.0000000000000000e+00  -5.0040481896425647e-55 -9.0463691819044603e-55 0.0000000000000000e+00  -5.8202910620032921e-54 -1.0045684866195540e-53 0.0000000000000000e+00  4.5080217070760406e-54 -1.0491958364752528e-53 0.0000000000000000e+00  -3.0554188733691217e-54 -7.9852347982258545e-54 0.0000000000000000e+00  2.4412245907856081e-54 -8.5499796426743023e-54 0.0000000000000000e+00  2.2485609568497624e-54 -3.3063260854143414e-54 0.0000000000000000e+00  -5.4421233085665178e-55 -1.4798195501390642e-54 0.0000000000000000e+00  8.3645252658475721e-55 -1.5738966284721505e-54 0.0000000000000000e+00  -4.9280466289334874e-55 -9.8321293472788075e-55 0.0000000000000000e+00  5.1295109578774172e-55 -8.8553455546522492e-55 0.0000000000000000e+00  -1.5679693457787790e-56 -2.6919576607342979e-56 0.0000000000000000e+00  -4.4806265744430254e-56 -1.7217975371074100e-55 0.0000000000000000e+00  4.1756438096402360e-56 -1.7468119739215766e-55 0.0000000000000000e+00  4.8054283111578909e-57 -6.9030605923880919e-56 0.0000000000000000e+00  -2.7505484418531782e-56 -6.5425684317766555e-56 0.0000000000000000e+00  3.2900727118390854e-56 -6.4138333506673100e-56 0.0000000000000000e+00  -2.8604048887161032e-57 -2.8733411527136043e-56 0.0000000000000000e+00  1.2967012235903268e-56 -3.0020780280493886e-56 0.0000000000000000e+00  1.0029120011334677e-57 -2.3990949463933790e-57 0.0000000000000000e+00  -4.3846668546157134e-57 -7.6390278799856491e-57 0.0000000000000000e+00  4.2515668980467587e-57 -1.1006962268800481e-56 0.0000000000000000e+00  3.1257670752926493e-58 -1.0213008153273273e-57 0.0000000000000000e+00  1.4384658630967165e-58 -5.0261