<?xml version="1.0"?>
<VTKFile type="UnstructuredGrid"  version="0.1"  >
<UnstructuredGrid>
<Piece  NumberOfPoints="11902" NumberOfCells="23402">
<Points>
<DataArray  type="Float64"  NumberOfComponents="3"  format="ascii">-5 -5 0  5 -5 0  5 5 0  -5 5 0  1.263696848098453 0.00127575358935317 0  -4.9 -5 0  -4.8 -5 0  -4.7 -5 0  -4.6 -5 0  -4.5 -5 0  -4.4 -5 0  -4.3 -5 0  -4.2 -5 0  -4.1 -5 0  -4 -5 0  -3.9 -5 0  -3.8 -5 0  -3.7 -5 0  -3.6 -5 0  -3.5 -5 0  -3.4 -5 0  -3.3 -5 0  -3.2 -5 0  -3.1 -5 0  -3 -5 0  -2.9 -5 0  -2.8 -5 0  -2.7 -5 0  -2.6 -5 0  -2.5 -5 0  -2.4 -5 0  -2.3 -5 0  -2.2 -5 0  -2.1 -5 0  -2 -5 0  -1.9 -5 0  -1.8 -5 0  -1.7 -5 0  -1.6 -5 0  -1.5 -5 0  -1.4 -5 0  -1.3 -5 0  -1.2 -5 0  -1.1 -5 0  -1 -5 0  -0.9000000000000004 -5 0  -0.7999999999999998 -5 0  -0.7000000000000002 -5 0  -0.5999999999999996 -5 0  -0.5 -5 0  -0.4000000000000004 -5 0  -0.2999999999999998 -5 0  -0.2000000000000002 -5 0  -0.09999999999999964 -5 0  0 -5 0  0.09999999999999964 -5 0  0.2000000000000002 -5 0  0.2999999999999998 -5 0  0.4000000000000004 -5 0  0.5 -5 0  0.5999999999999996 -5 0  0.7000000000000002 -5 0  0.7999999999999998 -5 0  0.9000000000000004 -5 0  1 -5 0  1.1 -5 0  1.2 -5 0  1.3 -5 0  1.4 -5 0  1.5 -5 0  1.6 -5 0  1.7 -5 0  1.8 -5 0  1.9 -5 0  2 -5 0  2.1 -5 0  2.2 -5 0  2.3 -5 0  2.4 -5 0  2.5 -5 0  2.6 -5 0  2.7 -5 0  2.8 -5 0  2.9 -5 0  3 -5 0  3.1 -5 0  3.199999999999999 -5 0  3.300000000000001 -5 0  3.4 -5 0  3.5 -5 0  3.6 -5 0  3.699999999999999 -5 0  3.800000000000001 -5 0  3.9 -5 0  4 -5 0  4.1 -5 0  4.199999999999999 -5 0  4.300000000000001 -5 0  4.4 -5 0  4.5 -5 0  4.6 -5 0  4.699999999999999 -5 0  4.800000000000001 -5 0  4.9 -5 0  5 -4.9 0  5 -4.8 0  5 -4.7 0  5 -4.6 0  5 -4.5 0  5 -4.4 0  5 -4.3 0  5 -4.2 0  5 -4.1 0  5 -4 0  5 -3.9 0  5 -3.8 0  5 -3.7 0  5 -3.6 0  5 -3.5 0  5 -3.4 0  5 -3.3 0  5 -3.2 0  5 -3.1 0  5 -3 0  5 -2.9 0  5 -2.8 0  5 -2.7 0  5 -2.6 0  5 -2.5 0  5 -2.4 0  5 -2.3 0  5 -2.2 0  5 -2.1 0  5 -2 0  5 -1.9 0  5 -1.8 0  5 -1.7 0  5 -1.6 0  5 -1.5 0  5 -1.4 0  5 -1.3 0  5 -1.2 0  5 -1.1 0  5 -1 0  5 -0.9000000000000004 0  5 -0.7999999999999998 0  5 -0.7000000000000002 0  5 -0.5999999999999996 0  5 -0.5 0  5 -0.4000000000000004 0  5 -0.2999999999999998 0  5 -0.2000000000000002 0  5 -0.09999999999999964 0  5 0 0  5 0.09999999999999964 0  5 0.2000000000000002 0  5 0.2999999999999998 0  5 0.4000000000000004 0  5 0.5 0  5 0.5999999999999996 0  5 0.7000000000000002 0  5 0.7999999999999998 0  5 0.9000000000000004 0  5 1 0  5 1.1 0  5 1.2 0  5 1.3 0  5 1.4 0  5 1.5 0  5 1.6 0  5 1.7 0  5 1.8 0  5 1.9 0  5 2 0  5 2.1 0  5 2.2 0  5 2.3 0  5 2.4 0  5 2.5 0  5 2.6 0  5 2.7 0  5 2.8 0  5 2.9 0  5 3 0  5 3.1 0  5 3.199999999999999 0  5 3.300000000000001 0  5 3.4 0  5 3.5 0  5 3.6 0  5 3.699999999999999 0  5 3.800000000000001 0  5 3.9 0  5 4 0  5 4.1 0  5 4.199999999999999 0  5 4.300000000000001 0  5 4.4 0  5 4.5 0  5 4.6 0  5 4.699999999999999 0  5 4.800000000000001 0  5 4.9 0  4.9 5 0  4.8 5 0  4.7 5 0  4.6 5 0  4.5 5 0  4.4 5 0  4.3 5 0  4.2 5 0  4.1 5 0  4 5 0  3.9 5 0  3.8 5 0  3.7 5 0  3.6 5 0  3.5 5 0  3.4 5 0  3.3 5 0  3.2 5 0  3.1 5 0  3 5 0  2.9 5 0  2.8 5 0  2.7 5 0  2.6 5 0  2.5 5 0  2.4 5 0  2.3 5 0  2.2 5 0  2.1 5 0  2 5 0  1.9 5 0  1.8 5 0  1.7 5 0  1.6 5 0  1.5 5 0  1.4 5 0  1.3 5 0  1.2 5 0  1.1 5 0  1 5 0  0.9000000000000004 5 0  0.7999999999999998 5 0  0.7000000000000002 5 0  0.5999999999999996 5 0  0.5 5 0  0.4000000000000004 5 0  0.2999999999999998 5 0  0.2000000000000002 5 0  0.09999999999999964 5 0  0 5 0  -0.09999999999999964 5 0  -0.2000000000000002 5 0  -0.2999999999999998 5 0  -0.4000000000000004 5 0  -0.5 5 0  -0.5999999999999996 5 0  -0.7000000000000002 5 0  -0.7999999999999998 5 0  -0.9000000000000004 5 0  -1 5 0  -1.1 5 0  -1.2 5 0  -1.3 5 0  -1.4 5 0  -1.5 5 0  -1.6 5 0  -1.7 5 0  -1.8 5 0  -1.9 5 0  -2 5 0  -2.1 5 0  -2.2 5 0  -2.3 5 0  -2.4 5 0  -2.5 5 0  -2.6 5 0  -2.7 5 0  -2.8 5 0  -2.9 5 0  -3 5 0  -3.1 5 0  -3.199999999999999 5 0  -3.300000000000001 5 0  -3.4 5 0  -3.5 5 0  -3.6 5 0  -3.699999999999999 5 0  -3.800000000000001 5 0  -3.9 5 0  -4 5 0  -4.1 5 0  -4.199999999999999 5 0  -4.300000000000001 5 0  -4.4 5 0  -4.5 5 0  -4.6 5 0  -4.699999999999999 5 0  -4.800000000000001 5 0  -4.9 5 0  -5 4.9 0  -5 4.8 0  -5 4.7 0  -5 4.6 0  -5 4.5 0  -5 4.4 0  -5 4.3 0  -5 4.2 0  -5 4.1 0  -5 4 0  -5 3.9 0  -5 3.8 0  -5 3.7 0  -5 3.6 0  -5 3.5 0  -5 3.4 0  -5 3.3 0  -5 3.2 0  -5 3.1 0  -5 3 0  -5 2.9 0  -5 2.8 0  -5 2.7 0  -5 2.6 0  -5 2.5 0  -5 2.4 0  -5 2.3 0  -5 2.2 0  -5 2.1 0  -5 2 0  -5 1.9 0  -5 1.8 0  -5 1.7 0  -5 1.6 0  -5 1.5 0  -5 1.4 0  -5 1.3 0  -5 1.2 0  -5 1.1 0  -5 1 0  -5 0.9000000000000004 0  -5 0.7999999999999998 0  -5 0.7000000000000002 0  -5 0.5999999999999996 0  -5 0.5 0  -5 0.4000000000000004 0  -5 0.2999999999999998 0  -5 0.2000000000000002 0  -5 0.09999999999999964 0  -5 0 0  -5 -0.09999999999999964 0  -5 -0.2000000000000002 0  -5 -0.2999999999999998 0  -5 -0.4000000000000004 0  -5 -0.5 0  -5 -0.5999999999999996 0  -5 -0.7000000000000002 0  -5 -0.7999999999999998 0  -5 -0.9000000000000004 0  -5 -1 0  -5 -1.1 0  -5 -1.2 0  -5 -1.3 0  -5 -1.4 0  -5 -1.5 0  -5 -1.6 0  -5 -1.7 0  -5 -1.8 0  -5 -1.9 0  -5 -2 0  -5 -2.1 0  -5 -2.2 0  -5 -2.3 0  -5 -2.4 0  -5 -2.5 0  -5 -2.6 0  -5 -2.7 0  -5 -2.8 0  -5 -2.9 0  -5 -3 0  -5 -3.1 0  -5 -3.199999999999999 0  -5 -3.300000000000001 0  -5 -3.4 0  -5 -3.5 0  -5 -3.6 0  -5 -3.699999999999999 0  -5 -3.800000000000001 0  -5 -3.9 0  -5 -4 0  -5 -4.1 0  -5 -4.199999999999999 0  -5 -4.300000000000001 0  -5 -4.4 0  -5 -4.5 0  -5 -4.6 0  -5 -4.699999999999999 0  -5 -4.800000000000001 0  -5 -4.9 0  1.255524473368296 0.09361409537688527 0  1.233420762263701 0.1914277727892669 0  1.199771313947547 0.288075976315698 0  1.157011469461089 0.3764306392342485 0  1.098514883455111 0.4674828262501047 0  1.032150013848489 0.5511769141499215 0  0.9535030619403644 0.6315455207278209 0  0.8662441414608623 0.7064780665750459 0  0.7744022656453166 0.7718022764440403 0  0.6722770334709464 0.8292304620857893 0  0.5592426678292614 0.881467004162947 0  0.4459947999268852 0.9263563022097079 0  0.3346983214347793 0.9581159992581422 0  0.2087812927905093 0.9802435404895571 0  0.08802623228961397 0.9989853728007801 0  -0.02652403868688939 1.002446743994817 0  -0.1441904426666196 0.9886848127158803 0  -0.2733922355662833 0.969081610831326 0  -0.3932817405011695 0.9449559767075677 0  -0.5031613481721838 0.9095417686581246 0  -0.6128223971443232 0.863088011904943 0  -0.7148563305957031 0.8081024245890384 0  -0.8094337053170195 0.7434449151467257 0  -0.9009810889860405 0.6696433342525469 0  -0.9874059943729827 0.5894324597726819 0  -1.06229763783788 0.5079457701270176 0  -1.124349822680555 0.4233107523248362 0  -1.179006038400034 0.3299989585871071 0  -1.216589028640769 0.2425463692903982 0  -1.240997221679067 0.1486587172431864 0  -1.251450454080737 0.05234679855980595 0  -1.25140890657307 -0.05005103362878879 0  -1.240932536216719 -0.1456399584326568 0  -1.216204064719714 -0.236909116972214 0  -1.174153397678107 -0.3319856196066462 0  -1.124656686484038 -0.4242326799955941 0  -1.064278406350255 -0.5078389311149978 0  -0.9899376386699844 -0.588449959652607 0  -0.9041317182727034 -0.6676094026672523 0  -0.8133646387867429 -0.7391510377792336 0  -0.7178440738023224 -0.7999386349650756 0  -0.6131157120980291 -0.8532071028066593 0  -0.4977725146360324 -0.9029012877767159 0  -0.3851864347041155 -0.9428333259361373 0  -0.2700572487341354 -0.9689134120891648 0  -0.1425224573485432 -0.9886905669085571 0  -0.02761171605377494 -1.001688388782983 0  0.08672478089946507 -0.994281059765317 0  0.2150668112227189 -0.9763394717427466 0  0.3375469421680286 -0.9563698625578132 0  0.4501850790616352 -0.9250344784554743 0  0.5618862092027159 -0.8807035693028067 0  0.673481216279993 -0.8291289431659244 0  0.7742578272534684 -0.7729653580550514 0  0.8657895710567847 -0.7078966675259473 0  0.9517200823225738 -0.6320550415640972 0  1.029664948179715 -0.5499030218445851 0  1.099900021837536 -0.4660287442529515 0  1.157826584748596 -0.3768246824042942 0  1.201555306045126 -0.2861471667811311 0  1.234145431207075 -0.1907131318168288 0  1.255936168258691 -0.09360229552624028 0  -2.44852935404984 4.918056886569347 0  -2.448400448623057 -4.910429858689277 0  4.910352075665504 2.447848132791082 0  4.918484838248914 -2.449314081027239 0  2.446124576751171 -4.895650316041665 0  2.440559301505834 4.899415374777356 0  -4.910379400859177 -2.447875030099588 0  -4.910376688451591 2.447879135818175 0  -1.748482145614381 4.910919064837242 0  -1.744269948584026 -4.914363764474108 0  4.920510654690073 1.744027375657503 0  4.909026992143614 -1.747782529292671 0  -4.909321948675673 -1.747517267859657 0  -4.910145419287006 1.747262860601834 0  1.745752508191744 4.904768205443426 0  1.747161400626568 -4.892900062653341 0  -1.148799849914364 4.908681771260118 0  -1.129660144462346 -4.916608811117699 0  -4.909007318368251 -1.147854368547191 0  -4.908825273528014 1.147655062612161 0  1.143796954793149 -4.912787203506292 0  1.148809581807634 4.908667981364032 0  4.909146428649677 1.146129212331821 0  4.920000430132373 -1.151920041965726 0  -0.5466469145500775 -4.909859556616715 0  -0.5464320647151604 4.918560070512497 0  -4.907713940944614 -0.5486676221017026 0  -4.907737913099185 0.5472258772270834 0  4.907030340643475 -0.548985625525924 0  4.918715407389352 0.5457480325881368 0  0.5424272866248613 -4.896712137333677 0  0.5511596976258401 4.915376601157449 0  -4.911830545543594 -3.048241293671744 0  4.918405889721949 3.046260832572183 0  4.911337841602799 -3.048216331047826 0  -4.912678809146388 3.045333435607042 0  3.055259154040093 -4.917327565306284 0  -3.048586747675607 -4.911259157788524 0  3.052155024766079 4.913338118265569 0  -3.048032825822226 4.912149611939268 0  -4.906812352799968 -0.04990358245645839 0  0.04511849991290535 -4.911808292792999 0  0.04956558830578623 4.918849185206503 0  4.913883997453223 -0.0512862458879079 0  3.545586469463516 -4.918988342932569 0  -3.5488641044
[...]
<PointData  Vectors="f_5886"> 
<DataArray  type="Float64"  Name="f_5886"  NumberOfComponents="3" format="ascii">2.6559658580600303e-76 2.6559658580600303e-76 0.0000000000000000e+00  -2.8445085011138821e-76 2.8445085011138821e-76 0.0000000000000000e+00  -8.5659604779174239e-78 -8.5659604779174239e-78 0.0000000000000000e+00  3.0308186857311735e-76 -3.0308186857311735e-76 0.0000000000000000e+00  7.8783947665652265e-01 8.4058993356925099e-03 0.0000000000000000e+00  4.1660216466682460e-75 6.6061511501453396e-75 0.0000000000000000e+00  2.0822932491350825e-75 2.0880050269974359e-74 0.0000000000000000e+00  -3.4061401874302879e-75 6.7718164486652540e-75 0.0000000000000000e+00  4.0006526679135317e-72 6.6676714354336237e-72 0.0000000000000000e+00  5.3176662037772074e-71 1.3457579961127644e-70 0.0000000000000000e+00  -7.9216331067482690e-72 4.5553812453919310e-71 0.0000000000000000e+00  3.2351187532313616e-69 6.1617243765699398e-69 0.0000000000000000e+00  5.1629012012967187e-68 9.3977081950335504e-68 0.0000000000000000e+00  -3.0659527490349740e-68 1.5001466337566354e-67 0.0000000000000000e+00  1.2772217966953286e-67 3.9813762974523740e-67 0.0000000000000000e+00  1.2626440451345092e-68 8.7791047532226587e-67 0.0000000000000000e+00  5.4541619706355798e-64 8.8213684132783216e-64 0.0000000000000000e+00  4.7433571763206996e-65 2.4418686607975439e-63 0.0000000000000000e+00  1.3498917592438552e-62 2.1985415060890735e-62 0.0000000000000000e+00  8.0696655218782665e-63 8.3178801515602981e-62 0.0000000000000000e+00  6.9355579818592734e-61 1.1020363202182688e-60 0.0000000000000000e+00  4.0649487537037474e-60 7.0051254933324097e-60 0.0000000000000000e+00  -2.8489470377280013e-60 7.7001519743050460e-60 0.0000000000000000e+00  5.6661192785369826e-59 1.1365752555298130e-58 0.0000000000000000e+00  -1.7601358935554904e-59 1.1647130974941708e-58 0.0000000000000000e+00  -3.0056183986293438e-59 6.8396966201363930e-59 0.0000000000000000e+00  1.8036322125921790e-58 3.3034972155377391e-58 0.0000000000000000e+00  7.3042238654321649e-58 2.0891316590588633e-57 0.0000000000000000e+00  2.8628591641865242e-57 6.2317056388808250e-57 0.0000000000000000e+00  -3.4100959991956308e-57 5.7395030790420153e-57 0.0000000000000000e+00  -3.5254394241488680e-58 1.0979439527678326e-57 0.0000000000000000e+00  1.9102357832497043e-56 2.9311574246874797e-56 0.0000000000000000e+00  -1.4148388097827809e-56 3.5314877037320874e-56 0.0000000000000000e+00  1.1924274154881989e-56 2.8929141009165571e-56 0.0000000000000000e+00  8.7457735351056407e-56 2.0971749107663243e-55 0.0000000000000000e+00  -2.5143721533106606e-56 5.7434934679012386e-55 0.0000000000000000e+00  5.2155289774022660e-57 8.6101928423299623e-57 0.0000000000000000e+00  5.5502292246567277e-56 1.3814434336091031e-55 0.0000000000000000e+00  1.5504936592248918e-55 6.1688032941379968e-55 0.0000000000000000e+00  -2.2387502902628313e-55 3.5172898083261706e-55 0.0000000000000000e+00  9.8471397516261079e-55 1.7224906047526768e-54 0.0000000000000000e+00  -4.4261880470144557e-55 4.3615968628696827e-54 0.0000000000000000e+00  -2.2856728550506396e-55 2.6820715668720143e-54 0.0000000000000000e+00  -9.6304452746918684e-56 9.4399530811257469e-55 0.0000000000000000e+00  -1.1325089773258558e-55 1.8225374209147707e-55 0.0000000000000000e+00  2.7633964479915360e-54 5.2323453730148467e-54 0.0000000000000000e+00  -2.1626881937271151e-54 4.1397167798061070e-54 0.0000000000000000e+00  -7.2016272701498996e-55 8.0828995884719728e-55 0.0000000000000000e+00  -1.3222637226866936e-55 2.7134550658179898e-55 0.0000000000000000e+00  9.3157833806391976e-55 1.4449084426254354e-54 0.0000000000000000e+00  9.4677272558664658e-55 6.1541460625470206e-54 0.0000000000000000e+00  -1.1301212864883014e-54 5.8988585118571971e-54 0.0000000000000000e+00  5.1541008113621182e-55 4.6478989938902828e-54 0.0000000000000000e+00  1.9103075763128285e-56 5.7928253481712273e-54 0.0000000000000000e+00  3.0217807571915523e-55 6.1509799789219762e-54 0.0000000000000000e+00  -1.2634251577501557e-54 2.0440895594670214e-54 0.0000000000000000e+00  -6.4639884509804665e-55 1.4722683546040502e-53 0.0000000000000000e+00  4.4701083583627561e-54 7.4697320937638557e-54 0.0000000000000000e+00  -4.3534572145476130e-54 8.0950102571224182e-54 0.0000000000000000e+00  1.9246425508009690e-54 3.9573232181249490e-54 0.0000000000000000e+00  -7.3713608742669009e-55 9.4982994134496203e-54 0.0000000000000000e+00  1.3331560469472590e-54 9.3290574711864916e-54 0.0000000000000000e+00  -1.6873250224725984e-54 4.3957600702967816e-54 0.0000000000000000e+00  -9.2635136496014456e-55 2.4042925733730750e-54 0.0000000000000000e+00  3.3364591781664525e-55 1.2997537540162789e-54 0.0000000000000000e+00  2.6612596119739511e-55 2.5377064707445916e-54 0.0000000000000000e+00  -7.8363760299176235e-56 3.4897311339640984e-54 0.0000000000000000e+00  -7.1227255540387939e-55 1.4810367073067049e-54 0.0000000000000000e+00  2.3812139315828083e-55 4.4276435303193647e-55 0.0000000000000000e+00  -2.3127702713927774e-55 6.0216824252346402e-55 0.0000000000000000e+00  5.0407145922743165e-56 2.3983887928425841e-55 0.0000000000000000e+00  1.8690679730899571e-55 9.5255416074030884e-55 0.0000000000000000e+00  -3.3077911534730503e-55 5.2989720010785970e-55 0.0000000000000000e+00  -1.5927151545775094e-56 4.8205708814164443e-56 0.0000000000000000e+00  -1.1360636418023082e-57 1.1331787679683290e-56 0.0000000000000000e+00  6.7618097928308566e-57 2.3557681283801844e-56 0.0000000000000000e+00  -9.0022414663612121e-57 1.5010852359691856e-56 0.0000000000000000e+00  1.7436308110381140e-57 2.8889077376654290e-57 0.0000000000000000e+00  -1.2454303263839893e-57 2.7229567117569238e-57 0.0000000000000000e+00  5.1809880895628871e-57 7.8146667707941426e-57 0.0000000000000000e+00  -4.5365324105564409e-57 1.1245712086562219e-56 0.0000000000000000e+00  -1.8150871131366486e-58 9.3929733695466082e-58 0.0000000000000000e+00  -2.3936924431769384e-58 4.6497941641110013e-58 0.0000000000000000e+00  -7.8823765812627871e-61 8.8102504365231868e-59 0.0000000000000000e+00  -2.4471141413287128e-59 6.4201808219090083e-59 0.0000000000000000e+00  -7.1186892679331515e-60 2.4990042245192647e-59 0.0000000000000000e+00  -4.3861122887976651e-60 2.2382441711827952e-59 0.0000000000000000e+00  -3.0636524131472809e-60 7.1652353639798809e-60 0.0000000000000000e+00  -8.5255612209213260e-62 4.4344243311448727e-61 0.0000000000000000e+00  -1.0760687646681702e-61 2.2331670037586090e-61 0.0000000000000000e+00  -3.5877485569162830e-62 5.6717213333066905e-62 0.0000000000000000e+00  -3.9103933916892684e-64 6.6951313305693376e-64 0.0000000000000000e+00  -2.4314220062190042e-65 5.1693251698022504e-65 0.0000000000000000e+00  3.7085823134866046e-66 1.0388938720275295e-65 0.0000000000000000e+00  -4.8425942111813624e-66 9.2593766499661588e-66 0.0000000000000000e+00  -6.7000938955010207e-68 2.7707921332333008e-67 0.0000000000000000e+00  -7.8538097784418837e-68 1.2914778614676575e-67 0.0000000000000000e+00  -8.0613048511632600e-69 1.1729553048581192e-68 0.0000000000000000e+00  -5.6336042067857442e-70 9.5188093171786235e-70 0.0000000000000000e+00  -3.7796100740663287e-71 6.8178345248277345e-71 0.0000000000000000e+00  -1.8785050674165038e-72 3.2023985872652285e-72 0.0000000000000000e+00  -1.2177752043323244e-73 2.7266235122706926e-73 0.0000000000000000e+00  -4.4212374499733649e-75 1.2911224388516068e-74 0.0000000000000000e+00  -2.5481477300239478e-75 4.2411193429037557e-75 0.0000000000000000e+00  -9.7687557838170378e-76 3.5584458096352526e-76 0.0000000000000000e+00  -1.6211556588282776e-75 -2.3927067219080590e-76 0.0000000000000000e+00  -2.4487893294611549e-74 1.1592000001525918e-74 0.0000000000000000e+00  -3.6791115346736154e-74 1.5506001349701788e-75 0.0000000000000000e+00  -3.8828009019753322e-73 1.4337113747235925e-73 0.0000000000000000e+00  -1.0235872593889553e-71 6.2399566331817716e-72 0.0000000000000000e+00  -6.7395367358379126e-71 3.7095694569349524e-71 0.0000000000000000e+00  -1.0610235745786533e-70 3.9047152068311079e-72 0.0000000000000000e+00  -8.8991256390549098e-70 3.3103846347360039e-70 0.0000000000000000e+00  -2.1279665328639055e-68 1.2871818645243311e-68 0.0000000000000000e+00  -1.0234452482931585e-67 5.1135549980533080e-68 0.0000000000000000e+00  -1.0139519577706820e-67 -6.0306845538466235e-68 0.0000000000000000e+00  -3.1646072810573525e-66 1.7474411493033119e-66 0.0000000000000000e+00  -3.1838827462490431e-65 1.8333574967826825e-65 0.0000000000000000e+00  -5.3855140718891077e-65 5.0508362562224125e-66 0.0000000000000000e+00  -4.4354900371007708e-64 1.4478777343796683e-64 0.0000000000000000e+00  -6.9893698301336963e-63 4.3637808427150543e-63 0.0000000000000000e+00  -1.5061112902147879e-62 3.7529427743984924e-63 0.0000000000000000e+00  -8.4316524102674279e-62 1.9687006532935238e-62 0.0000000000000000e+00  -1.3541033403644216e-60 8.5291843365483376e-61 0.0000000000000000e+00  -2.4165629263425261e-60 3.3866994196866497e-61 0.0000000000000000e+00  -2.1162269878846730e-59 7.4078426405508569e-60 0.0000000000000000e+00  -2.4154801354684479e-58 1.4967535731312878e-58 0.0000000000000000e+00  -2.5886075087663984e-58 -9.4327881002468180e-59 0.0000000000000000e+00  -5.9751246494977647e-57 2.7859554832470112e-57 0.0000000000000000e+00  -2.4821905001493111e-56 1.2411326346702262e-56 0.0000000000000000e+00  -5.5643432521526950e-56 -8.7012277210370782e-57 0.0000000000000000e+00  -1.0106076051686919e-54 6.4904863709199212e-55 0.0000000000000000e+00  -1.1209563030766762e-54 -3.4698399763519707e-55 0.0000000000000000e+00  -2.4066914643901874e-53 1.2714276724110703e-53 0.0000000000000000e+00  -6.5903015287775648e-53 2.9940927770950121e-53 0.0000000000000000e+00  -4.3553677926507238e-52 1.2263274255721428e-52 0.0000000000000000e+00  -2.6643593890434457e-51 1.6657865187289874e-51 0.0000000000000000e+00  -7.6659562113402628e-51 -2.1483900587697808e-52 0.0000000000000000e+00  -7.1931891575238487e-50 4.6044977468524794e-50 0.0000000000000000e+00  -1.6172878919371749e-49 -1.4806289572804652e-50 0.0000000000000000e+00  -1.7288737167437776e-48 1.0117036165618855e-48 0.0000000000000000e+00  -4.3412083495869587e-48 -2.0442605500820127e-49 0.0000000000000000e+00  -2.0131710981566562e-47 1.1115253778993193e-47 0.0000000000000000e+00  -1.1026452768509813e-46 1.8985234175090176e-47 0.0000000000000000e+00  -1.0246595389990713e-46 2.4639101171838675e-47 0.0000000000000000e+00  -1.2405220441453242e-45 5.2608919219819281e-46 0.0000000000000000e+00  -8.7386993113460085e-46 -5.6873531567504756e-46 0.0000000000000000e+00  -1.3428998289791924e-44 8.0824504570891371e-45 0.0000000000000000e+00  -5.7956485283982830e-44 1.3757344859386017e-44 0.0000000000000000e+00  -3.6154459447358369e-44 -1.7539152545290473e-44 0.0000000000000000e+00  -1.1425201593201053e-43 6.5099521846646997e-44 0.0000000000000000e+00  -8.4130178087236399e-43 2.3193477615109285e-43 0.0000000000000000e+00  -1.9291156691209349e-42 1.9782492598413317e-43 0.0000000000000000e+00  -2.5117043157365899e-42 6.1132435685436563e-44 0.0000000000000000e+00  -2.0144902382302847e-42 -1.9506888856170014e-43 0.0000000000000000e+00  -8.6136928293620225e-43 -2.5092319031272433e-43 0.0000000000000000e+00  -1.1324837378255980e-43 -6.4560792257898734e-44 0.0000000000000000e+00  -3.8714248250172479e-44 1.8529557323825404e-44 0.0000000000000000e+00  -6.3165330435362966e-44 -1.0836980848508863e-44 0.0000000000000000e+00  -1.4988670788138505e-44 -7.8780989941920430e-45 0.0000000000000000e+00  -9.9889856812907560e-46 5.6799454065849928e-46 0.0000000000000000e+00  -1.4038898721147190e-45 -5.3931942915560145e-46 0.0000000000000000e+00  -1.1207996552653833e-46 -2.8589872900093123e-47 0.0000000000000000e+00  -1.0181035183996351e-46 -2.1445593267851972e-47 0.0000000000000000e+00  -1.8608115030351217e-47 -1.1986073321797225e-47 0.0000000000000000e+00  -4.0856275889557234e-48 2.0356155387295248e-49 0.0000000000000000e+00  -1.4866519304892043e-48 -9.3678467264850188e-49 0.0000000000000000e+00  -1.6332162459165975e-49 2.4576872125407575e-50 0.0000000000000000e+00  -7.4571241376260428e-50 -4.4235907247594474e-50 0.0000000000000000e+00  -8.2463156234672105e-51 6.4128415550294446e-52 0.0000000000000000e+00  -3.1451984907179360e-51 -1.7844592619333240e-51 0.0000000000000000e+00  -5.1027044966385983e-52 -1.1470015021477129e-52 0.0000000000000000e+00  -8.2054333486457509e-53 -3.5483386335998006e-53 0.0000000000000000e+00  -2.6616684322514751e-53 -1.3160739330250783e-53 0.0000000000000000e+00  -1.1972480611006160e-54 3.2403696671549469e-55 0.0000000000000000e+00  -1.0635832181448713e-54 -6.8066933099097720e-55 0.0000000000000000e+00  -5.1525523149183749e-56 8.3531538298570215e-57 0.0000000000000000e+00  -2.3363442281300362e-56 -1.3240863192059984e-56 0.0000000000000000e+00  -4.8234170883023233e-57 -2.5216838005358484e-57 0.0000000000000000e+00  -2.4588484348462780e-58 8.5474330873908653e-59 0.0000000000000000e+00  -2.1580593064889857e-58 -1.3286923399130087e-58 0.0000000000000000e+00  -1.9909639429458706e-59 -6.1465791958893780e-60 0.0000000000000000e+00  -2.3748621676183228e-60 -3.3962082266638384e-61 0.0000000000000000e+00  -1.2907321643406458e-60 -7.6090065007761185e-61 0.0000000000000000e+00  -7.6904643856567494e-62 -2.1438487713543199e-62 0.0000000000000000e+00  -1.3593352857240886e-62 -2.9305689880496846e-63 0.0000000000000000e+00  -6.6386443890548595e-63 -3.7885753003829414e-63 0.0000000000000000e+00  -4.7828290426012895e-64 -1.8196953650281084e-64 0.0000000000000000e+00  -4.3638727846557085e-65 9.5811848279166498e-67 0.0000000000000000e+00  -2.9479361935258641e-65 -1.6621817267867730e-65 0.0000000000000000e+00  -3.4129884090777155e-66 -1.9888239549790773e-66 0.0000000000000000e+00  -8.9961121191557969e-68 5.4810718338526911e-68 0.0000000000000000e+00  -8.6361306600371530e-68 -4.1777774075284486e-68 0.0000000000000000e+00  -2.0680647925302153e-68 -1.2850473165368587e-68 0.0000000000000000e+00  -1.1326003147054123e-69 -5.1338224778424218e-70 0.0000000000000000e+00  -8.7945273976906853e-71 1.3790016153138116e-71 0.0000000000000000e+00  -6.9079335139187768e-71 -3.6573449687035691e-71 0.0000000000000000e+00  -1.2478626801486881e-71 -7.6625682293967175e-72 0.0000000000000000e+00  -5.9818239635529260e-73 -2.7511661070631843e-73 0.0000000000000000e+00  -3.9237843043913934e-74 7.4237526313171555e-75 0.0000000000000000e+00  -3.1565003305282621e-74 -1.4790535067662171e-74 0.0000000000000000e+00  -6.5905665496260019e-75 -3.3571393467865609e-75 0.0000000000000000e+00  -7.1798810871505208e-76 -3.1071703356717899e-76 0.0000000000000000e+00  -8.5520152615839957e-76 -1.6228388034999172e-75 0.0000000000000000e+00  -4.7736075763764227e-75 -1.3945869142109410e-74 0.0000000000000000e+00  4.3672548945404919e-75 -8.3090059253127482e-75 0.0000000000000000e+00  -1.6295081584711995e-73 -3.4271442477107840e-73 0.0000000000000000e+00  -9.2862344603707364e-71 -1.0068888028375748e-70 0.0000000000000000e+00  -7.5073732216889344e-70 -1.3176481135653826e-69 0.0000000000000000e+00  -1.0986026044848534e-69 -3.6511183934433977e-69 0.0000000000000000e+00  -7.7623369297540677e-68 -1.7113135555630279e-67 0.0000000000000000e+00  -6.5323355044114951e-68 -3.2598508634479965e-67 0.0000000000000000e+00  -6.7912478239648225e-66 -1.3499543277280887e-65 0.0000000000000000e+00  -4.5209839080570433e-66 -2.1315438904197055e-65 0.0000000000000000e+00  -9.0721012863632520e-65 -1.5573655267825492e-64 0.0000000000000000e+00  1.7225344527580380e-65 -2.1036062860293086e-64 0.0000000000000000e+00  -4.2771662923698507e-62 -6.4013498056894648e-62 0.0000000000000000e+00  -7.0014097355455387e-62 -1.7205022449978775e-61 0.0000000000000000e+00  -2.3270386255058879e-62 -2.7285606934982976e-61 0.0000000000000000e+00  -5.7429762545958997e-60 -1.1360671927635060e-59 0.0000000000000000e+00  4.7707668362903546e-60 -1.5022226604038164e-59 0.0000000000000000e+00  -2.9026743728664440e-59 -4.7477844689743248e-59 0.0000000000000000e+00  8.8273958283165211e-60 -6.0864945378356874e-59 0.0000000000000000e+00  2.3272828738699961e-59 -3.9729693369466784e-59 0.0000000000000000e+00  -5.6424725496195466e-58 -8.9449231161409548e-58 0.0000000000000000e+00  -1.3814879028548995e-59 -1.2602319007836800e-57 0.0000000000000000e+00  -4.6380434045472753e-57 -1.1635433978065178e-56 0.0000000000000000e+00  5.7555904061578114e-57 -8.6772010404580171e-57 0.0000000000000000e+00  -5.3397567411928761e-57 -7.3353410722380471e-57 0.0000000000000000e+00  -1.7692346200641576e-56 -3.7724826428867210e-56 0.0000000000000000e+00  2.1646478325802528e-56 -4.0723297256398662e-56 0.0000000000000000e+00  -5.0092567040859990e-57 -9.1980431510882604e-57 0.0000000000000000e+00  -8.1295537914300537e-56 -2.0305929359875770e-55 0.0000000000000000e+00  6.3848248206395229e-56 -5.0772723223061576e-55 0.0000000000000000e+00  -4.2965574929015752e-55 -7.2557184508810130e-55 0.0000000000000000e+00  -4.8848145313718318e-56 -1.8357095149942119e-54 0.0000000000000000e+00  1.6632497542920335e-55 -5.7405563468692680e-55 0.0000000000000000e+00  -5.1915091592076290e-55 -1.6757133160035861e-54 0.0000000000000000e+00  -2.2578943814906481e-54 -7.0707417753218263e-54 0.0000000000000000e+00  2.5875529700235834e-54 -6.0776777820886957e-54 0.0000000000000000e+00  -6.7337629342222121e-55 -2.3894428948104942e-54 0.0000000000000000e+00  5.3369251779335930e-55 -2.8192403364104970e-54 0.0000000000000000e+00  1.2853588729473088e-55 -1.4248168911633229e-54 0.0000000000000000e+00  -2.1851396189291445e-54 -3.4660455286633703e-54 0.0000000000000000e+00  5.7267051727833022e-55 -8.2270460858188594e-54 0.0000000000000000e+00  -3.9395325148527364e-54 -1.3556749118608594e-53 0.0000000000000000e+00  4.7035077909635112e-54 -7.7154503095536088e-54 0.0000000000000000e+00  2.0366382521040520e-55 -6.5062791142244061e-55 0.0000000000000000e+00  -4.8129502988892469e-54 -8.0082403731016746e-54 0.0000000000000000e+00  4.8389863326851706e-54 -7.8700392745795402e-54 0.0000000000000000e+00  -1.6660804826763579e-56 -1.3349783273638697e-55 0.0000000000000000e+00  1.1182080236952943e-56 -2.7680053866031199e-55 0.0000000000000000e+00  2.2124990685543150e-56 -9.8796582286075477e-56 0.0000000000000000e+00  -5.2178095267122987e-54 -9.3538155331689781e-54 0.0000000000000000e+00  5.5651953400905456e-54 -9.4073962674202117e-54 0.0000000000000000e+00  5.6896782144091985e-56 -1.0518119255109920e-55 0.0000000000000000e+00  -1.4367051893594899e-56 -6.2048573042542658e-56 0.0000000000000000e+00  -5.0122416700379615e-55 -9.0472329360670574e-55 0.0000000000000000e+00  -5.8297096136069459e-54 -1.0046915731502422e-53 0.0000000000000000e+00  4.5151864327387631e-54 -1.0490796256047221e-53 0.0000000000000000e+00  -3.0602156069737229e-54 -7.9861012035074390e-54 0.0000000000000000e+00  2.4449889538533896e-54 -8.5492088228853215e-54 0.0000000000000000e+00  2.2519536457311648e-54 -3.3055420403394863e-54 0.0000000000000000e+00  -5.4502295502128906e-55 -1.4800181429323861e-54 0.0000000000000000e+00  8.3764429926851252e-55 -1.5735521014520059e-54 0.0000000000000000e+00  -4.9351341359648791e-55 -9.8341175682167098e-55 0.0000000000000000e+00  5.1364496377373797e-55 -8.8530345366825122e-55 0.0000000000000000e+00  -1.5700779664710425e-56 -2.6926691414087718e-56 0.0000000000000000e+00  -4.4867343290415702e-56 -1.7219987966747924e-55 0.0000000000000000e+00  4.1805600405179521e-56 -1.7465991980583782e-55 0.0000000000000000e+00  4.8099859500484136e-57 -6.9027919123646603e-56 0.0000000000000000e+00  -2.7537783533647368e-56 -6.5439602618039814e-56 0.0000000000000000e+00  3.2937390364454129e-56 -6.4121390776834196e-56 0.0000000000000000e+00  -2.8634988500282882e-57 -2.8734893064073078e-56 0.0000000000000000e+00  1.2979901076027694e-56 -3.0014029264197688e-56 0.0000000000000000e+00  1.0038667098956879e-57 -2.3985751080628525e-57 0.0000000000000000e+00  -4.3888860921494413e-57 -7.6413011969377124e-57 0.0000000000000000e+00  4.2552086442519081e-57 -1.1004805809913743e-56 0.0000000000000000e+00  3.1284312247689272e-58 -1.0211428103939377e-57 0.0000000000000000e+00  1.4396271109887910e-58 -5.025442