<?xml version="1.0"?>
<VTKFile type="UnstructuredGrid"  version="0.1"  >
<UnstructuredGrid>
<Piece  NumberOfPoints="11902" NumberOfCells="23402">
<Points>
<DataArray  type="Float64"  NumberOfComponents="3"  format="ascii">-5 -5 0  5 -5 0  5 5 0  -5 5 0  1.265520999060144 0.001280979602026407 0  -4.9 -5 0  -4.8 -5 0  -4.7 -5 0  -4.6 -5 0  -4.5 -5 0  -4.4 -5 0  -4.3 -5 0  -4.2 -5 0  -4.1 -5 0  -4 -5 0  -3.9 -5 0  -3.8 -5 0  -3.7 -5 0  -3.6 -5 0  -3.5 -5 0  -3.4 -5 0  -3.3 -5 0  -3.2 -5 0  -3.1 -5 0  -3 -5 0  -2.9 -5 0  -2.8 -5 0  -2.7 -5 0  -2.6 -5 0  -2.5 -5 0  -2.4 -5 0  -2.3 -5 0  -2.2 -5 0  -2.1 -5 0  -2 -5 0  -1.9 -5 0  -1.8 -5 0  -1.7 -5 0  -1.6 -5 0  -1.5 -5 0  -1.4 -5 0  -1.3 -5 0  -1.2 -5 0  -1.1 -5 0  -1 -5 0  -0.9000000000000004 -5 0  -0.7999999999999998 -5 0  -0.7000000000000002 -5 0  -0.5999999999999996 -5 0  -0.5 -5 0  -0.4000000000000004 -5 0  -0.2999999999999998 -5 0  -0.2000000000000002 -5 0  -0.09999999999999964 -5 0  0 -5 0  0.09999999999999964 -5 0  0.2000000000000002 -5 0  0.2999999999999998 -5 0  0.4000000000000004 -5 0  0.5 -5 0  0.5999999999999996 -5 0  0.7000000000000002 -5 0  0.7999999999999998 -5 0  0.9000000000000004 -5 0  1 -5 0  1.1 -5 0  1.2 -5 0  1.3 -5 0  1.4 -5 0  1.5 -5 0  1.6 -5 0  1.7 -5 0  1.8 -5 0  1.9 -5 0  2 -5 0  2.1 -5 0  2.2 -5 0  2.3 -5 0  2.4 -5 0  2.5 -5 0  2.6 -5 0  2.7 -5 0  2.8 -5 0  2.9 -5 0  3 -5 0  3.1 -5 0  3.199999999999999 -5 0  3.300000000000001 -5 0  3.4 -5 0  3.5 -5 0  3.6 -5 0  3.699999999999999 -5 0  3.800000000000001 -5 0  3.9 -5 0  4 -5 0  4.1 -5 0  4.199999999999999 -5 0  4.300000000000001 -5 0  4.4 -5 0  4.5 -5 0  4.6 -5 0  4.699999999999999 -5 0  4.800000000000001 -5 0  4.9 -5 0  5 -4.9 0  5 -4.8 0  5 -4.7 0  5 -4.6 0  5 -4.5 0  5 -4.4 0  5 -4.3 0  5 -4.2 0  5 -4.1 0  5 -4 0  5 -3.9 0  5 -3.8 0  5 -3.7 0  5 -3.6 0  5 -3.5 0  5 -3.4 0  5 -3.3 0  5 -3.2 0  5 -3.1 0  5 -3 0  5 -2.9 0  5 -2.8 0  5 -2.7 0  5 -2.6 0  5 -2.5 0  5 -2.4 0  5 -2.3 0  5 -2.2 0  5 -2.1 0  5 -2 0  5 -1.9 0  5 -1.8 0  5 -1.7 0  5 -1.6 0  5 -1.5 0  5 -1.4 0  5 -1.3 0  5 -1.2 0  5 -1.1 0  5 -1 0  5 -0.9000000000000004 0  5 -0.7999999999999998 0  5 -0.7000000000000002 0  5 -0.5999999999999996 0  5 -0.5 0  5 -0.4000000000000004 0  5 -0.2999999999999998 0  5 -0.2000000000000002 0  5 -0.09999999999999964 0  5 0 0  5 0.09999999999999964 0  5 0.2000000000000002 0  5 0.2999999999999998 0  5 0.4000000000000004 0  5 0.5 0  5 0.5999999999999996 0  5 0.7000000000000002 0  5 0.7999999999999998 0  5 0.9000000000000004 0  5 1 0  5 1.1 0  5 1.2 0  5 1.3 0  5 1.4 0  5 1.5 0  5 1.6 0  5 1.7 0  5 1.8 0  5 1.9 0  5 2 0  5 2.1 0  5 2.2 0  5 2.3 0  5 2.4 0  5 2.5 0  5 2.6 0  5 2.7 0  5 2.8 0  5 2.9 0  5 3 0  5 3.1 0  5 3.199999999999999 0  5 3.300000000000001 0  5 3.4 0  5 3.5 0  5 3.6 0  5 3.699999999999999 0  5 3.800000000000001 0  5 3.9 0  5 4 0  5 4.1 0  5 4.199999999999999 0  5 4.300000000000001 0  5 4.4 0  5 4.5 0  5 4.6 0  5 4.699999999999999 0  5 4.800000000000001 0  5 4.9 0  4.9 5 0  4.8 5 0  4.7 5 0  4.6 5 0  4.5 5 0  4.4 5 0  4.3 5 0  4.2 5 0  4.1 5 0  4 5 0  3.9 5 0  3.8 5 0  3.7 5 0  3.6 5 0  3.5 5 0  3.4 5 0  3.3 5 0  3.2 5 0  3.1 5 0  3 5 0  2.9 5 0  2.8 5 0  2.7 5 0  2.6 5 0  2.5 5 0  2.4 5 0  2.3 5 0  2.2 5 0  2.1 5 0  2 5 0  1.9 5 0  1.8 5 0  1.7 5 0  1.6 5 0  1.5 5 0  1.4 5 0  1.3 5 0  1.2 5 0  1.1 5 0  1 5 0  0.9000000000000004 5 0  0.7999999999999998 5 0  0.7000000000000002 5 0  0.5999999999999996 5 0  0.5 5 0  0.4000000000000004 5 0  0.2999999999999998 5 0  0.2000000000000002 5 0  0.09999999999999964 5 0  0 5 0  -0.09999999999999964 5 0  -0.2000000000000002 5 0  -0.2999999999999998 5 0  -0.4000000000000004 5 0  -0.5 5 0  -0.5999999999999996 5 0  -0.7000000000000002 5 0  -0.7999999999999998 5 0  -0.9000000000000004 5 0  -1 5 0  -1.1 5 0  -1.2 5 0  -1.3 5 0  -1.4 5 0  -1.5 5 0  -1.6 5 0  -1.7 5 0  -1.8 5 0  -1.9 5 0  -2 5 0  -2.1 5 0  -2.2 5 0  -2.3 5 0  -2.4 5 0  -2.5 5 0  -2.6 5 0  -2.7 5 0  -2.8 5 0  -2.9 5 0  -3 5 0  -3.1 5 0  -3.199999999999999 5 0  -3.300000000000001 5 0  -3.4 5 0  -3.5 5 0  -3.6 5 0  -3.699999999999999 5 0  -3.800000000000001 5 0  -3.9 5 0  -4 5 0  -4.1 5 0  -4.199999999999999 5 0  -4.300000000000001 5 0  -4.4 5 0  -4.5 5 0  -4.6 5 0  -4.699999999999999 5 0  -4.800000000000001 5 0  -4.9 5 0  -5 4.9 0  -5 4.8 0  -5 4.7 0  -5 4.6 0  -5 4.5 0  -5 4.4 0  -5 4.3 0  -5 4.2 0  -5 4.1 0  -5 4 0  -5 3.9 0  -5 3.8 0  -5 3.7 0  -5 3.6 0  -5 3.5 0  -5 3.4 0  -5 3.3 0  -5 3.2 0  -5 3.1 0  -5 3 0  -5 2.9 0  -5 2.8 0  -5 2.7 0  -5 2.6 0  -5 2.5 0  -5 2.4 0  -5 2.3 0  -5 2.2 0  -5 2.1 0  -5 2 0  -5 1.9 0  -5 1.8 0  -5 1.7 0  -5 1.6 0  -5 1.5 0  -5 1.4 0  -5 1.3 0  -5 1.2 0  -5 1.1 0  -5 1 0  -5 0.9000000000000004 0  -5 0.7999999999999998 0  -5 0.7000000000000002 0  -5 0.5999999999999996 0  -5 0.5 0  -5 0.4000000000000004 0  -5 0.2999999999999998 0  -5 0.2000000000000002 0  -5 0.09999999999999964 0  -5 0 0  -5 -0.09999999999999964 0  -5 -0.2000000000000002 0  -5 -0.2999999999999998 0  -5 -0.4000000000000004 0  -5 -0.5 0  -5 -0.5999999999999996 0  -5 -0.7000000000000002 0  -5 -0.7999999999999998 0  -5 -0.9000000000000004 0  -5 -1 0  -5 -1.1 0  -5 -1.2 0  -5 -1.3 0  -5 -1.4 0  -5 -1.5 0  -5 -1.6 0  -5 -1.7 0  -5 -1.8 0  -5 -1.9 0  -5 -2 0  -5 -2.1 0  -5 -2.2 0  -5 -2.3 0  -5 -2.4 0  -5 -2.5 0  -5 -2.6 0  -5 -2.7 0  -5 -2.8 0  -5 -2.9 0  -5 -3 0  -5 -3.1 0  -5 -3.199999999999999 0  -5 -3.300000000000001 0  -5 -3.4 0  -5 -3.5 0  -5 -3.6 0  -5 -3.699999999999999 0  -5 -3.800000000000001 0  -5 -3.9 0  -5 -4 0  -5 -4.1 0  -5 -4.199999999999999 0  -5 -4.300000000000001 0  -5 -4.4 0  -5 -4.5 0  -5 -4.6 0  -5 -4.699999999999999 0  -5 -4.800000000000001 0  -5 -4.9 0  1.257812371809875 0.0916116018709305 0  1.23568786473196 0.1891073368055549 0  1.201509461641467 0.2862219090093562 0  1.158840050836951 0.3751826205102055 0  1.099905811300245 0.4664399732085701 0  1.03266276618057 0.5494817232586675 0  0.9544566740758539 0.6301797787077043 0  0.8674219269215844 0.7048218956776114 0  0.7756020529441662 0.769699369694344 0  0.6743496276090188 0.8272201650125398 0  0.5602704553806538 0.8795088801107784 0  0.4458626079014926 0.924634927522872 0  0.3366804427173349 0.955851997265875 0  0.2087903379680278 0.9793134955858085 0  0.08646420832699185 0.9970235184093046 0  -0.0259212609513933 1.000710711175536 0  -0.143554409968267 0.9874922521121641 0  -0.2752284042401022 0.9669786161835653 0  -0.3961276519377306 0.942472742671989 0  -0.5046259431805498 0.9080239675475915 0  -0.6135644864288596 0.8617472481935737 0  -0.7154221011577501 0.8063105726008135 0  -0.8095031635248792 0.7424768033081113 0  -0.9012069541177194 0.668857142813749 0  -0.9880525213358156 0.588335751130227 0  -1.062931558903701 0.5062239412679301 0  -1.125547467436659 0.4223863824967733 0  -1.182244022698522 0.3267638406490152 0  -1.219115192829716 0.2412401849017973 0  -1.243145751708391 0.1481934988829552 0  -1.25306106880634 0.05309257681623179 0  -1.25297324713469 -0.05080990767960775 0  -1.242892968437393 -0.145164618831561 0  -1.218756386240073 -0.2345301144148391 0  -1.176059277682502 -0.3306050875677464 0  -1.125837464435003 -0.4236284710121722 0  -1.06550533230524 -0.5057779162714013 0  -0.9907126002320827 -0.5873305322170893 0  -0.904464641521962 -0.6667758216971992 0  -0.8139800319300164 -0.7374434679353894 0  -0.7191797969914918 -0.7976542232164573 0  -0.6149854089544302 -0.8513047748530184 0  -0.4978296109244862 -0.9011666431631654 0  -0.3858587325521212 -0.9409215612736159 0  -0.2719486279374673 -0.9668348908482896 0  -0.1416395682856233 -0.9876255728975019 0  -0.02740763359676661 -0.9999089905085473 0  0.08412823723434915 -0.9926189507186668 0  0.2161631676904053 -0.97450762170355 0  0.3400088050535154 -0.9537497227377493 0  0.4502386336570884 -0.923252353317504 0  0.5633194489465623 -0.8786555264435681 0  0.6758045749013218 -0.8269285987882472 0  0.7751051912456007 -0.7710651974419259 0  0.8655974686615152 -0.7071288747877236 0  0.9506843926901557 -0.6316269268461312 0  1.030473660588457 -0.5476703600058453 0  1.102311868070341 -0.4638634957254053 0  1.15990477957287 -0.3751225828647188 0  1.203420911419681 -0.2843040898439963 0  1.236441614919342 -0.1886430164468678 0  1.258214207705875 -0.09199205142315896 0  -2.448501662858541 4.918008979271904 0  -2.448370011947996 -4.910377426764642 0  4.910296725078502 2.447811500724025 0  4.918434601989826 -2.449281000093504 0  2.446089286580892 -4.895588962324013 0  2.440525032896758 4.899355770173395 0  -4.910323972087303 -2.4478388872736 0  -4.910321294883818 2.44784316946002 0  -1.748453378896396 4.910849253259593 0  -1.744242049539654 -4.914296554375075 0  4.920441063677492 1.743994316495018 0  4.90894751258086 -1.747744937810432 0  -4.909242547990471 -1.747480067202604 0  -4.910066763786492 1.747226225506118 0  1.745721306017824 4.90469297142668 0  1.747126698175985 -4.892815880453917 0  -1.148776998229807 4.908596442159888 0  -1.129639157006372 -4.916530629864086 0  -4.908908224794977 -1.147823839045418 0  -4.908726002164017 1.147624723816719 0  1.143774999015011 -4.912705578859077 0  1.148786038628594 4.90858224092176 0  4.909047567874786 1.146098285674004 0  4.919913563662051 -1.151892971777038 0  -0.5466347714932144 -4.909766173447338 0  -0.546421579846719 4.918475536198001 0  -4.90759906342039 -0.5486506626927243 0  -4.907623056535343 0.5472092159073678 0  4.906914752856316 -0.5489685267982787 0  4.918614302460083 0.5457329262593642 0  0.5424137063723181 -4.896604988946277 0  0.551147881009631 4.915288610731311 0  -4.911793034869922 -3.048211325900168 0  4.918371186085731 3.046232739162829 0  4.91130024008292 -3.048186013448755 0  -4.91264162160987 3.045303846319074 0  3.055234554322024 -4.917292796494085 0  -3.048560159002544 -4.911221827567262 0  3.052129085655254 4.91330140124527 0  -3.048006592096001 4.912112715778856 0  -4.906691593048052 -0.04990184680286407 0  0.0451176003339661 -4.911714074483183 0  0.04956414533539696 4.91876224832331 0  4.913772522060089 -0.05128482079125015 0  3.545567105358327 -4.91896415391147 0  -3.548843046835172 4.911859333887
[...]
<PointData  Vectors="f_7446"> 
<DataArray  type="Float64"  Name="f_7446"  NumberOfComponents="3" format="ascii">2.6559658580600310e-76 2.6559658580600310e-76 0.0000000000000000e+00  -2.8445085011138809e-76 2.8445085011138809e-76 0.0000000000000000e+00  -8.5659604779174699e-78 -8.5659604779174699e-78 0.0000000000000000e+00  3.0308186857311747e-76 -3.0308186857311747e-76 0.0000000000000000e+00  7.8024272589597166e-01 7.8264589845395763e-03 0.0000000000000000e+00  4.1660932180116439e-75 6.6060835706930966e-75 0.0000000000000000e+00  2.0822227893113923e-75 2.0880115680745807e-74 0.0000000000000000e+00  -3.4063485183875348e-75 6.7720117472370131e-75 0.0000000000000000e+00  4.0009159526662918e-72 6.6674248295085500e-72 0.0000000000000000e+00  5.3180428121076046e-71 1.3457225273707113e-70 0.0000000000000000e+00  -7.9225762890366338e-72 4.5554677946432934e-71 0.0000000000000000e+00  3.2355286536189802e-69 6.1613495358360205e-69 0.0000000000000000e+00  5.1636733039963815e-68 9.3970108912186330e-68 0.0000000000000000e+00  -3.0665965469056317e-68 1.5002027714796462e-67 0.0000000000000000e+00  1.2774463541709713e-67 3.9811764064533145e-67 0.0000000000000000e+00  1.2619863240490645e-68 8.7791483168444437e-67 0.0000000000000000e+00  5.4554123397028724e-64 8.8202983694839170e-64 0.0000000000000000e+00  4.7421860915024460e-65 2.4418739184798952e-63 0.0000000000000000e+00  1.3502661438126211e-62 2.1982337950520533e-62 0.0000000000000000e+00  8.0712882608619733e-63 8.3177305466851456e-62 0.0000000000000000e+00  6.9378045287399783e-61 1.1018594374780438e-60 0.0000000000000000e+00  4.0663790161835151e-60 7.0040300198339440e-60 0.0000000000000000e+00  -2.8500390359663750e-60 7.7009615437084466e-60 0.0000000000000000e+00  5.6683233593376978e-59 1.1364126790334144e-58 0.0000000000000000e+00  -1.7609072125584008e-59 1.1647669347922846e-58 0.0000000000000000e+00  -3.0070170918809213e-59 6.8406427734662655e-59 0.0000000000000000e+00  1.8044988748191009e-58 3.3029214570622687e-58 0.0000000000000000e+00  7.3077489174206776e-58 2.0888974002232833e-57 0.0000000000000000e+00  2.8643955464486514e-57 6.2307539679124128e-57 0.0000000000000000e+00  -3.4120560072665882e-57 5.7406570108282493e-57 0.0000000000000000e+00  -3.5275631286455646e-58 1.0980642574008615e-57 0.0000000000000000e+00  1.9114157119997487e-56 2.9305034560994617e-56 0.0000000000000000e+00  -1.4157960958789668e-56 3.5319723956764928e-56 0.0000000000000000e+00  1.1932214302894272e-56 2.8925050611467992e-56 0.0000000000000000e+00  8.7517715222991609e-56 2.0968752733600395e-55 0.0000000000000000e+00  -2.5172009774096010e-56 5.7435594655364773e-55 0.0000000000000000e+00  5.2195113580271666e-57 8.6084670201126475e-57 0.0000000000000000e+00  5.5545156830420700e-56 1.3812605425407984e-55 0.0000000000000000e+00  1.5517019336405395e-55 6.1682923632576117e-55 0.0000000000000000e+00  -2.2406738647348584e-55 3.5179589202182017e-55 0.0000000000000000e+00  9.8556138626301637e-55 1.7221967006391709e-54 0.0000000000000000e+00  -4.4307325301410857e-55 4.3616856896270492e-54 0.0000000000000000e+00  -2.2880477015340071e-55 2.6821121438254884e-54 0.0000000000000000e+00  -9.6401647474646372e-56 9.4401380885905088e-55 0.0000000000000000e+00  -1.1336086860975001e-55 1.8227894091219636e-55 0.0000000000000000e+00  2.7660815134843740e-54 5.2317319083317129e-54 0.0000000000000000e+00  -2.1648518117291705e-54 4.1401270689168532e-54 0.0000000000000000e+00  -7.2089420588384764e-55 8.0841242568305341e-55 0.0000000000000000e+00  -1.3236371821891332e-55 2.7136266489403304e-55 0.0000000000000000e+00  9.3254428621809658e-55 1.4447848231320264e-54 0.0000000000000000e+00  9.4774384740094953e-55 6.1539858133257791e-54 0.0000000000000000e+00  -1.1313347027400841e-54 5.8988793670171801e-54 0.0000000000000000e+00  5.1594900121476870e-55 4.6478199471726633e-54 0.0000000000000000e+00  1.9117495639965729e-56 5.7927585593915779e-54 0.0000000000000000e+00  3.0250064890147065e-55 6.1509115046942387e-54 0.0000000000000000e+00  -1.2647730479789892e-54 2.0440525150979732e-54 0.0000000000000000e+00  -6.4704557558158943e-55 1.4722388348399460e-53 0.0000000000000000e+00  4.4748437119191025e-54 7.4700500198235563e-54 0.0000000000000000e+00  -4.3580250059882498e-54 8.0945613516187309e-54 0.0000000000000000e+00  1.9266503591813897e-54 3.9575502438356572e-54 0.0000000000000000e+00  -7.3783472916247893e-55 9.4980843581797259e-54 0.0000000000000000e+00  1.3345730607289639e-54 9.3291873021196995e-54 0.0000000000000000e+00  -1.6890115357548500e-54 4.3954397623976563e-54 0.0000000000000000e+00  -9.2724540385014337e-55 2.4040809498616272e-54 0.0000000000000000e+00  3.3397905961731359e-55 1.2998190190890539e-54 0.0000000000000000e+00  2.6640054353410555e-55 2.5377527476257738e-54 0.0000000000000000e+00  -7.8399882714561572e-56 3.4896848871755006e-54 0.0000000000000000e+00  -7.1290409495655186e-55 1.4808346549278973e-54 0.0000000000000000e+00  2.3833246560080437e-55 4.4283189194902682e-55 0.0000000000000000e+00  -2.3146851632337400e-55 6.0209630977258273e-55 0.0000000000000000e+00  5.0451234830462224e-56 2.3985364800065033e-55 0.0000000000000000e+00  1.8706757795184116e-55 9.5261044668320380e-55 0.0000000000000000e+00  -3.3103168373282598e-55 5.2978831619199897e-55 0.0000000000000000e+00  -1.5938482531050481e-56 4.8200315003568856e-56 0.0000000000000000e+00  -1.1367389837251818e-57 1.1331387758663120e-56 0.0000000000000000e+00  6.7667383879199037e-57 2.3559960667024695e-56 0.0000000000000000e+00  -9.0080388760209003e-57 1.5007779506708306e-56 0.0000000000000000e+00  1.7447529570387065e-57 2.8895028549469991e-57 0.0000000000000000e+00  -1.2461747081840566e-57 2.7225345839088288e-57 0.0000000000000000e+00  5.1839975144472479e-57 7.8164140685850848e-57 0.0000000000000000e+00  -4.5388781867149252e-57 1.1244228830628687e-56 0.0000000000000000e+00  -1.8160236108006506e-58 9.3923814925331944e-58 0.0000000000000000e+00  -2.3948492251068197e-58 4.6490331105342562e-58 0.0000000000000000e+00  -7.8860038989463748e-61 8.8102259110753541e-59 0.0000000000000000e+00  -2.4481720383601806e-59 6.4194423539358136e-59 0.0000000000000000e+00  -7.1215770015040033e-60 2.4987966417718860e-59 0.0000000000000000e+00  -4.3875498139306263e-60 2.2381310991876007e-59 0.0000000000000000e+00  -3.0646833787022189e-60 7.1644382768906267e-60 0.0000000000000000e+00  -8.5283970673697722e-62 4.4342045894080726e-61 0.0000000000000000e+00  -1.0763976210882439e-61 2.2329055395962243e-61 0.0000000000000000e+00  -3.5887237276589283e-62 5.6709213907498189e-62 0.0000000000000000e+00  -3.9113958829781695e-64 6.6942988681756407e-64 0.0000000000000000e+00  -2.4319712967338210e-65 5.1688574642626844e-65 0.0000000000000000e+00  3.7094722086685233e-66 1.0389688906409782e-65 0.0000000000000000e+00  -4.8434764613589889e-66 9.2586012616216254e-66 0.0000000000000000e+00  -6.7012653936333743e-68 2.7706887951040459e-67 0.0000000000000000e+00  -7.8549922138984458e-68 1.2913720012413141e-67 0.0000000000000000e+00  -8.0623462023387339e-69 1.1728609879815974e-68 0.0000000000000000e+00  -5.6342220111615145e-70 9.5182447577654167e-70 0.0000000000000000e+00  -3.7799472188970855e-71 6.8175239168029570e-71 0.0000000000000000e+00  -1.8786367143403810e-72 3.2022765448475684e-72 0.0000000000000000e+00  -1.2178257086069645e-73 2.7265763104094336e-73 0.0000000000000000e+00  -4.4213983284273875e-75 1.2911074159413462e-74 0.0000000000000000e+00  -2.5481924632948285e-75 4.2410774769380055e-75 0.0000000000000000e+00  -9.7686800576430774e-76 3.5585167791554872e-76 0.0000000000000000e+00  -1.6211746820408233e-75 -2.3928860523018233e-76 0.0000000000000000e+00  -2.4487318848657065e-74 1.1592540606012751e-74 0.0000000000000000e+00  -3.6791000332682110e-74 1.5507091008946252e-75 0.0000000000000000e+00  -3.8826919977888642e-73 1.4338143529981135e-73 0.0000000000000000e+00  -1.0235209035067433e-71 6.2405928254701212e-72 0.0000000000000000e+00  -6.7390637123035436e-71 3.7100278658012435e-71 0.0000000000000000e+00  -1.0610177197992869e-70 3.9052902871754663e-72 0.0000000000000000e+00  -8.8986308003866236e-70 3.3108692268683321e-70 0.0000000000000000e+00  -2.1277344770546097e-68 1.2874147561284058e-68 0.0000000000000000e+00  -1.0233424180887692e-67 5.1146054808587493e-68 0.0000000000000000e+00  -1.0140888510027282e-67 -6.0321182093483197e-68 0.0000000000000000e+00  -3.1642058968308225e-66 1.7478624696058625e-66 0.0000000000000000e+00  -3.1834207694577539e-65 1.8338550099722333e-65 0.0000000000000000e+00  -5.3853762986751158e-65 5.0523596808001556e-66 0.0000000000000000e+00  -4.4350978040534028e-64 1.4483087972834373e-64 0.0000000000000000e+00  -6.9880601479212574e-63 4.3652871024324429e-63 0.0000000000000000e+00  -1.5059915942883799e-62 3.7543638575098595e-63 0.0000000000000000e+00  -8.4310425402701981e-62 1.9694066266998725e-62 0.0000000000000000e+00  -1.3538099970088004e-60 8.5328395117317304e-61 0.0000000000000000e+00  -2.4164406818931799e-60 3.3882847415932026e-61 0.0000000000000000e+00  -2.1159599855184539e-59 7.4112847620007285e-60 0.0000000000000000e+00  -2.4149102800254401e-58 1.4975346608476377e-58 0.0000000000000000e+00  -2.5889796912618129e-58 -9.4381539744933118e-59 0.0000000000000000e+00  -5.9740192711747501e-57 2.7875604609748060e-57 0.0000000000000000e+00  -2.4816842719955677e-56 1.2419117098715750e-56 0.0000000000000000e+00  -5.5647154789489963e-56 -8.7079285914145339e-57 0.0000000000000000e+00  -1.0103367765937464e-54 6.4949754426400116e-55 0.0000000000000000e+00  -1.1211022896985580e-54 -3.4724294788833685e-55 0.0000000000000000e+00  -2.4061557396088371e-53 1.2723869448682011e-53 0.0000000000000000e+00  -6.5890450627534889e-53 2.9965239882239366e-53 0.0000000000000000e+00  -4.3548492048892467e-52 1.2273048547901422e-52 0.0000000000000000e+00  -2.6636736695345253e-51 1.6672559050276610e-51 0.0000000000000000e+00  -7.6660116556730253e-51 -2.1516348817619372e-52 0.0000000000000000e+00  -7.1913689217835326e-50 4.6088896917324292e-50 0.0000000000000000e+00  -1.6173346168302792e-49 -1.4823542725958948e-50 0.0000000000000000e+00  -1.7284989801216608e-48 1.0127386290078850e-48 0.0000000000000000e+00  -4.3412476362425079e-48 -2.0470217680757822e-49 0.0000000000000000e+00  -2.0127995434266781e-47 1.1127393792704163e-47 0.0000000000000000e+00  -1.1025759807569585e-46 1.9005284386692206e-47 0.0000000000000000e+00  -1.0245901215246328e-46 2.4667739644085444e-47 0.0000000000000000e+00  -1.2403736019283873e-45 5.2670152361401639e-46 0.0000000000000000e+00  -8.7399418065511383e-46 -5.6942922755913310e-46 0.0000000000000000e+00  -1.3427255068782263e-44 8.0923312752574081e-45 0.0000000000000000e+00  -5.7953380959589572e-44 1.3774145232833381e-44 0.0000000000000000e+00  -3.6156461046855566e-44 -1.7561529326784254e-44 0.0000000000000000e+00  -1.1424435410054126e-43 6.5182462304924314e-44 0.0000000000000000e+00  -8.4127448517521858e-43 2.3223104470713895e-43 0.0000000000000000e+00  -1.9290807558878900e-42 1.9807778038634049e-43 0.0000000000000000e+00  -2.5116669962137962e-42 6.1211594689129673e-44 0.0000000000000000e+00  -2.0144545873003598e-42 -1.9531822040171071e-43 0.0000000000000000e+00  -8.6134029702944942e-43 -2.5124403738039738e-43 0.0000000000000000e+00  -1.1324063910075914e-43 -6.4643069913674672e-44 0.0000000000000000e+00  -3.8716417043044301e-44 1.8553197768124311e-44 0.0000000000000000e+00  -6.3162690169842534e-44 -1.0850130099527968e-44 0.0000000000000000e+00  -1.4986947504566237e-44 -7.8877294008613295e-45 0.0000000000000000e+00  -9.9902446138596391e-46 5.6868744219641176e-46 0.0000000000000000e+00  -1.4037365097279596e-45 -5.3994763418196729e-46 0.0000000000000000e+00  -1.1207175221417027e-46 -2.8623026005034617e-47 0.0000000000000000e+00  -1.0180272801812279e-46 -2.1468604564283845e-47 0.0000000000000000e+00  -1.8604083568969967e-47 -1.1999189753301964e-47 0.0000000000000000e+00  -4.0856653644790749e-48 2.0383981107412951e-49 0.0000000000000000e+00  -1.4863026820817483e-48 -9.3774485572767708e-49 0.0000000000000000e+00  -1.6333005528315398e-49 2.4603976795066637e-50 0.0000000000000000e+00  -7.4553624261820557e-50 -4.4278123407299480e-50 0.0000000000000000e+00  -8.2465450439107950e-51 6.4200218975697430e-52 0.0000000000000000e+00  -3.1444590766909941e-51 -1.7860362256436115e-51 0.0000000000000000e+00  -5.1022151802552720e-52 -1.1479087929207430e-52 0.0000000000000000e+00  -8.2039341258352585e-53 -3.5512212785347498e-53 0.0000000000000000e+00  -2.6611101713794826e-53 -1.3170688841950287e-53 0.0000000000000000e+00  -1.1973853001509341e-54 3.2427880983157171e-55 0.0000000000000000e+00  -1.0632973223825439e-54 -6.8114029148232698e-55 0.0000000000000000e+00  -5.1529117582391997e-56 8.3595690369238152e-57 0.0000000000000000e+00  -2.3358007549485130e-56 -1.3249172854351022e-56 0.0000000000000000e+00  -4.8224098165912943e-57 -2.5231385499048035e-57 0.0000000000000000e+00  -2.4591880539201172e-58 8.5523067191902091e-59 0.0000000000000000e+00  -2.1575496304020100e-58 -1.3293884774824573e-58 0.0000000000000000e+00  -1.9907415430397046e-59 -6.1494249540996194e-60 0.0000000000000000e+00  -2.3747387991957536e-60 -3.3978007198283287e-61 0.0000000000000000e+00  -1.2904686518961161e-60 -7.6122768665705684e-61 0.0000000000000000e+00  -7.6897849505111398e-62 -2.1446412076466649e-62 0.0000000000000000e+00  -1.3592408968071592e-62 -2.9316869946593238e-63 0.0000000000000000e+00  -6.6374975939440664e-63 -3.7898903883813028e-63 0.0000000000000000e+00  -4.7823249401070007e-64 -1.8202512443880714e-64 0.0000000000000000e+00  -4.3638991575960369e-65 9.5840925396554348e-67 0.0000000000000000e+00  -2.9475141923949616e-65 -1.6626346115392052e-65 0.0000000000000000e+00  -3.4125268495418231e-66 -1.9893071452365222e-66 0.0000000000000000e+00  -8.9973764099812320e-68 5.4823937718291961e-68 0.0000000000000000e+00  -8.6352843354891803e-68 -4.1786390500123479e-68 0.0000000000000000e+00  -2.0678314125690096e-68 -1.2852807575835248e-68 0.0000000000000000e+00  -1.1325210416376495e-69 -5.1345990356062337e-70 0.0000000000000000e+00  -8.7947369136895665e-71 1.3792068552363856e-71 0.0000000000000000e+00  -6.9074638895005066e-71 -3.6577986177122233e-71 0.0000000000000000e+00  -1.2477804569330443e-71 -7.6633541448530958e-72 0.0000000000000000e+00  -5.9816007699294386e-73 -2.7513770367927940e-73 0.0000000000000000e+00  -3.9238421556734355e-74 7.4242995088406584e-75 0.0000000000000000e+00  -3.1564203574877421e-74 -1.4791286200801972e-74 0.0000000000000000e+00  -6.5904569403793592e-75 -3.3572418979986735e-75 0.0000000000000000e+00  -7.1798505081303360e-76 -3.1071988646569270e-76 0.0000000000000000e+00  -8.5521361647969623e-76 -1.6228275195811195e-75 0.0000000000000000e+00  -4.7736863004769653e-75 -1.3945795309879706e-74 0.0000000000000000e+00  4.3675337244029443e-75 -8.3092641065355376e-75 0.0000000000000000e+00  -1.6296162486696505e-73 -3.4270442115879778e-73 0.0000000000000000e+00  -9.2870888789522471e-71 -1.0068103013106556e-70 0.0000000000000000e+00  -7.5082243530696818e-70 -1.3175706682893417e-69 0.0000000000000000e+00  -1.0987485356901390e-69 -3.6509868243394027e-69 0.0000000000000000e+00  -7.7634939189491460e-68 -1.7112101325766219e-67 0.0000000000000000e+00  -6.5334717543650760e-68 -3.2597507910703389e-67 0.0000000000000000e+00  -6.7924918792537582e-66 -1.3498452848766492e-65 0.0000000000000000e+00  -4.5219712547222256e-66 -2.1314595242114967e-65 0.0000000000000000e+00  -9.0742391666306258e-65 -1.5571851992329873e-64 0.0000000000000000e+00  1.7229908517663074e-65 -2.1036438797563388e-64 0.0000000000000000e+00  -4.2783423925889303e-62 -6.4003885205211320e-62 0.0000000000000000e+00  -7.0035720743537611e-62 -1.7203308656060476e-61 0.0000000000000000e+00  -2.3278185850753478e-62 -2.7285003868820391e-61 0.0000000000000000e+00  -5.7449491258425557e-60 -1.1359157425387247e-59 0.0000000000000000e+00  4.7727593378373422e-60 -1.5023646803733346e-59 0.0000000000000000e+00  -2.9038424438047763e-59 -4.7469404038946716e-59 0.0000000000000000e+00  8.8312779247082772e-60 -6.0867638795677995e-59 0.0000000000000000e+00  2.3283980651081184e-59 -3.9737092845545005e-59 0.0000000000000000e+00  -5.6451787658174655e-58 -8.9431283757309988e-58 0.0000000000000000e+00  -1.3822059848534449e-59 -1.2602273653582132e-57 0.0000000000000000e+00  -4.6404526780475446e-57 -1.1633908792511526e-56 0.0000000000000000e+00  5.7589806306583962e-57 -8.6791591719722509e-57 0.0000000000000000e+00  -5.3429341472490229e-57 -7.3335207918285622e-57 0.0000000000000000e+00  -1.7703481180636845e-56 -3.7718752674671130e-56 0.0000000000000000e+00  2.1661068792708621e-56 -4.0730738183338725e-56 0.0000000000000000e+00  -5.0126627576668384e-57 -9.1963223909674339e-57 0.0000000000000000e+00  -8.1352160473633759e-56 -2.0303142153935915e-55 0.0000000000000000e+00  6.3903693648689828e-56 -5.0774739748839725e-55 0.0000000000000000e+00  -4.2998616407979397e-55 -7.2542903613076381e-55 0.0000000000000000e+00  -4.8867669593592558e-56 -1.8356878538612424e-54 0.0000000000000000e+00  1.6646330275032816e-55 -5.7410795820412820e-55 0.0000000000000000e+00  -5.1957283677359599e-55 -1.6755454044223697e-54 0.0000000000000000e+00  -2.2598076124683800e-54 -7.0700413566332548e-54 0.0000000000000000e+00  2.5899499870150631e-54 -6.0783693365650754e-54 0.0000000000000000e+00  -6.7397800252524499e-55 -2.3892483129957768e-54 0.0000000000000000e+00  5.3422547482647571e-55 -2.8193523361847390e-54 0.0000000000000000e+00  1.2867312308155148e-55 -1.4248349832912374e-54 0.0000000000000000e+00  -2.1872895491116709e-54 -3.4655692649369827e-54 0.0000000000000000e+00  5.7331228205868464e-55 -8.2270726146269656e-54 0.0000000000000000e+00  -3.9434681863587371e-54 -1.3555943894466275e-53 0.0000000000000000e+00  4.7083868767519727e-54 -7.7161279922496538e-54 0.0000000000000000e+00  2.0387937183276582e-55 -6.5064808680848776e-55 0.0000000000000000e+00  -4.8180084898447412e-54 -8.0076885336104312e-54 0.0000000000000000e+00  4.8441383037194076e-54 -7.8703775394753733e-54 0.0000000000000000e+00  -1.6678584459401511e-56 -1.3349689595166661e-55 0.0000000000000000e+00  1.1194268891960417e-56 -2.7679806538028907e-55 0.0000000000000000e+00  2.2148690625834000e-56 -9.8796667582214732e-56 0.0000000000000000e+00  -5.2233972930571974e-54 -9.3538626741540337e-54 0.0000000000000000e+00  5.5711188875886890e-54 -9.4070858755145544e-54 0.0000000000000000e+00  5.6957026001471027e-56 -1.0517683984529540e-55 0.0000000000000000e+00  -1.4382386341502055e-56 -6.2049360833105500e-56 0.0000000000000000e+00  -5.0174882358366500e-55 -9.0477829225533610e-55 0.0000000000000000e+00  -5.8357388222239305e-54 -1.0047705600546251e-53 0.0000000000000000e+00  4.5197708547046381e-54 -1.0490045792187322e-53 0.0000000000000000e+00  -3.0632839560603972e-54 -7.9866621988475092e-54 0.0000000000000000e+00  2.4473959303530706e-54 -8.5487083440164071e-54 0.0000000000000000e+00  2.2541219168663213e-54 -3.3050317903133535e-54 0.0000000000000000e+00  -5.4554088270546290e-55 -1.4801475149302563e-54 0.0000000000000000e+00  8.3840504725425725e-55 -1.5733270918766478e-54 0.0000000000000000e+00  -4.9396591801103457e-55 -9.8354155186080286e-55 0.0000000000000000e+00  5.1408743710627106e-55 -8.8515225992269300e-55 0.0000000000000000e+00  -1.5714224673911979e-56 -2.6931346352565083e-56 0.0000000000000000e+00  -4.4906295764903873e-56 -1.7221304526771011e-55 0.0000000000000000e+00  4.1836873852829359e-56 -1.7464596736355699e-55 0.0000000000000000e+00  4.8128736413208283e-57 -6.9026154256858806e-56 0.0000000000000000e+00  -2.7558330588720892e-56 -6.5448728440620126e-56 0.0000000000000000e+00  3.2960695151023733e-56 -6.4110277548049800e-56 0.0000000000000000e+00  -2.8654646958190849e-57 -2.8735864938524104e-56 0.0000000000000000e+00  1.2988080790561206e-56 -3.0009599054174712e-56 0.0000000000000000e+00  1.0044722802588748e-57 -2.3982339510091646e-57 0.0000000000000000e+00  -4.3915627415140139e-57 -7.6427930794584028e-57 0.0000000000000000e+00  4.2575158223233046e-57 -1.1003390475835460e-56 0.0000000000000000e+00  3.1301190257878989e-58 -1.0210391095488659e-57 0.0000000000000000e+00  1.4403623848326521e-58 -5.024973