<?xml version="1.0"?>
<VTKFile type="UnstructuredGrid"  version="0.1"  >
<UnstructuredGrid>
<Piece  NumberOfPoints="11902" NumberOfCells="23402">
<Points>
<DataArray  type="Float64"  NumberOfComponents="3"  format="ascii">-5 -5 0  5 -5 0  5 5 0  -5 5 0  1.245827661808744 0.001373760913371051 0  -4.9 -5 0  -4.8 -5 0  -4.7 -5 0  -4.6 -5 0  -4.5 -5 0  -4.4 -5 0  -4.3 -5 0  -4.2 -5 0  -4.1 -5 0  -4 -5 0  -3.9 -5 0  -3.8 -5 0  -3.7 -5 0  -3.6 -5 0  -3.5 -5 0  -3.4 -5 0  -3.3 -5 0  -3.2 -5 0  -3.1 -5 0  -3 -5 0  -2.9 -5 0  -2.8 -5 0  -2.7 -5 0  -2.6 -5 0  -2.5 -5 0  -2.4 -5 0  -2.3 -5 0  -2.2 -5 0  -2.1 -5 0  -2 -5 0  -1.9 -5 0  -1.8 -5 0  -1.7 -5 0  -1.6 -5 0  -1.5 -5 0  -1.4 -5 0  -1.3 -5 0  -1.2 -5 0  -1.1 -5 0  -1 -5 0  -0.9000000000000004 -5 0  -0.7999999999999998 -5 0  -0.7000000000000002 -5 0  -0.5999999999999996 -5 0  -0.5 -5 0  -0.4000000000000004 -5 0  -0.2999999999999998 -5 0  -0.2000000000000002 -5 0  -0.09999999999999964 -5 0  0 -5 0  0.09999999999999964 -5 0  0.2000000000000002 -5 0  0.2999999999999998 -5 0  0.4000000000000004 -5 0  0.5 -5 0  0.5999999999999996 -5 0  0.7000000000000002 -5 0  0.7999999999999998 -5 0  0.9000000000000004 -5 0  1 -5 0  1.1 -5 0  1.2 -5 0  1.3 -5 0  1.4 -5 0  1.5 -5 0  1.6 -5 0  1.7 -5 0  1.8 -5 0  1.9 -5 0  2 -5 0  2.1 -5 0  2.2 -5 0  2.3 -5 0  2.4 -5 0  2.5 -5 0  2.6 -5 0  2.7 -5 0  2.8 -5 0  2.9 -5 0  3 -5 0  3.1 -5 0  3.199999999999999 -5 0  3.300000000000001 -5 0  3.4 -5 0  3.5 -5 0  3.6 -5 0  3.699999999999999 -5 0  3.800000000000001 -5 0  3.9 -5 0  4 -5 0  4.1 -5 0  4.199999999999999 -5 0  4.300000000000001 -5 0  4.4 -5 0  4.5 -5 0  4.6 -5 0  4.699999999999999 -5 0  4.800000000000001 -5 0  4.9 -5 0  5 -4.9 0  5 -4.8 0  5 -4.7 0  5 -4.6 0  5 -4.5 0  5 -4.4 0  5 -4.3 0  5 -4.2 0  5 -4.1 0  5 -4 0  5 -3.9 0  5 -3.8 0  5 -3.7 0  5 -3.6 0  5 -3.5 0  5 -3.4 0  5 -3.3 0  5 -3.2 0  5 -3.1 0  5 -3 0  5 -2.9 0  5 -2.8 0  5 -2.7 0  5 -2.6 0  5 -2.5 0  5 -2.4 0  5 -2.3 0  5 -2.2 0  5 -2.1 0  5 -2 0  5 -1.9 0  5 -1.8 0  5 -1.7 0  5 -1.6 0  5 -1.5 0  5 -1.4 0  5 -1.3 0  5 -1.2 0  5 -1.1 0  5 -1 0  5 -0.9000000000000004 0  5 -0.7999999999999998 0  5 -0.7000000000000002 0  5 -0.5999999999999996 0  5 -0.5 0  5 -0.4000000000000004 0  5 -0.2999999999999998 0  5 -0.2000000000000002 0  5 -0.09999999999999964 0  5 0 0  5 0.09999999999999964 0  5 0.2000000000000002 0  5 0.2999999999999998 0  5 0.4000000000000004 0  5 0.5 0  5 0.5999999999999996 0  5 0.7000000000000002 0  5 0.7999999999999998 0  5 0.9000000000000004 0  5 1 0  5 1.1 0  5 1.2 0  5 1.3 0  5 1.4 0  5 1.5 0  5 1.6 0  5 1.7 0  5 1.8 0  5 1.9 0  5 2 0  5 2.1 0  5 2.2 0  5 2.3 0  5 2.4 0  5 2.5 0  5 2.6 0  5 2.7 0  5 2.8 0  5 2.9 0  5 3 0  5 3.1 0  5 3.199999999999999 0  5 3.300000000000001 0  5 3.4 0  5 3.5 0  5 3.6 0  5 3.699999999999999 0  5 3.800000000000001 0  5 3.9 0  5 4 0  5 4.1 0  5 4.199999999999999 0  5 4.300000000000001 0  5 4.4 0  5 4.5 0  5 4.6 0  5 4.699999999999999 0  5 4.800000000000001 0  5 4.9 0  4.9 5 0  4.8 5 0  4.7 5 0  4.6 5 0  4.5 5 0  4.4 5 0  4.3 5 0  4.2 5 0  4.1 5 0  4 5 0  3.9 5 0  3.8 5 0  3.7 5 0  3.6 5 0  3.5 5 0  3.4 5 0  3.3 5 0  3.2 5 0  3.1 5 0  3 5 0  2.9 5 0  2.8 5 0  2.7 5 0  2.6 5 0  2.5 5 0  2.4 5 0  2.3 5 0  2.2 5 0  2.1 5 0  2 5 0  1.9 5 0  1.8 5 0  1.7 5 0  1.6 5 0  1.5 5 0  1.4 5 0  1.3 5 0  1.2 5 0  1.1 5 0  1 5 0  0.9000000000000004 5 0  0.7999999999999998 5 0  0.7000000000000002 5 0  0.5999999999999996 5 0  0.5 5 0  0.4000000000000004 5 0  0.2999999999999998 5 0  0.2000000000000002 5 0  0.09999999999999964 5 0  0 5 0  -0.09999999999999964 5 0  -0.2000000000000002 5 0  -0.2999999999999998 5 0  -0.4000000000000004 5 0  -0.5 5 0  -0.5999999999999996 5 0  -0.7000000000000002 5 0  -0.7999999999999998 5 0  -0.9000000000000004 5 0  -1 5 0  -1.1 5 0  -1.2 5 0  -1.3 5 0  -1.4 5 0  -1.5 5 0  -1.6 5 0  -1.7 5 0  -1.8 5 0  -1.9 5 0  -2 5 0  -2.1 5 0  -2.2 5 0  -2.3 5 0  -2.4 5 0  -2.5 5 0  -2.6 5 0  -2.7 5 0  -2.8 5 0  -2.9 5 0  -3 5 0  -3.1 5 0  -3.199999999999999 5 0  -3.300000000000001 5 0  -3.4 5 0  -3.5 5 0  -3.6 5 0  -3.699999999999999 5 0  -3.800000000000001 5 0  -3.9 5 0  -4 5 0  -4.1 5 0  -4.199999999999999 5 0  -4.300000000000001 5 0  -4.4 5 0  -4.5 5 0  -4.6 5 0  -4.699999999999999 5 0  -4.800000000000001 5 0  -4.9 5 0  -5 4.9 0  -5 4.8 0  -5 4.7 0  -5 4.6 0  -5 4.5 0  -5 4.4 0  -5 4.3 0  -5 4.2 0  -5 4.1 0  -5 4 0  -5 3.9 0  -5 3.8 0  -5 3.7 0  -5 3.6 0  -5 3.5 0  -5 3.4 0  -5 3.3 0  -5 3.2 0  -5 3.1 0  -5 3 0  -5 2.9 0  -5 2.8 0  -5 2.7 0  -5 2.6 0  -5 2.5 0  -5 2.4 0  -5 2.3 0  -5 2.2 0  -5 2.1 0  -5 2 0  -5 1.9 0  -5 1.8 0  -5 1.7 0  -5 1.6 0  -5 1.5 0  -5 1.4 0  -5 1.3 0  -5 1.2 0  -5 1.1 0  -5 1 0  -5 0.9000000000000004 0  -5 0.7999999999999998 0  -5 0.7000000000000002 0  -5 0.5999999999999996 0  -5 0.5 0  -5 0.4000000000000004 0  -5 0.2999999999999998 0  -5 0.2000000000000002 0  -5 0.09999999999999964 0  -5 0 0  -5 -0.09999999999999964 0  -5 -0.2000000000000002 0  -5 -0.2999999999999998 0  -5 -0.4000000000000004 0  -5 -0.5 0  -5 -0.5999999999999996 0  -5 -0.7000000000000002 0  -5 -0.7999999999999998 0  -5 -0.9000000000000004 0  -5 -1 0  -5 -1.1 0  -5 -1.2 0  -5 -1.3 0  -5 -1.4 0  -5 -1.5 0  -5 -1.6 0  -5 -1.7 0  -5 -1.8 0  -5 -1.9 0  -5 -2 0  -5 -2.1 0  -5 -2.2 0  -5 -2.3 0  -5 -2.4 0  -5 -2.5 0  -5 -2.6 0  -5 -2.7 0  -5 -2.8 0  -5 -2.9 0  -5 -3 0  -5 -3.1 0  -5 -3.199999999999999 0  -5 -3.300000000000001 0  -5 -3.4 0  -5 -3.5 0  -5 -3.6 0  -5 -3.699999999999999 0  -5 -3.800000000000001 0  -5 -3.9 0  -5 -4 0  -5 -4.1 0  -5 -4.199999999999999 0  -5 -4.300000000000001 0  -5 -4.4 0  -5 -4.5 0  -5 -4.6 0  -5 -4.699999999999999 0  -5 -4.800000000000001 0  -5 -4.9 0  1.238509390821085 0.09639673596900257 0  1.217798222896749 0.1936614241672621 0  1.184682545305441 0.2902613264816141 0  1.142140186288474 0.3798371669863954 0  1.085616919667829 0.4703966076831082 0  1.02072653126082 0.5551102273340262 0  0.9437039284374602 0.6348641885133264 0  0.8580146536519004 0.7087633792731445 0  0.7664916016290224 0.7741255604263253 0  0.6647591588467652 0.8317395247530818 0  0.5549601075853027 0.8839406790784899 0  0.4433048470865907 0.9272897068894091 0  0.3304270749740452 0.9600021464711398 0  0.2080034197432756 0.9816478624725971 0  0.08940724982367604 0.9996481971065656 0  -0.02752292949947293 1.002724140286254 0  -0.1452371350488336 0.9899135767658516 0  -0.2698076464865909 0.9715110083229055 0  -0.388032178857082 0.9467054707091002 0  -0.498881997998866 0.9103873366309132 0  -0.6071431724180234 0.8640676085379777 0  -0.7091525397651787 0.8096331266765668 0  -0.8034739968408507 0.7452240188873633 0  -0.8932835359611495 0.6727087748934855 0  -0.9770859259037744 0.5936086782790521 0  -1.049723575812954 0.5123321382772046 0  -1.111071832047747 0.42631068309542 0  -1.162289411689545 0.3346834237757885 0  -1.199968179648325 0.2433571905815345 0  -1.22446650155044 0.1486892397174912 0  -1.23634586748074 0.05090943708920507 0  -1.236298728064238 -0.04879942341793801 0  -1.224368019519378 -0.14595995877266 0  -1.199802845018636 -0.239925139987692 0  -1.160111185100952 -0.3348874949493837 0  -1.111300740408652 -0.4260288648979457 0  -1.051117093628438 -0.5119586797037349 0  -0.9792838345647794 -0.5925331022284429 0  -0.8960939001986988 -0.6703827187068141 0  -0.8065561103652509 -0.7413836427978199 0  -0.7106724010571284 -0.8023468808479466 0  -0.6067865914413945 -0.8557524368180928 0  -0.494897774599669 -0.9046992432597508 0  -0.3823503664399827 -0.943824597582037 0  -0.2664968710470694 -0.970915041726178 0  -0.1438936811855174 -0.9894562326630929 0  -0.02796349714579815 -1.001869982237669 0  0.08948049648930703 -0.9952597589009309 0  0.2125860223674005 -0.9786891844908444 0  0.3327541664636939 -0.9584213090369772 0  0.4473696324586123 -0.925947491983993 0  0.5571889187239065 -0.883048570921991 0  0.665635436060979 -0.8317372052603812 0  0.7665214302115857 -0.7752922817305063 0  0.858103164359209 -0.7097089895045958 0  0.9430749720585794 -0.6347451451329188 0  1.018348656292146 -0.5543631831757238 0  1.085797161734369 -0.4694607747103948 0  1.143062014955168 -0.3799711591174294 0  1.186372701972853 -0.2882992123539047 0  1.218351401803395 -0.1927728859262501 0  1.238717613891243 -0.09603463155252488 0  -2.448603124083908 4.918190084119283 0  -2.448481076243965 -4.910575365560545 0  4.910501518155787 2.447951246027424 0  4.918620446669863 -2.449407631598087 0  2.446218188794107 -4.895820972983439 0  2.440650001448911 4.899580576001709 0  -4.910527972442793 -2.447977058175428 0  -4.910525381678529 2.447980939033836 0  -1.748558856034034 4.911112160388492 0  -1.744343701523746 -4.91454941751839 0  4.9206992700781 1.744120720721856 0  4.909242361001496 -1.747889198544726 0  -4.909535440983843 -1.747622682293518 0  -4.910357117443313 1.747366938881791 0  1.745834438827842 4.90497582133897 0  1.747252949857095 -4.893133063268553 0  -1.148861113396783 4.908916811969471 0  -1.129715624877301 -4.916823997747136 0  -4.909274446316984 -1.147941130574238 0  -4.909093051641992 1.14774148761469 0  1.143854551287526 -4.913012213822172 0  1.148870763671813 4.908903798068883 0  4.909415151999367 1.146216707282073 0  4.920236512459956 -1.151997071632014 0  -0.5466791841553272 -4.910116023633038 0  -0.546460792244392 4.918792218502111 0  -4.908024202020887 -0.5487159041476333 0  -4.908048212985456 0.5472734355695498 0  4.907345133003147 -0.5490344553635426 0  4.918990777012494 0.5457907534296724 0  0.5424625775613816 -4.897006626485793 0  0.5511896839509988 4.915618069289374 0  -4.911930858302708 -3.04832563687284 0  4.918499300152075 3.046339708723563 0  4.911439041515887 -3.048301834436581 0  -4.912778447149575 3.045416938264666 0  3.055324668870044 -4.917424644572292 0  -3.048657336770124 -4.911363135059856 0  3.052224026111994 4.913440239938258 0  -3.048102768410532 4.912252603498899 0  -4.907138727522358 -0.04990848622152066 0  0.04512047718005246 -4.912066943355894 0  0.04956820132874337 4.919087639479454 0  4.914187794350664 -0.05129050967342327 0  3.545638172226074 -4.919056048035411 0  -3.548920301662629 4.91
[...]
<PointData  Vectors="f_3806"> 
<DataArray  type="Float64"  Name="f_3806"  NumberOfComponents="3" format="ascii">2.6559658580600224e-76 2.6559658580600224e-76 0.0000000000000000e+00  -2.8445085011138785e-76 2.8445085011138785e-76 0.0000000000000000e+00  -8.5659604779160777e-78 -8.5659604779160777e-78 0.0000000000000000e+00  3.0308186857311527e-76 -3.0308186857311527e-76 0.0000000000000000e+00  -2.3522649682330352e-01 -4.4916293447090213e-03 0.0000000000000000e+00  4.1658211049232470e-75 6.6063313191533914e-75 0.0000000000000000e+00  2.0824905826809177e-75 2.0879875949788914e-74 0.0000000000000000e+00  -3.4055565763410149e-75 6.7712958700898171e-75 0.0000000000000000e+00  3.9999151293106697e-72 6.6683287633928589e-72 0.0000000000000000e+00  5.3166111170767581e-71 1.3458525430959783e-70 0.0000000000000000e+00  -7.9189922539688730e-72 4.5551506332348351e-71 0.0000000000000000e+00  3.2339711489021989e-69 6.1627230868011234e-69 0.0000000000000000e+00  5.1607401444509631e-68 9.3995656727207856e-68 0.0000000000000000e+00  -3.0641521597517536e-68 1.4999971766646963e-67 0.0000000000000000e+00  1.2765934710299482e-67 3.9819086453944536e-67 0.0000000000000000e+00  1.2644741217657994e-68 8.7789893224896247e-67 0.0000000000000000e+00  5.4506663617706944e-64 8.8242163810775313e-64 0.0000000000000000e+00  4.7465979718262123e-65 2.4418548473628684e-63 0.0000000000000000e+00  1.3488459882500930e-62 2.1993600062900532e-62 0.0000000000000000e+00  8.0651211387772798e-63 8.3182786796958033e-62 0.0000000000000000e+00  6.9292882050593409e-61 1.1025065360786081e-60 0.0000000000000000e+00  4.0609593259327025e-60 7.0080365458532881e-60 0.0000000000000000e+00  -2.8459030966393074e-60 7.6980015914983260e-60 0.0000000000000000e+00  5.6599759985636947e-59 1.1370070620203756e-58 0.0000000000000000e+00  -1.7579883465330140e-59 1.1645702022791359e-58 0.0000000000000000e+00  -3.0017263538304340e-59 6.8371862595439205e-59 0.0000000000000000e+00  1.8012214110184610e-58 3.3050245206136172e-58 0.0000000000000000e+00  7.2944182216286911e-58 2.0897530573908161e-57 0.0000000000000000e+00  2.8585907577800088e-57 6.2342282225321684e-57 0.0000000000000000e+00  -3.4046554047573336e-57 5.7364458677959149e-57 0.0000000000000000e+00  -3.5195483356381015e-58 1.0976252895212992e-57 0.0000000000000000e+00  1.9069637432950485e-56 2.9328891144447840e-56 0.0000000000000000e+00  -1.4121877762621431e-56 3.5302051183585902e-56 0.0000000000000000e+00  1.1902279659547493e-56 2.8939965932306693e-56 0.0000000000000000e+00  8.7291665834356171e-56 2.0979677150910180e-55 0.0000000000000000e+00  -2.5065972903018191e-56 5.7433196713841147e-55 0.0000000000000000e+00  5.2045230227687748e-57 8.6147558608145753e-57 0.0000000000000000e+00  5.5383851551948524e-56 1.3819269536218062e-55 0.0000000000000000e+00  1.5471554464966799e-55 6.1701539281085251e-55 0.0000000000000000e+00  -2.2334461480680897e-55 3.5155215570353744e-55 0.0000000000000000e+00  9.8237735587056419e-55 1.7232672899378733e-54 0.0000000000000000e+00  -4.4137014763478570e-55 4.3613619477461633e-54 0.0000000000000000e+00  -2.2791498926478595e-55 2.6819641474666088e-54 0.0000000000000000e+00  -9.6037351539638171e-56 9.4394633553763006e-55 0.0000000000000000e+00  -1.1294844575958947e-55 1.8218708744070558e-55 0.0000000000000000e+00  2.7560118359672601e-54 5.2339680958701078e-54 0.0000000000000000e+00  -2.1567415364974148e-54 4.1386302711657576e-54 0.0000000000000000e+00  -7.1815294111452068e-55 8.0796532948969795e-55 0.0000000000000000e+00  -1.3184918594838431e-55 2.7129988301331853e-55 0.0000000000000000e+00  9.2892551145826232e-55 1.4452370158564723e-54 0.0000000000000000e+00  9.4410516447375486e-55 6.1545708208177993e-54 0.0000000000000000e+00  -1.1267909121967939e-54 5.8987987366877617e-54 0.0000000000000000e+00  5.1393043413789206e-55 4.6481087586496934e-54 0.0000000000000000e+00  1.9063591176116952e-56 5.7930007792429084e-54 0.0000000000000000e+00  3.0129312489797297e-55 6.1511611476575333e-54 0.0000000000000000e+00  -1.2597245461610752e-54 2.0441813681040002e-54 0.0000000000000000e+00  -6.4461761233202320e-55 1.4723456962891486e-53 0.0000000000000000e+00  4.4571033846949709e-54 7.4689157020846633e-54 0.0000000000000000e+00  -4.3409079451746932e-54 8.0961721081752678e-54 0.0000000000000000e+00  1.9191253174576731e-54 3.9567342422621605e-54 0.0000000000000000e+00  -7.3521010841910960e-55 9.4988632263849586e-54 0.0000000000000000e+00  1.3292642400182743e-54 9.3287222642414604e-54 0.0000000000000000e+00  -1.6826844142962554e-54 4.3965968683688309e-54 0.0000000000000000e+00  -9.2388881831309379e-55 2.4048468348624928e-54 0.0000000000000000e+00  3.3272917621421121e-55 1.2995832162292843e-54 0.0000000000000000e+00  2.6537093272926353e-55 2.5375858992077334e-54 0.0000000000000000e+00  -7.8261567380006440e-56 3.4898536694431731e-54 0.0000000000000000e+00  -7.1052924707069513e-55 1.4815678881262409e-54 0.0000000000000000e+00  2.3753874572711778e-55 4.4258679410260891e-55 0.0000000000000000e+00  -2.3074759678170818e-55 6.0235775100590197e-55 0.0000000000000000e+00  5.0285393673244374e-56 2.3980003511316312e-55 0.0000000000000000e+00  1.8646260574901943e-55 9.5240604047155173e-55 0.0000000000000000e+00  -3.3007965095775500e-55 5.3018464472039418e-55 0.0000000000000000e+00  -1.5895728469956147e-56 4.8219969577482396e-56 0.0000000000000000e+00  -1.1341841765064346e-57 1.1332848368892345e-56 0.0000000000000000e+00  6.7481475005795452e-57 2.3551657669084531e-56 0.0000000000000000e+00  -8.9861376545161598e-57 1.5018991706291120e-56 0.0000000000000000e+00  1.7405137299169069e-57 2.8873313727525800e-57 0.0000000000000000e+00  -1.2433603090917411e-57 2.7240761740170092e-57 0.0000000000000000e+00  5.1726159444892288e-57 7.8100310000570498e-57 0.0000000000000000e+00  -4.5299965444062654e-57 1.1249653554412901e-56 0.0000000000000000e+00  -1.8124778491984221e-58 9.3945461862596629e-58 0.0000000000000000e+00  -2.3904670206328784e-58 4.6518181130230870e-58 0.0000000000000000e+00  -7.8722571493425652e-61 8.8103156864879677e-59 0.0000000000000000e+00  -2.4441611289607957e-59 6.4221470041183626e-59 0.0000000000000000e+00  -7.1106238359710216e-60 2.4995572450503928e-59 0.0000000000000000e+00  -4.3820900330700172e-60 2.2385459451868265e-59 0.0000000000000000e+00  -3.0607687654792357e-60 7.1673620454493471e-60 0.0000000000000000e+00  -8.5176289227848002e-62 4.4350106485033628e-61 0.0000000000000000e+00  -1.0751484235602946e-61 2.2338650215677661e-61 0.0000000000000000e+00  -3.5850177149955904e-62 5.6738582900184531e-62 0.0000000000000000e+00  -3.9075853204960240e-64 6.6973557580340636e-64 0.0000000000000000e+00  -2.4298825875383213e-65 5.1705756028614301e-65 0.0000000000000000e+00  3.7060888442965903e-66 1.0386933495676032e-65 0.0000000000000000e+00  -4.8401200179639125e-66 9.2614511110224730e-66 0.0000000000000000e+00  -6.6968082722762700e-68 2.7710686256313171e-67 0.0000000000000000e+00  -7.8504924180178355e-68 1.2917611959467206e-67 0.0000000000000000e+00  -8.0583825767107423e-69 1.1732078090747446e-68 0.0000000000000000e+00  -5.6318701497886024e-70 9.5203210692171233e-70 0.0000000000000000e+00  -3.7786635922001057e-71 6.8186664222360549e-71 0.0000000000000000e+00  -1.8781354339327862e-72 3.2027255022942853e-72 0.0000000000000000e+00  -1.2176333701727667e-73 2.7267499794807686e-73 0.0000000000000000e+00  -4.4207856531240957e-75 1.2911626888065457e-74 0.0000000000000000e+00  -2.5480220950350069e-75 4.2412315209374363e-75 0.0000000000000000e+00  -9.7689684666924820e-76 3.5582556468018550e-76 0.0000000000000000e+00  -1.6211022275207055e-75 -2.3922261755742464e-76 0.0000000000000000e+00  -2.4489506729595009e-74 1.1590551393852770e-74 0.0000000000000000e+00  -3.6791438407054529e-74 1.5503081269656160e-75 0.0000000000000000e+00  -3.8831067923361122e-73 1.4334354204885072e-73 0.0000000000000000e+00  -1.0237736744040603e-71 6.2382514716006028e-72 0.0000000000000000e+00  -6.7408658154339453e-71 3.7083406010905872e-71 0.0000000000000000e+00  -1.0610400283429539e-70 3.9031732649216409e-72 0.0000000000000000e+00  -8.9005162273394090e-70 3.3090853830156789e-70 0.0000000000000000e+00  -2.1286188952420827e-68 1.2865572053336955e-68 0.0000000000000000e+00  -1.0237344063575420e-67 5.1107365927427710e-68 0.0000000000000000e+00  -1.0135668671498824e-67 -6.0268365510605956e-68 0.0000000000000000e+00  -3.1657364441087770e-66 1.7463102635795793e-66 0.0000000000000000e+00  -3.1851828808488648e-65 1.8320215344879630e-65 0.0000000000000000e+00  -5.3859019621665731e-65 5.0467436672292308e-66 0.0000000000000000e+00  -4.4365942481343473e-64 1.4467198281414703e-64 0.0000000000000000e+00  -6.9930593442007835e-63 4.3597317911614306e-63 0.0000000000000000e+00  -1.5064486467079183e-62 3.7491207347294851e-63 0.0000000000000000e+00  -8.4333707064154162e-62 1.9668027095196241e-62 0.0000000000000000e+00  -1.3549306983678962e-60 8.5193461533895738e-61 0.0000000000000000e+00  -2.4169079057984287e-60 3.3824297602605518e-61 0.0000000000000000e+00  -2.1169804312693167e-59 7.3985730418112587e-60 0.0000000000000000e+00  -2.4170895191511368e-58 1.4946481663399076e-58 0.0000000000000000e+00  -2.5875556932115944e-58 -9.4183138380770959e-59 0.0000000000000000e+00  -5.9782488379760767e-57 2.7816256780697133e-57 0.0000000000000000e+00  -2.4836223042498239e-56 1.2390292100989985e-56 0.0000000000000000e+00  -5.5632884649705470e-56 -8.6831006814703746e-57 0.0000000000000000e+00  -1.0113742747505705e-54 6.4783546631512575e-55 0.0000000000000000e+00  -1.1205427386062308e-54 -3.4628360999826430e-55 0.0000000000000000e+00  -2.4082092811280626e-53 1.2688328237530523e-53 0.0000000000000000e+00  -6.5938640246820514e-53 2.9875106714710165e-53 0.0000000000000000e+00  -4.3568378974957839e-52 1.2236819172137895e-52 0.0000000000000000e+00  -2.6663053884469964e-51 1.6618043688142640e-51 0.0000000000000000e+00  -7.6657969425032792e-51 -2.1395460272042867e-52 0.0000000000000000e+00  -7.1983595553682123e-50 4.5925831447833732e-50 0.0000000000000000e+00  -1.6171547448223803e-49 -1.4759361778881988e-50 0.0000000000000000e+00  -1.7299391224887924e-48 1.0088931011382477e-48 0.0000000000000000e+00  -4.3410957827308690e-48 -2.0367352107883958e-49 0.0000000000000000e+00  -2.0142284737059698e-47 1.1082257254651038e-47 0.0000000000000000e+00  -1.1028423948216957e-46 1.8930767841450629e-47 0.0000000000000000e+00  -1.0248573165088560e-46 2.4561189333317235e-47 0.0000000000000000e+00  -1.2409449860903519e-45 5.2442330229240544e-46 0.0000000000000000e+00  -8.7351543559623898e-46 -5.6684608103734591e-46 0.0000000000000000e+00  -1.3433972242405607e-44 8.0555482613934998e-45 0.0000000000000000e+00  -5.7965341828227361e-44 1.3711604270448304e-44 0.0000000000000000e+00  -3.6148725634928626e-44 -1.7478185663604340e-44 0.0000000000000000e+00  -1.1427395867982016e-43 6.4873550659770963e-44 0.0000000000000000e+00  -8.4137995685110631e-43 2.3112755946694106e-43 0.0000000000000000e+00  -1.9292154232247462e-42 1.9713599604760075e-43 0.0000000000000000e+00  -2.5118105725385315e-42 6.0916730107783998e-44 0.0000000000000000e+00  -2.0145911087538167e-42 -1.9438951685186274e-43 0.0000000000000000e+00  -8.6145105911123320e-43 -2.5004895941318703e-43 0.0000000000000000e+00  -1.1327019904020919e-43 -6.4336617086126455e-44 0.0000000000000000e+00  -3.8708129363791802e-44 1.8465145068324627e-44 0.0000000000000000e+00  -6.3172803726558315e-44 -1.0801181403169618e-44 0.0000000000000000e+00  -1.4993546499789567e-44 -7.8518765526975403e-45 0.0000000000000000e+00  -9.9854237020278750e-46 5.6610791081387520e-46 0.0000000000000000e+00  -1.4043239082656224e-45 -5.3761014940508369e-46 0.0000000000000000e+00  -1.1210320918125365e-46 -2.8499672419866372e-47 0.0000000000000000e+00  -1.0183192098585372e-46 -2.1383058447535523e-47 0.0000000000000000e+00  -1.8619520875026381e-47 -1.1950417296904428e-47 0.0000000000000000e+00  -4.0855203001883095e-48 2.0280305432480394e-49 0.0000000000000000e+00  -1.4876395102765408e-48 -9.3417688160885749e-49 0.0000000000000000e+00  -1.6329776567217835e-49 2.4503189016996059e-50 0.0000000000000000e+00  -7.4621025251323944e-50 -4.4121360764195607e-50 0.0000000000000000e+00  -8.2456660513594724e-51 6.3933228000756486e-52 0.0000000000000000e+00  -3.1472864635882881e-51 -1.7801846401748092e-51 0.0000000000000000e+00  -5.1040848459020055e-52 -1.1445455737849330e-52 0.0000000000000000e+00  -8.2096635246982218e-53 -3.5405327201913741e-53 0.0000000000000000e+00  -2.6632425717169353e-53 -1.3133819673070311e-53 0.0000000000000000e+00  -1.1968611313264607e-54 3.2338271739950595e-55 0.0000000000000000e+00  -1.0643887303610113e-54 -6.7939631051975550e-55 0.0000000000000000e+00  -5.1515386457376215e-56 8.3357963387023365e-57 0.0000000000000000e+00  -2.3378742174199961e-56 -1.3218424045083120e-56 0.0000000000000000e+00  -4.8262508889807443e-57 -2.5177586058470512e-57 0.0000000000000000e+00  -2.4578930513997197e-58 8.5342843067258766e-59 0.0000000000000000e+00  -2.1594921974513544e-58 -1.3268155833297632e-58 0.0000000000000000e+00  -1.9915886718537035e-59 -6.1389149772071028e-60 0.0000000000000000e+00  -2.3752087473670825e-60 -3.3919187048275013e-61 0.0000000000000000e+00  -1.2914720586174716e-60 -7.6002031039153073e-61 0.0000000000000000e+00  -7.6923704931939867e-62 -2.1417178801606197e-62 0.0000000000000000e+00  -1.3596001401042935e-62 -2.9275618091580822e-63 0.0000000000000000e+00  -6.6418608142443359e-63 -3.7850399693156345e-63 0.0000000000000000e+00  -4.7842421126854268e-64 -1.8182020263989795e-64 0.0000000000000000e+00  -4.3637988581276944e-65 9.5733734324353665e-67 0.0000000000000000e+00  -2.9491186493257601e-65 -1.6609656621360100e-65 0.0000000000000000e+00  -3.4142812389720865e-66 -1.9875270952669195e-66 0.0000000000000000e+00  -8.9925708990283481e-68 5.4775238909482539e-68 0.0000000000000000e+00  -8.6385002576073688e-68 -4.1754659561776797e-68 0.0000000000000000e+00  -2.0687180590558473e-68 -1.2844212845437776e-68 0.0000000000000000e+00  -1.1328221464084922e-69 -5.1317407201188106e-70 0.0000000000000000e+00  -8.7939411037274414e-71 1.3784514170195000e-71 0.0000000000000000e+00  -6.9092474215038283e-71 -3.6561291459903553e-71 0.0000000000000000e+00  -1.2480926904658203e-71 -7.6604622843365283e-72 0.0000000000000000e+00  -5.9824482347355250e-73 -2.7506010034258505e-73 0.0000000000000000e+00  -3.9236224938354850e-74 7.4222874770309978e-75 0.0000000000000000e+00  -3.1567240007160701e-74 -1.4788522874835211e-74 0.0000000000000000e+00  -6.5908730981254298e-75 -3.3568646369878165e-75 0.0000000000000000e+00  -7.1799666095651671e-76 -3.1070939135705281e-76 0.0000000000000000e+00  -8.5516771290503526e-76 -1.6228690298713229e-75 0.0000000000000000e+00  -4.7733873819866048e-75 -1.3946066943538884e-74 0.0000000000000000e+00  4.3664752660781681e-75 -8.3083145147043748e-75 0.0000000000000000e+00  -1.6292059342074329e-73 -3.4274121410748808e-73 0.0000000000000000e+00  -9.2838459269906929e-71 -1.0070989810714182e-70 0.0000000000000000e+00  -7.5049943464000900e-70 -1.3178554145763172e-69 0.0000000000000000e+00  -1.0981948138183622e-69 -3.6514704864898449e-69 0.0000000000000000e+00  -7.7591043985749875e-68 -1.7115902679922219e-67 0.0000000000000000e+00  -6.5291619115753747e-68 -3.2601185099854699e-67 0.0000000000000000e+00  -6.7877734625365674e-66 -1.3502459309538946e-65 0.0000000000000000e+00  -4.5182278799458839e-66 -2.1317693622016988e-65 0.0000000000000000e+00  -9.0661352495198354e-65 -1.5578473053986998e-64 0.0000000000000000e+00  1.7212614062568117e-65 -2.1035059059200461e-64 0.0000000000000000e+00  -4.2738862603049926e-62 -6.4039160667284628e-62 0.0000000000000000e+00  -6.9953827114380948e-62 -1.7209594212925014e-61 0.0000000000000000e+00  -2.3248656880488832e-62 -2.7287214718914582e-61 0.0000000000000000e+00  -5.7374806485860753e-60 -1.1364708891323806e-59 0.0000000000000000e+00  4.7652241436316108e-60 -1.5018447905345848e-59 0.0000000000000000e+00  -2.8994242625656791e-59 -4.7500310365616547e-59 0.0000000000000000e+00  8.8166020444803248e-60 -6.0857783716182133e-59 0.0000000000000000e+00  2.3241846300423751e-59 -3.9710040059607134e-59 0.0000000000000000e+00  -5.6349541552372993e-58 -8.9496899611505405e-58 0.0000000000000000e+00  -1.3794946035018275e-59 -1.2602439324620894e-57 0.0000000000000000e+00  -4.6313552912896878e-57 -1.1639480212121519e-56 0.0000000000000000e+00  5.7461933215654171e-57 -8.6720177780064190e-57 0.0000000000000000e+00  -5.3309506736167820e-57 -7.3401584512711077e-57 0.0000000000000000e+00  -1.7661508920806809e-56 -3.7740881557762929e-56 0.0000000000000000e+00  2.1606110667071915e-56 -4.0703660317335353e-56 0.0000000000000000e+00  -4.9998343692906384e-57 -9.2025831979401401e-57 0.0000000000000000e+00  -8.1138955324467044e-56 -2.0313278478751892e-55 0.0000000000000000e+00  6.3695451128213295e-56 -5.0767448208831340e-55 0.0000000000000000e+00  -4.2874350893980506e-55 -7.2594721069773106e-55 0.0000000000000000e+00  -4.8793303506413126e-56 -1.8357672342701896e-54 0.0000000000000000e+00  1.6594360632336067e-55 -5.7391855050154400e-55 0.0000000000000000e+00  -5.1798712642661138e-55 -1.6761537268181582e-54 0.0000000000000000e+00  -2.2526213018924465e-54 -7.0725751888350569e-54 0.0000000000000000e+00  2.5809584254288936e-54 -6.0758783469987523e-54 0.0000000000000000e+00  -6.7171964777047267e-55 -2.3899506408389581e-54 0.0000000000000000e+00  5.3222859140964413e-55 -2.8189515927975634e-54 0.0000000000000000e+00  1.2815945298740385e-55 -1.4247711330763484e-54 0.0000000000000000e+00  -2.1792325239018840e-54 -3.4672757964772792e-54 0.0000000000000000e+00  5.7091204888540678e-55 -8.2269859359366614e-54 0.0000000000000000e+00  -3.9287225381585715e-54 -1.3558823797320385e-53 0.0000000000000000e+00  4.6901176543634811e-54 -7.7137281034350210e-54 0.0000000000000000e+00  2.0307252939280300e-55 -6.5057765942647095e-55 0.0000000000000000e+00  -4.7990724353980689e-54 -8.0096270220029797e-54 0.0000000000000000e+00  4.8248546163093518e-54 -7.8692180500567172e-54 0.0000000000000000e+00  -1.6612037584150264e-56 -1.3350005823291799e-55 0.0000000000000000e+00  1.1148645873451361e-56 -2.7680722326197309e-55 0.0000000000000000e+00  2.2059983241369064e-56 -9.8796681092066633e-56 0.0000000000000000e+00  -5.2024820177503658e-54 -9.3536151365709879e-54 0.0000000000000000e+00  5.5489421891284104e-54 -9.4082938619075190e-54 0.0000000000000000e+00  5.6731451585563056e-56 -1.0519346555956678e-55 0.0000000000000000e+00  -1.4324980094100842e-56 -6.2046290457108962e-56 0.0000000000000000e+00  -4.9978375343583817e-55 -9.0457147703293304e-55 0.0000000000000000e+00  -5.8131503095910372e-54 -1.0044756257756537e-53 0.0000000000000000e+00  4.5025880684249356e-54 -1.0492832168848926e-53 0.0000000000000000e+00  -3.0517803736250380e-54 -7.9845842232756198e-54 0.0000000000000000e+00  2.4383683882212484e-54 -8.5505576606808921e-54 0.0000000000000000e+00  2.2459859239593209e-54 -3.3069133895583827e-54 0.0000000000000000e+00  -5.4359695768414015e-55 -1.4796708521092760e-54 0.0000000000000000e+00  8.3554725345384732e-55 -1.5741543415196271e-54 0.0000000000000000e+00  -4.9226636179886819e-55 -9.8306418957063060e-55 0.0000000000000000e+00  5.1242368239733950e-55 -8.8570734379171776e-55 0.0000000000000000e+00  -1.5663664431547534e-56 -2.6914256453780878e-56 0.0000000000000000e+00  -4.4759843406766171e-56 -1.7216470601388149e-55 0.0000000000000000e+00  4.1719009322680701e-56 -1.7469710384092143e-55 0.0000000000000000e+00  4.8019494288836093e-57 -6.9032615212519477e-56 0.0000000000000000e+00  -2.7480894715590577e-56 -6.5415278410335284e-56 0.0000000000000000e+00  3.2872800622688275e-56 -6.4151002344061177e-56 0.0000000000000000e+00  -2.8580476505789391e-57 -2.8732303398142739e-56 0.0000000000000000e+00  1.2957184601669578e-56 -3.0025830810314740e-56 0.0000000000000000e+00  1.0021837926406622e-57 -2.3994839254793398e-57 0.0000000000000000e+00  -4.3814489180574130e-57 -7.6373269026220961e-57 0.0000000000000000e+00  4.2487869723629689e-57 -1.1008576689824973e-56 0.0000000000000000e+00  3.1237333714654193e-58 -1.0214191078657959e-57 0.0000000000000000e+00  1.4375790970987637e-58 -5.0266