<?xml version="1.0"?>
<VTKFile type="UnstructuredGrid"  version="0.1"  >
<UnstructuredGrid>
<Piece  NumberOfPoints="11902" NumberOfCells="23402">
<Points>
<DataArray  type="Float64"  NumberOfComponents="3"  format="ascii">-5 -5 0  5 -5 0  5 5 0  -5 5 0  1.264238952531494 0.001268289834125641 0  -4.9 -5 0  -4.8 -5 0  -4.7 -5 0  -4.6 -5 0  -4.5 -5 0  -4.4 -5 0  -4.3 -5 0  -4.2 -5 0  -4.1 -5 0  -4 -5 0  -3.9 -5 0  -3.8 -5 0  -3.7 -5 0  -3.6 -5 0  -3.5 -5 0  -3.4 -5 0  -3.3 -5 0  -3.2 -5 0  -3.1 -5 0  -3 -5 0  -2.9 -5 0  -2.8 -5 0  -2.7 -5 0  -2.6 -5 0  -2.5 -5 0  -2.4 -5 0  -2.3 -5 0  -2.2 -5 0  -2.1 -5 0  -2 -5 0  -1.9 -5 0  -1.8 -5 0  -1.7 -5 0  -1.6 -5 0  -1.5 -5 0  -1.4 -5 0  -1.3 -5 0  -1.2 -5 0  -1.1 -5 0  -1 -5 0  -0.9000000000000004 -5 0  -0.7999999999999998 -5 0  -0.7000000000000002 -5 0  -0.5999999999999996 -5 0  -0.5 -5 0  -0.4000000000000004 -5 0  -0.2999999999999998 -5 0  -0.2000000000000002 -5 0  -0.09999999999999964 -5 0  0 -5 0  0.09999999999999964 -5 0  0.2000000000000002 -5 0  0.2999999999999998 -5 0  0.4000000000000004 -5 0  0.5 -5 0  0.5999999999999996 -5 0  0.7000000000000002 -5 0  0.7999999999999998 -5 0  0.9000000000000004 -5 0  1 -5 0  1.1 -5 0  1.2 -5 0  1.3 -5 0  1.4 -5 0  1.5 -5 0  1.6 -5 0  1.7 -5 0  1.8 -5 0  1.9 -5 0  2 -5 0  2.1 -5 0  2.2 -5 0  2.3 -5 0  2.4 -5 0  2.5 -5 0  2.6 -5 0  2.7 -5 0  2.8 -5 0  2.9 -5 0  3 -5 0  3.1 -5 0  3.199999999999999 -5 0  3.300000000000001 -5 0  3.4 -5 0  3.5 -5 0  3.6 -5 0  3.699999999999999 -5 0  3.800000000000001 -5 0  3.9 -5 0  4 -5 0  4.1 -5 0  4.199999999999999 -5 0  4.300000000000001 -5 0  4.4 -5 0  4.5 -5 0  4.6 -5 0  4.699999999999999 -5 0  4.800000000000001 -5 0  4.9 -5 0  5 -4.9 0  5 -4.8 0  5 -4.7 0  5 -4.6 0  5 -4.5 0  5 -4.4 0  5 -4.3 0  5 -4.2 0  5 -4.1 0  5 -4 0  5 -3.9 0  5 -3.8 0  5 -3.7 0  5 -3.6 0  5 -3.5 0  5 -3.4 0  5 -3.3 0  5 -3.2 0  5 -3.1 0  5 -3 0  5 -2.9 0  5 -2.8 0  5 -2.7 0  5 -2.6 0  5 -2.5 0  5 -2.4 0  5 -2.3 0  5 -2.2 0  5 -2.1 0  5 -2 0  5 -1.9 0  5 -1.8 0  5 -1.7 0  5 -1.6 0  5 -1.5 0  5 -1.4 0  5 -1.3 0  5 -1.2 0  5 -1.1 0  5 -1 0  5 -0.9000000000000004 0  5 -0.7999999999999998 0  5 -0.7000000000000002 0  5 -0.5999999999999996 0  5 -0.5 0  5 -0.4000000000000004 0  5 -0.2999999999999998 0  5 -0.2000000000000002 0  5 -0.09999999999999964 0  5 0 0  5 0.09999999999999964 0  5 0.2000000000000002 0  5 0.2999999999999998 0  5 0.4000000000000004 0  5 0.5 0  5 0.5999999999999996 0  5 0.7000000000000002 0  5 0.7999999999999998 0  5 0.9000000000000004 0  5 1 0  5 1.1 0  5 1.2 0  5 1.3 0  5 1.4 0  5 1.5 0  5 1.6 0  5 1.7 0  5 1.8 0  5 1.9 0  5 2 0  5 2.1 0  5 2.2 0  5 2.3 0  5 2.4 0  5 2.5 0  5 2.6 0  5 2.7 0  5 2.8 0  5 2.9 0  5 3 0  5 3.1 0  5 3.199999999999999 0  5 3.300000000000001 0  5 3.4 0  5 3.5 0  5 3.6 0  5 3.699999999999999 0  5 3.800000000000001 0  5 3.9 0  5 4 0  5 4.1 0  5 4.199999999999999 0  5 4.300000000000001 0  5 4.4 0  5 4.5 0  5 4.6 0  5 4.699999999999999 0  5 4.800000000000001 0  5 4.9 0  4.9 5 0  4.8 5 0  4.7 5 0  4.6 5 0  4.5 5 0  4.4 5 0  4.3 5 0  4.2 5 0  4.1 5 0  4 5 0  3.9 5 0  3.8 5 0  3.7 5 0  3.6 5 0  3.5 5 0  3.4 5 0  3.3 5 0  3.2 5 0  3.1 5 0  3 5 0  2.9 5 0  2.8 5 0  2.7 5 0  2.6 5 0  2.5 5 0  2.4 5 0  2.3 5 0  2.2 5 0  2.1 5 0  2 5 0  1.9 5 0  1.8 5 0  1.7 5 0  1.6 5 0  1.5 5 0  1.4 5 0  1.3 5 0  1.2 5 0  1.1 5 0  1 5 0  0.9000000000000004 5 0  0.7999999999999998 5 0  0.7000000000000002 5 0  0.5999999999999996 5 0  0.5 5 0  0.4000000000000004 5 0  0.2999999999999998 5 0  0.2000000000000002 5 0  0.09999999999999964 5 0  0 5 0  -0.09999999999999964 5 0  -0.2000000000000002 5 0  -0.2999999999999998 5 0  -0.4000000000000004 5 0  -0.5 5 0  -0.5999999999999996 5 0  -0.7000000000000002 5 0  -0.7999999999999998 5 0  -0.9000000000000004 5 0  -1 5 0  -1.1 5 0  -1.2 5 0  -1.3 5 0  -1.4 5 0  -1.5 5 0  -1.6 5 0  -1.7 5 0  -1.8 5 0  -1.9 5 0  -2 5 0  -2.1 5 0  -2.2 5 0  -2.3 5 0  -2.4 5 0  -2.5 5 0  -2.6 5 0  -2.7 5 0  -2.8 5 0  -2.9 5 0  -3 5 0  -3.1 5 0  -3.199999999999999 5 0  -3.300000000000001 5 0  -3.4 5 0  -3.5 5 0  -3.6 5 0  -3.699999999999999 5 0  -3.800000000000001 5 0  -3.9 5 0  -4 5 0  -4.1 5 0  -4.199999999999999 5 0  -4.300000000000001 5 0  -4.4 5 0  -4.5 5 0  -4.6 5 0  -4.699999999999999 5 0  -4.800000000000001 5 0  -4.9 5 0  -5 4.9 0  -5 4.8 0  -5 4.7 0  -5 4.6 0  -5 4.5 0  -5 4.4 0  -5 4.3 0  -5 4.2 0  -5 4.1 0  -5 4 0  -5 3.9 0  -5 3.8 0  -5 3.7 0  -5 3.6 0  -5 3.5 0  -5 3.4 0  -5 3.3 0  -5 3.2 0  -5 3.1 0  -5 3 0  -5 2.9 0  -5 2.8 0  -5 2.7 0  -5 2.6 0  -5 2.5 0  -5 2.4 0  -5 2.3 0  -5 2.2 0  -5 2.1 0  -5 2 0  -5 1.9 0  -5 1.8 0  -5 1.7 0  -5 1.6 0  -5 1.5 0  -5 1.4 0  -5 1.3 0  -5 1.2 0  -5 1.1 0  -5 1 0  -5 0.9000000000000004 0  -5 0.7999999999999998 0  -5 0.7000000000000002 0  -5 0.5999999999999996 0  -5 0.5 0  -5 0.4000000000000004 0  -5 0.2999999999999998 0  -5 0.2000000000000002 0  -5 0.09999999999999964 0  -5 0 0  -5 -0.09999999999999964 0  -5 -0.2000000000000002 0  -5 -0.2999999999999998 0  -5 -0.4000000000000004 0  -5 -0.5 0  -5 -0.5999999999999996 0  -5 -0.7000000000000002 0  -5 -0.7999999999999998 0  -5 -0.9000000000000004 0  -5 -1 0  -5 -1.1 0  -5 -1.2 0  -5 -1.3 0  -5 -1.4 0  -5 -1.5 0  -5 -1.6 0  -5 -1.7 0  -5 -1.8 0  -5 -1.9 0  -5 -2 0  -5 -2.1 0  -5 -2.2 0  -5 -2.3 0  -5 -2.4 0  -5 -2.5 0  -5 -2.6 0  -5 -2.7 0  -5 -2.8 0  -5 -2.9 0  -5 -3 0  -5 -3.1 0  -5 -3.199999999999999 0  -5 -3.300000000000001 0  -5 -3.4 0  -5 -3.5 0  -5 -3.6 0  -5 -3.699999999999999 0  -5 -3.800000000000001 0  -5 -3.9 0  -5 -4 0  -5 -4.1 0  -5 -4.199999999999999 0  -5 -4.300000000000001 0  -5 -4.4 0  -5 -4.5 0  -5 -4.6 0  -5 -4.699999999999999 0  -5 -4.800000000000001 0  -5 -4.9 0  1.256107315289402 0.09335649891625548 0  1.23396322338133 0.1911833854513106 0  1.200246416505505 0.2878868750284498 0  1.157513569856896 0.3762437955427331 0  1.098928404773511 0.4673420541630757 0  1.032443783954256 0.5509141052576993 0  0.9538004142238967 0.6313503986031676 0  0.8665063437628439 0.7062935624132268 0  0.7746674863644746 0.771570804423107 0  0.6726471310732091 0.8290119274249225 0  0.5594174161102056 0.8812463193046879 0  0.4460223337334145 0.9261947781582359 0  0.3350009385918882 0.9578696492642145 0  0.2087940649078472 0.9801584114313521 0  0.08781996068900827 0.9987933544476817 0  -0.02640833599987463 1.002293491746254 0  -0.1440833718517678 0.9885722708671828 0  -0.2736711592789701 0.9688338744795121 0  -0.3936920268067608 0.9446888428784571 0  -0.503381426725212 0.9094084897205533 0  -0.613013608043565 0.8629701792398358 0  -0.7150077279572005 0.8079177485896674 0  -0.8095285955822966 0.7433508802928555 0  -0.9011368031662025 0.6695385743973592 0  -0.9876851064860561 0.5892489460783724 0  -1.062643358861587 0.5076597396822917 0  -1.124759671946413 0.42317146820809 0  -1.179692759907081 0.3295998152078323 0  -1.217176590157575 0.2424660197961875 0  -1.241555601325421 0.1486610250190783 0  -1.251910326809003 0.05249238018333782 0  -1.251864747035268 -0.05018324224372285 0  -1.241466468717505 -0.1456274926384674 0  -1.216798240556531 -0.236644844563603 0  -1.174638716543256 -0.3318229393448144 0  -1.125060627983869 -0.4241647871865763 0  -1.064694982741688 -0.5075352764611707 0  -0.9902322846296753 -0.5882700369921541 0  -0.9042961264290628 -0.6675134827047312 0  -0.8135292998874298 -0.7389735796523349 0  -0.7181258004018721 -0.7996821032990812 0  -0.6134371544666447 -0.8530010376733645 0  -0.4978016952990358 -0.9027241293580309 0  -0.3853050902499327 -0.9426526274822085 0  -0.2703369600643868 -0.9686815267085814 0  -0.1423835277997712 -0.9886043358789648 0  -0.02755484035146913 -1.001536240518449 0  0.08637926442323546 -0.9941227261110359 0  0.2152271701028873 -0.9761395348046508 0  0.3379004803901033 -0.956080077319821 0  0.4502253666238926 -0.9248706467789474 0  0.5621167734109256 -0.8804772523514429 0  0.6738954683737137 -0.8288773122962571 0  0.7744873518050659 -0.7727549542663655 0  0.8658929456004746 -0.7078182370694457 0  0.951782245061141 -0.6319664456948749 0  1.029997908419287 -0.5495785534634255 0  1.10045558155906 -0.4657679869491648 0  1.158349960770989 -0.376600706927283 0  1.202049099933051 -0.2859633830308942 0  1.23469290269157 -0.1905095823707198 0  1.256522863816911 -0.09340508408996391 0  -2.4485250651301 4.918049387270099 0  -2.448395731734613 -4.91042165232043 0  4.910343471670351 2.447842369453136 0  4.918477028262338 -2.449308872891494 0  2.446119116220465 -4.895640694563885 0  2.440554001845815 4.899406039382027 0  -4.910370808088881 -2.447869350209216 0  -4.910368106336709 2.447873484614194 0  -1.74847768519686 4.910908148749773 0  -1.744265621616692 -4.914353255252091 0  4.920499826187292 1.744022168680642 0  4.909014623668921 -1.747776607598063 0  -4.909309635146953 -1.747511415129917 0  -4.910133227025487 1.747257100974174 0  1.745747693526387 4.904756436487652 0  1.747156041048464 -4.892886878286448 0  -1.148796297660798 4.908668440094943 0  -1.129656883223248 -4.91659659459897 0  -4.908991945546244 -1.147849559850983 0  -4.908809878005162 1.14765029227366 0  1.143793572703981 -4.9127744339173 0  1.148805960611963 4.908654581873394 0  4.909131033724657 1.146124336259344 0  4.919986901868191 -1.151915776848892 0  -0.5466450165282702 -4.909844969195721 0  -0.5464304212340918 4.918546870899569 0  -4.90769611512273 -0.5486649458042949 0  -4.907720093238615 0.5472232602640684 0  4.907012330046439 -0.5489829331942072 0  4.918699654225705 0.5457456474749407 0  0.5424252086843415 -4.896695389863568 0  0.5511578945941524 4.915362859744249 0  -4.911824731727668 -3.048236587930957 0  4.918400499457176 3.04625641622955 0  4.91133200039417 -3.048211560685364 0  -4.912673049324343 3.045328789068277 0  3.05525534325696 -4.917322107617088 0  -3.048582627820408 -4.911253310366794 0  3.052151007920559 4.913332361978103 0  -3.048028763776805 4.912143831339226 0  -4.906793613457689 -0.0499033021604433 0  0.0451183815729714 -4.91179357307182 0  0.04956538988941026 4.918835612028728 0  4.913866625045017 -0.05128602525983569 0  3.545583467651948 -4.918984543660296 0  -3.548860843986085 4.91188
[...]
<PointData  Vectors="f_6094"> 
<DataArray  type="Float64"  Name="f_6094"  NumberOfComponents="3" format="ascii">2.6559658580600303e-76 2.6559658580600303e-76 0.0000000000000000e+00  -2.8445085011138821e-76 2.8445085011138821e-76 0.0000000000000000e+00  -8.5659604779174383e-78 -8.5659604779174383e-78 0.0000000000000000e+00  3.0308186857311747e-76 -3.0308186857311747e-76 0.0000000000000000e+00  7.8721362115379379e-01 8.3127587448861805e-03 0.0000000000000000e+00  4.1660328729357100e-75 6.6061406770585371e-75 0.0000000000000000e+00  2.0822821984237767e-75 2.0880060406520003e-74 0.0000000000000000e+00  -3.4061728633603615e-75 6.7718467142588372e-75 0.0000000000000000e+00  4.0006939629060833e-72 6.6676332187853163e-72 0.0000000000000000e+00  5.3177252743041904e-71 1.3457524995105071e-70 0.0000000000000000e+00  -7.9217810238477596e-72 4.5553946575444477e-71 0.0000000000000000e+00  3.2351830357679286e-69 6.1616662894558054e-69 0.0000000000000000e+00  5.1630222781778900e-68 9.3976001392129065e-68 0.0000000000000000e+00  -3.0660536882737117e-68 1.5001553326919763e-67 0.0000000000000000e+00  1.2772570080352414e-67 3.9813453223296522e-67 0.0000000000000000e+00  1.2625410453478446e-68 8.7791115020677897e-67 0.0000000000000000e+00  5.4543579936565720e-64 8.8212026053245324e-64 0.0000000000000000e+00  4.7431740102001648e-65 2.4418694750852383e-63 0.0000000000000000e+00  1.3499504409398702e-62 2.1984938261029750e-62 0.0000000000000000e+00  8.0699200209731343e-63 8.3178569693879072e-62 0.0000000000000000e+00  6.9359100388489087e-61 1.1020089126110363e-60 0.0000000000000000e+00  4.0651728622296521e-60 7.0049557530026126e-60 0.0000000000000000e+00  -2.8491181185226772e-60 7.7002774145027757e-60 0.0000000000000000e+00  5.6664645792169381e-59 1.1365500648309586e-58 0.0000000000000000e+00  -1.7602567028027703e-59 1.1647214395187927e-58 0.0000000000000000e+00  -3.0058374431719438e-59 6.8398432276369380e-59 0.0000000000000000e+00  1.8037679276617018e-58 3.3034080001454141e-58 0.0000000000000000e+00  7.3047758706568827e-58 2.0890953602030798e-57 0.0000000000000000e+00  2.8630996879909975e-57 6.2315581662357353e-57 0.0000000000000000e+00  -3.4104027846977558e-57 5.7396819050409592e-57 0.0000000000000000e+00  -3.5257717844014848e-58 1.0979625980018617e-57 0.0000000000000000e+00  1.9104204299716451e-56 2.9310560695396517e-56 0.0000000000000000e+00  -1.4149885724766260e-56 3.5315628363516522e-56 0.0000000000000000e+00  1.1925516415850773e-56 2.8928506972937583e-56 0.0000000000000000e+00  8.7467118495440598e-56 2.0971284623544199e-55 0.0000000000000000e+00  -2.5148140303520188e-56 5.7435037278320470e-55 0.0000000000000000e+00  5.2161517398281412e-57 8.6099252125752618e-57 0.0000000000000000e+00  5.5508995122540202e-56 1.3814150708508957e-55 0.0000000000000000e+00  1.5506825959306943e-55 6.1687240572382077e-55 0.0000000000000000e+00  -2.2390509651970999e-55 3.5173936508536257e-55 0.0000000000000000e+00  9.8484643371277355e-55 1.7224449918547652e-54 0.0000000000000000e+00  -4.4268979376719164e-55 4.3616106940690829e-54 0.0000000000000000e+00  -2.2860438124523573e-55 2.6820778921138795e-54 0.0000000000000000e+00  -9.6319636326005987e-56 9.4399818951373126e-55 0.0000000000000000e+00  -1.1326807949189189e-55 1.8225766148694422e-55 0.0000000000000000e+00  2.7638159594483305e-54 5.2322499535873619e-54 0.0000000000000000e+00  -2.1630262027056318e-54 4.1397806824245661e-54 0.0000000000000000e+00  -7.2027699644837441e-55 8.0830905295683742e-55 0.0000000000000000e+00  -1.3224782702305534e-55 2.7134818974779441e-55 0.0000000000000000e+00  9.3172922904807673e-55 1.4448891168082585e-54 0.0000000000000000e+00  9.4692442270537464e-55 6.1541210730847869e-54 0.0000000000000000e+00  -1.1303108403816507e-54 5.8988620069857973e-54 0.0000000000000000e+00  5.1549425772021945e-55 4.6478866521280255e-54 0.0000000000000000e+00  1.9105310154957995e-56 5.7928150165911487e-54 0.0000000000000000e+00  3.0222844534811902e-55 6.1509693169131456e-54 0.0000000000000000e+00  -1.2636357492901378e-54 2.0440841267788961e-54 0.0000000000000000e+00  -6.4650003400611348e-55 1.4722638015554429e-53 0.0000000000000000e+00  4.4708483024552907e-54 7.4697802361252501e-54 0.0000000000000000e+00  -4.3541710702833300e-54 8.0949418044677703e-54 0.0000000000000000e+00  1.9249563536450088e-54 3.9573579060451301e-54 0.0000000000000000e+00  -7.3724539372300086e-55 9.4982662732425847e-54 0.0000000000000000e+00  1.3333774806259511e-54 9.3290772415721859e-54 0.0000000000000000e+00  -1.6875887233985150e-54 4.3957108588166097e-54 0.0000000000000000e+00  -9.2649119832863930e-55 2.4042600043090597e-54 0.0000000000000000e+00  3.3369800885234952e-55 1.2997637834909370e-54 0.0000000000000000e+00  2.6616888667575165e-55 2.5377135712933223e-54 0.0000000000000000e+00  -7.8369453484671131e-56 3.4897239716023256e-54 0.0000000000000000e+00  -7.1237139313188995e-55 1.4810055483280751e-54 0.0000000000000000e+00  2.3815442660044105e-55 4.4277476843648432e-55 0.0000000000000000e+00  -2.3130700883190772e-55 6.0215713897530817e-55 0.0000000000000000e+00  5.0414046742880831e-56 2.3984115739114983e-55 0.0000000000000000e+00  1.8693196580980819e-55 9.5256284518431812e-55 0.0000000000000000e+00  -3.3081867792222905e-55 5.2988037935615031e-55 0.0000000000000000e+00  -1.5928927087381730e-56 4.8204875103360485e-56 0.0000000000000000e+00  -1.1361695647738747e-57 1.1331725797107899e-56 0.0000000000000000e+00  6.7625820090526285e-57 2.3558033546102123e-56 0.0000000000000000e+00  -9.0031502972947606e-57 1.5010377105998524e-56 0.0000000000000000e+00  1.7438067246860887e-57 2.8889997801633021e-57 0.0000000000000000e+00  -1.2455470529563708e-57 2.7228914001656807e-57 0.0000000000000000e+00  5.1814600464465320e-57 7.8149371487158333e-57 0.0000000000000000e+00  -4.5369004331478725e-57 1.1245482458194795e-56 0.0000000000000000e+00  -1.8152340372524280e-58 9.3928817387335190e-58 0.0000000000000000e+00  -2.3938739611572663e-58 4.6496763159485346e-58 0.0000000000000000e+00  -7.8829458404705821e-61 8.8102466382227269e-59 0.0000000000000000e+00  -2.4472801893427014e-59 6.4200664332358913e-59 0.0000000000000000e+00  -7.1191425925983699e-60 2.4989720646474039e-59 0.0000000000000000e+00  -4.3863380566458217e-60 2.2382266448179810e-59 0.0000000000000000e+00  -3.0638143149299837e-60 7.1651118244582301e-60 0.0000000000000000e+00  -8.5260065638608935e-62 4.4343902731675786e-61 0.0000000000000000e+00  -1.0761204150594543e-61 2.2331264733002729e-61 0.0000000000000000e+00  -3.5879017413847790e-62 5.6715973098498681e-62 0.0000000000000000e+00  -3.9105508775946099e-64 6.6950022560565040e-64 0.0000000000000000e+00  -2.4315083076791875e-65 5.1692526410345529e-65 0.0000000000000000e+00  3.7087221218970821e-66 1.0389055047687386e-65 0.0000000000000000e+00  -4.8427328474618122e-66 9.2592563860651234e-66 0.0000000000000000e+00  -6.7002779875020887e-68 2.7707761049836387e-67 0.0000000000000000e+00  -7.8539956033703605e-68 1.2914614406127822e-67 0.0000000000000000e+00  -8.0614685138222701e-69 1.1729406736038042e-68 0.0000000000000000e+00  -5.6337013079309547e-70 9.5187217330611725e-70 0.0000000000000000e+00  -3.7796630659745433e-71 6.8177863355508630e-71 0.0000000000000000e+00  -1.8785257602046659e-72 3.2023796522527139e-72 0.0000000000000000e+00  -1.2177831431890641e-73 2.7266161884487651e-73 0.0000000000000000e+00  -4.4212627386408644e-75 1.2911201079133932e-74 0.0000000000000000e+00  -2.5481547618267203e-75 4.2411128468975222e-75 0.0000000000000000e+00  -9.7687438800710072e-76 3.5584568214574378e-76 0.0000000000000000e+00  -1.6211586492183727e-75 -2.3927345478087891e-76 0.0000000000000000e+00  -2.4487802993973810e-74 1.1592083884178841e-74 0.0000000000000000e+00  -3.6791097266664075e-74 1.5506170429895796e-75 0.0000000000000000e+00  -3.8827837824770183e-73 1.4337273535247300e-73 0.0000000000000000e+00  -1.0235768279209789e-71 6.2400553544209941e-72 0.0000000000000000e+00  -6.7394623714716727e-71 3.7096405937570342e-71 0.0000000000000000e+00  -1.0610226541005862e-70 3.9048044540514156e-72 0.0000000000000000e+00  -8.8990478422317663e-70 3.3104598379754383e-70 0.0000000000000000e+00  -2.1279300466177255e-68 1.2872180105194173e-68 0.0000000000000000e+00  -1.0234290792078703e-67 5.1137180510187975e-68 0.0000000000000000e+00  -1.0139734848903728e-67 -6.0309071057665109e-68 0.0000000000000000e+00  -3.1645441609278073e-66 1.7475065531245346e-66 0.0000000000000000e+00  -3.1838100908614949e-65 1.8334347370474531e-65 0.0000000000000000e+00  -5.3854924021746312e-65 5.0510727989129660e-66 0.0000000000000000e+00  -4.4354283457284314e-64 1.4479446638781630e-64 0.0000000000000000e+00  -6.9891638080907333e-63 4.3640147592928730e-63 0.0000000000000000e+00  -1.5060924591977203e-62 3.7531634929044350e-63 0.0000000000000000e+00  -8.4315564704585155e-62 1.9688102911427803e-62 0.0000000000000000e+00  -1.3540571832001143e-60 8.5297521606558001e-61 0.0000000000000000e+00  -2.4165436889647634e-60 3.3869457359278370e-61 0.0000000000000000e+00  -2.1161849707821933e-59 7.4083774402710078e-60 0.0000000000000000e+00  -2.4153904438103848e-58 1.4968749592349843e-58 0.0000000000000000e+00  -2.5886660960157746e-58 -9.4336221508460296e-59 0.0000000000000000e+00  -5.9749506423817744e-57 2.7862049611921277e-57 0.0000000000000000e+00  -2.4821107990756003e-56 1.2412537593364703e-56 0.0000000000000000e+00  -5.5644018768645361e-56 -8.7022700471225083e-57 0.0000000000000000e+00  -1.0105649586161335e-54 6.4911844710525043e-55 0.0000000000000000e+00  -1.1209792941217290e-54 -3.4702427578769354e-55 0.0000000000000000e+00  -2.4066070928541372e-53 1.2715768857157245e-53 0.0000000000000000e+00  -6.5901036235170631e-53 2.9944710316273282e-53 0.0000000000000000e+00  -4.3552861118818155e-52 1.2264794860567071e-52 0.0000000000000000e+00  -2.6642513678898539e-51 1.6660151894671610e-51 0.0000000000000000e+00  -7.6659649568729652e-51 -2.1488957711156488e-52 0.0000000000000000e+00  -7.1929023868748816e-50 4.6051814142508586e-50 0.0000000000000000e+00  -1.6172952547401939e-49 -1.4808977073085059e-50 0.0000000000000000e+00  -1.7288146748219405e-48 1.0118647704116677e-48 0.0000000000000000e+00  -4.3412145394201826e-48 -2.0446908793644550e-49 0.0000000000000000e+00  -2.0131125570516018e-47 1.1117144461827049e-47 0.0000000000000000e+00  -1.1026343581451584e-46 1.8988356354766221e-47 0.0000000000000000e+00  -1.0246486027990050e-46 2.4643562374760506e-47 0.0000000000000000e+00  -1.2404986580191076e-45 5.2618457945512634e-46 0.0000000000000000e+00  -8.7388950029265572e-46 -5.6884343129518414e-46 0.0000000000000000e+00  -1.3428723739018784e-44 8.0839899593446337e-45 0.0000000000000000e+00  -5.7955996330313345e-44 1.3759962463841987e-44 0.0000000000000000e+00  -3.6154774288388647e-44 -1.7542639588982035e-44 0.0000000000000000e+00  -1.1425081066582674e-43 6.5112446648029667e-44 0.0000000000000000e+00  -8.4129748709166484e-43 2.3198094486862390e-43 0.0000000000000000e+00  -1.9291101725229279e-42 1.9786432972241953e-43 0.0000000000000000e+00  -2.5116984336215966e-42 6.1144772872039088e-44 0.0000000000000000e+00  -2.0144846076061062e-42 -1.9510774143117781e-43 0.0000000000000000e+00  -8.6136470087517784e-43 -2.5097318781895204e-43 0.0000000000000000e+00  -1.1324715126392856e-43 -6.4573613374452959e-44 0.0000000000000000e+00  -3.8714591067312264e-44 1.8533241172047200e-44 0.0000000000000000e+00  -6.3164913771654787e-44 -1.0839029399279251e-44 0.0000000000000000e+00  -1.4988398796320699e-44 -7.8795993929945531e-45 0.0000000000000000e+00  -9.9891843766518502e-46 5.6810249244416434e-46 0.0000000000000000e+00  -1.4038656801438198e-45 -5.3941728207399555e-46 0.0000000000000000e+00  -1.1207866997897851e-46 -2.8595036935422033e-47 0.0000000000000000e+00  -1.0180914991081146e-46 -2.1449176429998697e-47 0.0000000000000000e+00  -1.8607479385280646e-47 -1.1988115901954547e-47 0.0000000000000000e+00  -4.0856335622351119e-48 2.0360491849769114e-49 0.0000000000000000e+00  -1.4865968842950543e-48 -9.3693416153096004e-49 0.0000000000000000e+00  -1.6332295394920007e-49 2.4581093056239329e-50 0.0000000000000000e+00  -7.4568465617195095e-50 -4.4242478098878604e-50 0.0000000000000000e+00  -8.2463518020094669e-51 6.4139597121187214e-52 0.0000000000000000e+00  -3.1450820252639890e-51 -1.7847046484959767e-51 0.0000000000000000e+00  -5.1026274549448225e-52 -1.1471426307560881e-52 0.0000000000000000e+00  -8.2051972785817092e-53 -3.5487870722728746e-53 0.0000000000000000e+00  -2.6615805488622597e-53 -1.3162286784813113e-53 0.0000000000000000e+00  -1.1972696648645518e-54 3.2407457943208224e-55 0.0000000000000000e+00  -1.0635382237521864e-54 -6.8074256147603437e-55 0.0000000000000000e+00  -5.1526089019210543e-56 8.3541515958064367e-57 0.0000000000000000e+00  -2.3362587195298493e-56 -1.3242154945782768e-56 0.0000000000000000e+00  -4.8232586413260050e-57 -2.5219098971314497e-57 0.0000000000000000e+00  -2.4589018565310348e-58 8.5481905273126457e-59 0.0000000000000000e+00  -2.1579791508414854e-58 -1.3288005102265635e-58 0.0000000000000000e+00  -1.9909289758325086e-59 -6.1470212719835765e-60 0.0000000000000000e+00  -2.3748427702500599e-60 -3.3964556225391570e-61 0.0000000000000000e+00  -1.2906907388241639e-60 -7.6095144731014010e-61 0.0000000000000000e+00  -7.6903576030308909e-62 -2.1439718240126449e-62 0.0000000000000000e+00  -1.3593204502811394e-62 -2.9307426086314131e-63 0.0000000000000000e+00  -6.6384641684961467e-63 -3.7887794977941537e-63 0.0000000000000000e+00  -4.7827498356739780e-64 -1.8197816628345825e-64 0.0000000000000000e+00  -4.3638769284863761e-65 9.5816362371466419e-67 0.0000000000000000e+00  -2.9478698947851923e-65 -1.6622520264793145e-65 0.0000000000000000e+00  -3.4129159034608749e-66 -1.9888989502974154e-66 0.0000000000000000e+00  -8.9963107234197128e-68 5.4812770089633459e-68 0.0000000000000000e+00  -8.6359977286473851e-68 -4.1779111247400918e-68 0.0000000000000000e+00  -2.0680281385952728e-68 -1.2850835409911698e-68 0.0000000000000000e+00  -1.1325878654440521e-69 -5.1339429693457251e-70 0.0000000000000000e+00  -8.7945603006642743e-71 1.3790334605680920e-71 0.0000000000000000e+00  -6.9078597671574198e-71 -3.6574153528975212e-71 0.0000000000000000e+00  -1.2478497689111798e-71 -7.6626901593680753e-72 0.0000000000000000e+00  -5.9817889177544161e-73 -2.7511988299247107e-73 0.0000000000000000e+00  -3.9237933881968428e-74 7.4238374720281806e-75 0.0000000000000000e+00  -3.1564877734455649e-74 -1.4790651592988375e-74 0.0000000000000000e+00  -6.5905493393558362e-75 -3.3571552556390380e-75 0.0000000000000000e+00  -7.1798762857968181e-76 -3.1071747613874467e-76 0.0000000000000000e+00  -8.5520342450945371e-76 -1.6228370530255783e-75 0.0000000000000000e+00  -4.7736199375511425e-75 -1.3945857688142437e-74 0.0000000000000000e+00  4.3672986721203162e-75 -8.3090459744018678e-75 0.0000000000000000e+00  -1.6295251290767721e-73 -3.4271287301555830e-73 0.0000000000000000e+00  -9.2863686008400504e-71 -1.0068766263749228e-70 0.0000000000000000e+00  -7.5075068387738871e-70 -1.3176361016523495e-69 0.0000000000000000e+00  -1.0986255126317433e-69 -3.6510979880248265e-69 0.0000000000000000e+00  -7.7625185440797076e-68 -1.7112975162545488e-67 0.0000000000000000e+00  -6.5325138478761854e-68 -3.2598353452346969e-67 0.0000000000000000e+00  -6.7914430830997593e-66 -1.3499374189745733e-65 0.0000000000000000e+00  -4.5211388538732389e-66 -2.1315308102135011e-65 0.0000000000000000e+00  -9.0724367632524748e-65 -1.5573375708954904e-64 0.0000000000000000e+00  1.7226060617421620e-65 -2.1036121132649144e-64 0.0000000000000000e+00  -4.2773508146793075e-62 -6.4012008084327676e-62 0.0000000000000000e+00  -7.0017489366575706e-62 -1.7204756865702659e-61 0.0000000000000000e+00  -2.3271609599658679e-62 -2.7285513493048712e-61 0.0000000000000000e+00  -5.7432856823315110e-60 -1.1360437274175857e-59 0.0000000000000000e+00  4.7710792237891778e-60 -1.5022446543436975e-59 0.0000000000000000e+00  -2.9028575173748803e-59 -4.7476537410881248e-59 0.0000000000000000e+00  8.8280043857844643e-60 -6.0865362424302022e-59 0.0000000000000000e+00  2.3274576530545597e-59 -3.9730838769696175e-59 0.0000000000000000e+00  -5.6428966823906972e-58 -8.9446453006220765e-58 0.0000000000000000e+00  -1.3816004182300630e-59 -1.2602311989477929e-57 0.0000000000000000e+00  -4.6384209153727862e-57 -1.1635197959507076e-56 0.0000000000000000e+00  5.7561214006895853e-57 -8.6775038761062938e-57 0.0000000000000000e+00  -5.3402543853241820e-57 -7.3350595715464848e-57 0.0000000000000000e+00  -1.7694089794957333e-56 -3.7723887444833646e-56 0.0000000000000000e+00  2.1648762384560219e-56 -4.0724447082484047e-56 0.0000000000000000e+00  -5.0097898837987157e-57 -9.1977772642836428e-57 0.0000000000000000e+00  -8.1304400666963266e-56 -2.0305498765180055e-55 0.0000000000000000e+00  6.3856918255706763e-56 -5.0773034048965138e-55 0.0000000000000000e+00  -4.2970744334315113e-55 -7.2554980241598155e-55 0.0000000000000000e+00  -4.8851215049413524e-56 -1.8357061579141398e-54 0.0000000000000000e+00  1.6634660835767126e-55 -5.7406370311876571e-55 0.0000000000000000e+00  -5.1921690892023583e-55 -1.6756874146279238e-54 0.0000000000000000e+00  -2.2581935632066531e-54 -7.0706337971908243e-54 0.0000000000000000e+00  2.5879276072687361e-54 -6.0777841945585990e-54 0.0000000000000000e+00  -6.7347035745770346e-55 -2.3894129264660806e-54 0.0000000000000000e+00  5.3377577582675685e-55 -2.8192575186053708e-54 0.0000000000000000e+00  1.2855731691493726e-55 -1.4248196493137697e-54 0.0000000000000000e+00  -2.1854755061483270e-54 -3.4659724185518556e-54 0.0000000000000000e+00  5.7277069298312405e-55 -8.2270499896872704e-54 0.0000000000000000e+00  -3.9401473300014909e-54 -1.3556625615380361e-53 0.0000000000000000e+00  4.7042697686801674e-54 -7.7155537644640866e-54 0.0000000000000000e+00  2.0369748228197057e-55 -6.5063097035093344e-55 0.0000000000000000e+00  -4.8137401661476615e-54 -8.0081564539772638e-54 0.0000000000000000e+00  4.8397907528418826e-54 -7.8700901190825166e-54 0.0000000000000000e+00  -1.6663580844147277e-56 -1.3349769294019318e-55 0.0000000000000000e+00  1.1183982718704162e-56 -2.7680015280195272e-55 0.0000000000000000e+00  2.2128690851672680e-56 -9.8796588768780995e-56 0.0000000000000000e+00  -5.2186819145630147e-54 -9.3538244022012033e-54 0.0000000000000000e+00  5.5661201626902495e-54 -9.4073466281824592e-54 0.0000000000000000e+00  5.6906188009718652e-56 -1.0518050299333494e-55 0.0000000000000000e+00  -1.4369445966694313e-56 -6.2048699136728656e-56 0.0000000000000000e+00  -5.0130608602229810e-55 -9.0473193825724274e-55 0.0000000000000000e+00  -5.8306510625431603e-54 -1.0047039441729136e-53 0.0000000000000000e+00  4.5159023509190535e-54 -1.0490679056994196e-53 0.0000000000000000e+00  -3.0606948025478306e-54 -7.9861887058371010e-54 0.0000000000000000e+00  2.4453648973674004e-54 -8.5491308597405482e-54 0.0000000000000000e+00  2.2522923463137959e-54 -3.3054626421418242e-54 0.0000000000000000e+00  -5.4510386488552076e-55 -1.4800382642876733e-54 0.0000000000000000e+00  8.3776317021525464e-55 -1.5735171485163776e-54 0.0000000000000000e+00  -4.9358411640271056e-55 -9.8343192334195852e-55 0.0000000000000000e+00  5.1371412079070592e-55 -8.8527998817830239e-55 0.0000000000000000e+00  -1.5702881130790398e-56 -2.6927413814496838e-56 0.0000000000000000e+00  -4.4873431260657689e-56 -1.7220192310107055e-55 0.0000000000000000e+00  4.1810491543032218e-56 -1.7465775715457457e-55 0.0000000000000000e+00  4.8104380704970843e-57 -6.9027645859883675e-56 0.0000000000000000e+00  -2.7540997048468168e-56 -6.5441017180331869e-56 0.0000000000000000e+00  3.2941035969064785e-56 -6.4119668605087064e-56 0.0000000000000000e+00  -2.8638064058643154e-57 -2.8735043654303818e-56 0.0000000000000000e+00  1.2981181197639766e-56 -3.0013342994850228e-56 0.0000000000000000e+00  1.0039614952727107e-57 -2.3985222655090548e-57 0.0000000000000000e+00  -4.3893050310334861e-57 -7.6415322841768918e-57 0.0000000000000000e+00  4.2555698893178624e-57 -1.1004586622610704e-56 0.0000000000000000e+00  3.1286954927273989e-58 -1.0211267506215221e-57 0.0000000000000000e+00  1.4397422541933391e-58 -5.025369