<?xml version="1.0"?>
<VTKFile type="UnstructuredGrid"  version="0.1"  >
<UnstructuredGrid>
<Piece  NumberOfPoints="11902" NumberOfCells="23402">
<Points>
<DataArray  type="Float64"  NumberOfComponents="3"  format="ascii">-5 -5 0  5 -5 0  5 5 0  -5 5 0  1.114557164237945 0.0007675340488023428 0  -4.9 -5 0  -4.8 -5 0  -4.7 -5 0  -4.6 -5 0  -4.5 -5 0  -4.4 -5 0  -4.3 -5 0  -4.2 -5 0  -4.1 -5 0  -4 -5 0  -3.9 -5 0  -3.8 -5 0  -3.7 -5 0  -3.6 -5 0  -3.5 -5 0  -3.4 -5 0  -3.3 -5 0  -3.2 -5 0  -3.1 -5 0  -3 -5 0  -2.9 -5 0  -2.8 -5 0  -2.7 -5 0  -2.6 -5 0  -2.5 -5 0  -2.4 -5 0  -2.3 -5 0  -2.2 -5 0  -2.1 -5 0  -2 -5 0  -1.9 -5 0  -1.8 -5 0  -1.7 -5 0  -1.6 -5 0  -1.5 -5 0  -1.4 -5 0  -1.3 -5 0  -1.2 -5 0  -1.1 -5 0  -1 -5 0  -0.9000000000000004 -5 0  -0.7999999999999998 -5 0  -0.7000000000000002 -5 0  -0.5999999999999996 -5 0  -0.5 -5 0  -0.4000000000000004 -5 0  -0.2999999999999998 -5 0  -0.2000000000000002 -5 0  -0.09999999999999964 -5 0  0 -5 0  0.09999999999999964 -5 0  0.2000000000000002 -5 0  0.2999999999999998 -5 0  0.4000000000000004 -5 0  0.5 -5 0  0.5999999999999996 -5 0  0.7000000000000002 -5 0  0.7999999999999998 -5 0  0.9000000000000004 -5 0  1 -5 0  1.1 -5 0  1.2 -5 0  1.3 -5 0  1.4 -5 0  1.5 -5 0  1.6 -5 0  1.7 -5 0  1.8 -5 0  1.9 -5 0  2 -5 0  2.1 -5 0  2.2 -5 0  2.3 -5 0  2.4 -5 0  2.5 -5 0  2.6 -5 0  2.7 -5 0  2.8 -5 0  2.9 -5 0  3 -5 0  3.1 -5 0  3.199999999999999 -5 0  3.300000000000001 -5 0  3.4 -5 0  3.5 -5 0  3.6 -5 0  3.699999999999999 -5 0  3.800000000000001 -5 0  3.9 -5 0  4 -5 0  4.1 -5 0  4.199999999999999 -5 0  4.300000000000001 -5 0  4.4 -5 0  4.5 -5 0  4.6 -5 0  4.699999999999999 -5 0  4.800000000000001 -5 0  4.9 -5 0  5 -4.9 0  5 -4.8 0  5 -4.7 0  5 -4.6 0  5 -4.5 0  5 -4.4 0  5 -4.3 0  5 -4.2 0  5 -4.1 0  5 -4 0  5 -3.9 0  5 -3.8 0  5 -3.7 0  5 -3.6 0  5 -3.5 0  5 -3.4 0  5 -3.3 0  5 -3.2 0  5 -3.1 0  5 -3 0  5 -2.9 0  5 -2.8 0  5 -2.7 0  5 -2.6 0  5 -2.5 0  5 -2.4 0  5 -2.3 0  5 -2.2 0  5 -2.1 0  5 -2 0  5 -1.9 0  5 -1.8 0  5 -1.7 0  5 -1.6 0  5 -1.5 0  5 -1.4 0  5 -1.3 0  5 -1.2 0  5 -1.1 0  5 -1 0  5 -0.9000000000000004 0  5 -0.7999999999999998 0  5 -0.7000000000000002 0  5 -0.5999999999999996 0  5 -0.5 0  5 -0.4000000000000004 0  5 -0.2999999999999998 0  5 -0.2000000000000002 0  5 -0.09999999999999964 0  5 0 0  5 0.09999999999999964 0  5 0.2000000000000002 0  5 0.2999999999999998 0  5 0.4000000000000004 0  5 0.5 0  5 0.5999999999999996 0  5 0.7000000000000002 0  5 0.7999999999999998 0  5 0.9000000000000004 0  5 1 0  5 1.1 0  5 1.2 0  5 1.3 0  5 1.4 0  5 1.5 0  5 1.6 0  5 1.7 0  5 1.8 0  5 1.9 0  5 2 0  5 2.1 0  5 2.2 0  5 2.3 0  5 2.4 0  5 2.5 0  5 2.6 0  5 2.7 0  5 2.8 0  5 2.9 0  5 3 0  5 3.1 0  5 3.199999999999999 0  5 3.300000000000001 0  5 3.4 0  5 3.5 0  5 3.6 0  5 3.699999999999999 0  5 3.800000000000001 0  5 3.9 0  5 4 0  5 4.1 0  5 4.199999999999999 0  5 4.300000000000001 0  5 4.4 0  5 4.5 0  5 4.6 0  5 4.699999999999999 0  5 4.800000000000001 0  5 4.9 0  4.9 5 0  4.8 5 0  4.7 5 0  4.6 5 0  4.5 5 0  4.4 5 0  4.3 5 0  4.2 5 0  4.1 5 0  4 5 0  3.9 5 0  3.8 5 0  3.7 5 0  3.6 5 0  3.5 5 0  3.4 5 0  3.3 5 0  3.2 5 0  3.1 5 0  3 5 0  2.9 5 0  2.8 5 0  2.7 5 0  2.6 5 0  2.5 5 0  2.4 5 0  2.3 5 0  2.2 5 0  2.1 5 0  2 5 0  1.9 5 0  1.8 5 0  1.7 5 0  1.6 5 0  1.5 5 0  1.4 5 0  1.3 5 0  1.2 5 0  1.1 5 0  1 5 0  0.9000000000000004 5 0  0.7999999999999998 5 0  0.7000000000000002 5 0  0.5999999999999996 5 0  0.5 5 0  0.4000000000000004 5 0  0.2999999999999998 5 0  0.2000000000000002 5 0  0.09999999999999964 5 0  0 5 0  -0.09999999999999964 5 0  -0.2000000000000002 5 0  -0.2999999999999998 5 0  -0.4000000000000004 5 0  -0.5 5 0  -0.5999999999999996 5 0  -0.7000000000000002 5 0  -0.7999999999999998 5 0  -0.9000000000000004 5 0  -1 5 0  -1.1 5 0  -1.2 5 0  -1.3 5 0  -1.4 5 0  -1.5 5 0  -1.6 5 0  -1.7 5 0  -1.8 5 0  -1.9 5 0  -2 5 0  -2.1 5 0  -2.2 5 0  -2.3 5 0  -2.4 5 0  -2.5 5 0  -2.6 5 0  -2.7 5 0  -2.8 5 0  -2.9 5 0  -3 5 0  -3.1 5 0  -3.199999999999999 5 0  -3.300000000000001 5 0  -3.4 5 0  -3.5 5 0  -3.6 5 0  -3.699999999999999 5 0  -3.800000000000001 5 0  -3.9 5 0  -4 5 0  -4.1 5 0  -4.199999999999999 5 0  -4.300000000000001 5 0  -4.4 5 0  -4.5 5 0  -4.6 5 0  -4.699999999999999 5 0  -4.800000000000001 5 0  -4.9 5 0  -5 4.9 0  -5 4.8 0  -5 4.7 0  -5 4.6 0  -5 4.5 0  -5 4.4 0  -5 4.3 0  -5 4.2 0  -5 4.1 0  -5 4 0  -5 3.9 0  -5 3.8 0  -5 3.7 0  -5 3.6 0  -5 3.5 0  -5 3.4 0  -5 3.3 0  -5 3.2 0  -5 3.1 0  -5 3 0  -5 2.9 0  -5 2.8 0  -5 2.7 0  -5 2.6 0  -5 2.5 0  -5 2.4 0  -5 2.3 0  -5 2.2 0  -5 2.1 0  -5 2 0  -5 1.9 0  -5 1.8 0  -5 1.7 0  -5 1.6 0  -5 1.5 0  -5 1.4 0  -5 1.3 0  -5 1.2 0  -5 1.1 0  -5 1 0  -5 0.9000000000000004 0  -5 0.7999999999999998 0  -5 0.7000000000000002 0  -5 0.5999999999999996 0  -5 0.5 0  -5 0.4000000000000004 0  -5 0.2999999999999998 0  -5 0.2000000000000002 0  -5 0.09999999999999964 0  -5 0 0  -5 -0.09999999999999964 0  -5 -0.2000000000000002 0  -5 -0.2999999999999998 0  -5 -0.4000000000000004 0  -5 -0.5 0  -5 -0.5999999999999996 0  -5 -0.7000000000000002 0  -5 -0.7999999999999998 0  -5 -0.9000000000000004 0  -5 -1 0  -5 -1.1 0  -5 -1.2 0  -5 -1.3 0  -5 -1.4 0  -5 -1.5 0  -5 -1.6 0  -5 -1.7 0  -5 -1.8 0  -5 -1.9 0  -5 -2 0  -5 -2.1 0  -5 -2.2 0  -5 -2.3 0  -5 -2.4 0  -5 -2.5 0  -5 -2.6 0  -5 -2.7 0  -5 -2.8 0  -5 -2.9 0  -5 -3 0  -5 -3.1 0  -5 -3.199999999999999 0  -5 -3.300000000000001 0  -5 -3.4 0  -5 -3.5 0  -5 -3.6 0  -5 -3.699999999999999 0  -5 -3.800000000000001 0  -5 -3.9 0  -5 -4 0  -5 -4.1 0  -5 -4.199999999999999 0  -5 -4.300000000000001 0  -5 -4.4 0  -5 -4.5 0  -5 -4.6 0  -5 -4.699999999999999 0  -5 -4.800000000000001 0  -5 -4.9 0  1.109155497125813 0.1003879641374345 0  1.092327972672979 0.1996636558070801 0  1.063950274860235 0.2973914441738205 0  1.026369368153621 0.3907999770534761 0  0.978178296355087 0.4817541599499771 0  0.9207693972394417 0.5674553182485286 0  0.8535628697360174 0.6472787783493779 0  0.7772836825084756 0.7203884887815691 0  0.6941065287556474 0.7867033247327561 0  0.6039906814041937 0.8455452037621126 0  0.5073738515805046 0.8955898164452286 0  0.405742340730562 0.9368954191249027 0  0.3012815748274792 0.9693334974505977 0  0.1929295247645462 0.9914411064714953 0  0.08367060606192538 1.004295380621651 0  -0.0268340823609812 1.006878356013775 0  -0.1370928432445349 0.9988631180774531 0  -0.2462800513090704 0.9817855361042033 0  -0.3530300756314366 0.954897151764814 0  -0.4560162225853269 0.9181453540025328 0  -0.5542570915925715 0.8727464895577282 0  -0.6473103306504725 0.8181931607042037 0  -0.7339309659607897 0.7557513941374757 0  -0.8134327365952693 0.685933739448698 0  -0.8851632680137878 0.6084048049848936 0  -0.9476567221861724 0.525268527550921 0  -1.001384556587343 0.4374077105663757 0  -1.044593044647266 0.3446303048776989 0  -1.077164489498449 0.2489691059901317 0  -1.099297779331483 0.1508683506164183 0  -1.110550783370087 0.05080159624191845 0  -1.110577435481206 -0.04983957487897702 0  -1.099347947191981 -0.1497489274683957 0  -1.078335286345713 -0.2478287326880862 0  -1.04452896110942 -0.3441257794666072 0  -1.00163938437712 -0.4363449330767142 0  -0.9481708587489673 -0.5244061665253626 0  -0.8858150420734482 -0.6072630853029388 0  -0.8140644051445877 -0.6841403449882537 0  -0.734125968167043 -0.7536870651063228 0  -0.6469538845242075 -0.8155215953700522 0  -0.5545893833875062 -0.8703255954545149 0  -0.4548256677812925 -0.9159034554110422 0  -0.3517383332465643 -0.9531709572384461 0  -0.2448060832517439 -0.9804613584290783 0  -0.1360261372331424 -0.997936584124373 0  -0.02613726056345124 -1.00643582692454 0  0.08403406182118971 -1.003365258143142 0  0.1941113912904023 -0.9902374414774078 0  0.301848917618478 -0.9681125868197997 0  0.4075508127834285 -0.9357937468294953 0  0.5080839638584466 -0.8946709856799056 0  0.604417257064303 -0.8447856271793625 0  0.6943471376874524 -0.7870982563856492 0  0.7774679631298396 -0.7207217199190477 0  0.8532437135501545 -0.6468313287285988 0  0.9200732409679576 -0.5667634957521659 0  0.9783407180315582 -0.4813206049247407 0  1.027366731024854 -0.3908839625713573 0  1.064877897625367 -0.2968172245993074 0  1.092409675040365 -0.1991746678846053 0  1.109186324935272 -0.1001324617987751 0  -2.449201186040082 4.919294890624695 0  -2.449132176583376 -4.911780052281793 0  4.911734500990737 2.44881842057164 0  4.919739368527966 -2.450196199649385 0  2.446975827544533 -4.897236422887754 0  2.441382948595706 4.900949818375917 0  -4.911750705777147 -2.448834675844385 0  -4.911751227308209 2.448838405116935 0  -1.749176738061275 4.912702987552114 0  -1.744934654279434 -4.916076323640226 0  4.922257265382485 1.744905580173529 0  4.911021192118813 -1.748788976147098 0  -4.911294449817389 -1.748508976668099 0  -4.912103611585009 1.748243865121301 0  1.746490484556247 4.906685430439227 0  1.747987956511999 -4.895052235250435 0  -1.149352732056435 4.91084302243313 0  -1.130157442521012 -4.918584691781747 0  -4.911476845897257 -1.148670461986713 0  -4.911302771381616 1.148469779414727 0  1.144313994877687 -4.914855444224964 0  1.149356485382611 4.91083578544606 0  4.911636040986305 1.146951732174798 0  4.922187532057412 -1.152647326303258 0  -0.5469351361597334 -4.912207615457499 0  -0.5466919752607633 4.920687704735878 0  -4.91058325399794 -0.5491213821683594 0  -4.910608703322839 0.5476744663011209 0  4.909947206188762 -0.5494476993251181 0  4.921267110838988 0.5461486073612453 0  0.5427428318381711 -4.899409539506844 0  0.5514250145780794 4.917589406005742 0  -4.912755558180497 -3.049034326630155 0  4.919269133106885 3.047002961169313 0  4.912273183922041 -3.049022135974934 0  -4.913599282973894 3.046119973960265 0  3.055858305055093 -4.918234358730961 0  -3.049230877660765 -4.912228543115932 0  3.052785508685863 4.914291197302207 0  -3.048672928127675 4.913111435259663 0  -4.909831303281371 -0.04994895773818998 0  0.04513621702683499 -4.914174516202138 0  0.04958589381561064 4.921032238131227 0  4.916699158175238 -0.05132843208979508 0  3.546061109975605 -4.919622902584666 0  -3.5493802280
[...]
<PointData  Vectors="f_1102"> 
<DataArray  type="Float64"  Name="f_1102"  NumberOfComponents="3" format="ascii">2.6559658580597791e-76 2.6559658580597791e-76 0.0000000000000000e+00  -2.8445085011136373e-76 2.8445085011136373e-76 0.0000000000000000e+00  -8.5659604778823872e-78 -8.5659604778823872e-78 0.0000000000000000e+00  3.0308186857304329e-76 -3.0308186857304329e-76 0.0000000000000000e+00  -6.8474565005626675e-01 -1.4152747957752346e-02 0.0000000000000000e+00  4.1641349481087362e-75 6.6078119371594902e-75 0.0000000000000000e+00  2.0841474421237790e-75 2.0878445528694157e-74 0.0000000000000000e+00  -3.4006530994957719e-75 6.7670209918386290e-75 0.0000000000000000e+00  3.9937188241238760e-72 6.6737261735596025e-72 0.0000000000000000e+00  5.3077470818401522e-71 1.3466288863647105e-70 0.0000000000000000e+00  -7.8968285782838611e-72 4.5532591714259207e-71 0.0000000000000000e+00  3.2243413141275808e-69 6.1709129666500294e-69 0.0000000000000000e+00  5.1426160438775159e-68 9.4147887749388904e-68 0.0000000000000000e+00  -3.0490701595206306e-68 1.4987740365202529e-67 0.0000000000000000e+00  1.2713265900750681e-67 3.9862689855297282e-67 0.0000000000000000e+00  1.2796752368198177e-68 8.7780560697755872e-67 0.0000000000000000e+00  5.4214087332078881e-64 8.8475048841637852e-64 0.0000000000000000e+00  4.7732920135823223e-65 2.4417455851417285e-63 0.0000000000000000e+00  1.3401046479293220e-62 2.2060430603325358e-62 0.0000000000000000e+00  8.0269891526414704e-63 8.3215446688450476e-62 0.0000000000000000e+00  6.8769513867446103e-61 1.1063399601755131e-60 0.0000000000000000e+00  4.0276857571461070e-60 7.0317460799225735e-60 0.0000000000000000e+00  -2.8205396628493936e-60 7.6805066864217288e-60 0.0000000000000000e+00  5.6087942745601310e-59 1.1405195165304804e-58 0.0000000000000000e+00  -1.7401246014095222e-59 1.1634099272311809e-58 0.0000000000000000e+00  -2.9693780817640010e-59 6.8168225460852974e-59 0.0000000000000000e+00  1.7811936347639654e-58 3.3174070071727031e-58 0.0000000000000000e+00  7.2129634656732221e-58 2.0947906089043691e-57 0.0000000000000000e+00  2.8231954031555489e-57 6.2546368215452759e-57 0.0000000000000000e+00  -3.3595967535212089e-57 5.7117477930644806e-57 0.0000000000000000e+00  -3.4708049258932923e-58 1.0950530611956376e-57 0.0000000000000000e+00  1.8799027177620759e-56 2.9468557898668541e-56 0.0000000000000000e+00  -1.3903042076064248e-56 3.5198842107983117e-56 0.0000000000000000e+00  1.1720655159076590e-56 2.9027107564907453e-56 0.0000000000000000e+00  8.5921293353366795e-56 2.1043450073091053e-55 0.0000000000000000e+00  -2.4431006079579727e-56 5.7419519039628135e-55 0.0000000000000000e+00  5.1139381546435751e-57 8.6513480363384650e-57 0.0000000000000000e+00  5.4409300505952552e-56 1.3858030671017208e-55 0.0000000000000000e+00  1.5196929646057188e-55 6.1809775157472113e-55 0.0000000000000000e+00  -2.1899320144972576e-55 3.5013952521668077e-55 0.0000000000000000e+00  9.6320896468439408e-55 1.7294717026118819e-54 0.0000000000000000e+00  -4.3117982236241486e-55 4.3595011855933287e-54 0.0000000000000000e+00  -2.2259353023631617e-55 2.6811141964758385e-54 0.0000000000000000e+00  -9.3856796426628045e-56 9.4355780103671277e-55 0.0000000000000000e+00  -1.1047652777270167e-55 1.8165700228857839e-55 0.0000000000000000e+00  2.6956591784765684e-54 5.2468727574605809e-54 0.0000000000000000e+00  -2.1081877775726241e-54 4.1299997734776328e-54 0.0000000000000000e+00  -7.0175188768815532e-55 8.0538805158079253e-55 0.0000000000000000e+00  -1.2877332767022897e-55 2.7093795892030118e-55 0.0000000000000000e+00  9.0729127698708842e-55 1.4478430356405700e-54 0.0000000000000000e+00  9.2234321191995903e-55 6.1579399529945825e-54 0.0000000000000000e+00  -1.0996606550822947e-54 5.8983266116790037e-54 0.0000000000000000e+00  5.0186783468141071e-55 4.6497711369922848e-54 0.0000000000000000e+00  1.8739953117968423e-56 5.7943906842236958e-54 0.0000000000000000e+00  2.9408573259165072e-55 6.1525961727499205e-54 0.0000000000000000e+00  -1.2295677237648237e-54 2.0449099255725470e-54 0.0000000000000000e+00  -6.3005158491873247e-55 1.4729590357492048e-53 0.0000000000000000e+00  4.3510858699797399e-54 7.4624377971250749e-54 0.0000000000000000e+00  -4.2385606291323485e-54 8.1053933670624599e-54 0.0000000000000000e+00  1.8741176163823585e-54 3.9520581348705205e-54 0.0000000000000000e+00  -7.1943361271219889e-55 9.5033496692217665e-54 0.0000000000000000e+00  1.2975379488387943e-54 9.3260671567291837e-54 0.0000000000000000e+00  -1.6447620858335544e-54 4.4032531464155115e-54 0.0000000000000000e+00  -9.0373821043702137e-55 2.4092620167961633e-54 0.0000000000000000e+00  3.2523704177400138e-55 1.2982268342829345e-54 0.0000000000000000e+00  2.5920675012140899e-55 2.5366295894691747e-54 0.0000000000000000e+00  -7.7396033264075205e-56 3.4908403677449875e-54 0.0000000000000000e+00  -6.9622201060398346e-55 1.4858140570472265e-54 0.0000000000000000e+00  2.3275699211896710e-55 4.4116735401590678e-55 0.0000000000000000e+00  -2.2639318861809761e-55 6.0387646832146736e-55 0.0000000000000000e+00  4.9285644523325572e-56 2.3948938523089724e-55 0.0000000000000000e+00  1.8281292635155542e-55 9.5122079126359598e-55 0.0000000000000000e+00  -3.2431361243542648e-55 5.3249455648256123e-55 0.0000000000000000e+00  -1.5636195485850046e-56 4.8334813684235178e-56 0.0000000000000000e+00  -1.1185855048259211e-57 1.1341428487297706e-56 0.0000000000000000e+00  6.6353734783813826e-57 2.3503182036661158e-56 0.0000000000000000e+00  -8.8528245234739095e-57 1.5084720219851007e-56 0.0000000000000000e+00  1.7147090477598571e-57 2.8746011465699657e-57 0.0000000000000000e+00  -1.2261970511948848e-57 2.7331326330766568e-57 0.0000000000000000e+00  5.1031599110501917e-57 7.7725013513432008e-57 0.0000000000000000e+00  -4.4756533655429815e-57 1.1281642051328933e-56 0.0000000000000000e+00  -1.7907830057690954e-58 9.4073113351039455e-58 0.0000000000000000e+00  -2.3636195067580800e-58 4.6682652761231181e-58 0.0000000000000000e+00  -7.7879585176575961e-61 8.8108462267146671e-59 0.0000000000000000e+00  -2.4195408711792408e-59 6.4381548881412519e-59 0.0000000000000000e+00  -7.0433206937794641e-60 2.5040641544243084e-59 0.0000000000000000e+00  -4.3484357181275549e-60 2.2410124990094876e-59 0.0000000000000000e+00  -3.0366526787245292e-60 7.1847366883419948e-60 0.0000000000000000e+00  -8.4512858875256960e-62 4.4398012365731181e-61 0.0000000000000000e+00  -1.0674446538046066e-61 2.2395735373515133e-61 0.0000000000000000e+00  -3.5621370567540593e-62 5.6913537378183762e-62 0.0000000000000000e+00  -3.8840467677485059e-64 6.7155765062431459e-64 0.0000000000000000e+00  -2.4169669893435320e-65 5.1808281694395577e-65 0.0000000000000000e+00  3.6851760707019304e-66 1.0370498618869532e-65 0.0000000000000000e+00  -4.8193382080477915e-66 9.2784814024244566e-66 0.0000000000000000e+00  -6.6692066387885944e-68 2.7733388807272973e-67 0.0000000000000000e+00  -7.8226072647478138e-68 1.2940891646746863e-67 0.0000000000000000e+00  -8.0338068263065821e-69 1.1752835363507364e-68 0.0000000000000000e+00  -5.6172805327023011e-70 9.5327544842431801e-70 0.0000000000000000e+00  -3.7706967208256870e-71 6.8255116325603787e-71 0.0000000000000000e+00  -1.8750229728299323e-72 3.2054165329346498e-72 0.0000000000000000e+00  -1.2164383603582142e-73 2.7277916525576827e-73 0.0000000000000000e+00  -4.4169791713585514e-75 1.2914942075831566e-74 0.0000000000000000e+00  -2.5469632618315889e-75 4.2421557727455408e-75 0.0000000000000000e+00  -9.7707608520430527e-76 3.5566889241609071e-76 0.0000000000000000e+00  -1.6206520357126525e-75 -2.3882678265782075e-76 0.0000000000000000e+00  -2.4503101310994934e-74 1.1578618679179128e-74 0.0000000000000000e+00  -3.6794159819579073e-74 1.5479032681946565e-75 0.0000000000000000e+00  -3.8856836239111636e-73 1.4311627359685421e-73 0.0000000000000000e+00  -1.0253437105789399e-71 6.2242105391828237e-72 0.0000000000000000e+00  -6.7520586425698786e-71 3.6982223136276944e-71 0.0000000000000000e+00  -1.0611785838832943e-70 3.8904773711682966e-72 0.0000000000000000e+00  -8.9122261503590618e-70 3.2983879109607606e-70 0.0000000000000000e+00  -2.1341121102640859e-68 1.2814138311816258e-68 0.0000000000000000e+00  -1.0261692398283973e-67 5.0875290407159258e-68 0.0000000000000000e+00  -1.0103241938311707e-67 -5.9951481027957569e-68 0.0000000000000000e+00  -3.1752446104374758e-66 1.7369973194292764e-66 0.0000000000000000e+00  -3.1961313013751932e-65 1.8210183061424307e-65 0.0000000000000000e+00  -5.3891685791886428e-65 5.0130316892922863e-66 0.0000000000000000e+00  -4.4458933248763060e-64 1.4371819482398714e-64 0.0000000000000000e+00  -7.0241336029915315e-63 4.3263716014644571e-63 0.0000000000000000e+00  -1.5092902526385881e-62 3.7176249854773542e-63 0.0000000000000000e+00  -8.4478433374172407e-62 1.9511645230112867e-62 0.0000000000000000e+00  -1.3619006756552654e-60 8.4382523891515287e-61 0.0000000000000000e+00  -2.4198145227049391e-60 3.3472278503609812e-61 0.0000000000000000e+00  -2.1233284749057844e-59 7.3221503019010779e-60 0.0000000000000000e+00  -2.4306515380746022e-58 1.4772849291573450e-58 0.0000000000000000e+00  -2.5786908198661245e-58 -9.2989122892008467e-59 0.0000000000000000e+00  -6.0045806125309918e-57 2.7459067642152344e-57 0.0000000000000000e+00  -2.4956918193525059e-56 1.2216727266751302e-56 0.0000000000000000e+00  -5.5543936658713328e-56 -8.5334427127246945e-57 0.0000000000000000e+00  -1.0178381044022596e-54 6.3782224335393205e-55 0.0000000000000000e+00  -1.1170554330160879e-54 -3.4050144579779387e-55 0.0000000000000000e+00  -2.4210082753104302e-53 1.2474099532307117e-53 0.0000000000000000e+00  -6.6239094086062821e-53 2.9331574116981055e-53 0.0000000000000000e+00  -4.3692359817774501e-52 1.2018372909558555e-52 0.0000000000000000e+00  -2.6827206828787433e-51 1.6289129958099933e-51 0.0000000000000000e+00  -7.6644496828866391e-51 -2.0664126384895031e-52 0.0000000000000000e+00  -7.2419831191423909e-50 4.4941509647338863e-50 0.0000000000000000e+00  -1.6160304353599830e-49 -1.4371459897368192e-50 0.0000000000000000e+00  -1.7389302637656005e-48 9.8566979031780761e-49 0.0000000000000000e+00  -4.3401432076055957e-48 -1.9745181148070199e-49 0.0000000000000000e+00  -2.0231547918989383e-47 1.0809566250560805e-47 0.0000000000000000e+00  -1.1045060454206435e-46 1.8480676939572316e-47 0.0000000000000000e+00  -1.0265279383338105e-46 2.3917238428612336e-47 0.0000000000000000e+00  -1.2445175998020426e-45 5.1065456472815789e-46 0.0000000000000000e+00  -8.7051790708023406e-46 -5.5123013310948682e-46 0.0000000000000000e+00  -1.3476033263208658e-44 7.8331806438729709e-45 0.0000000000000000e+00  -5.8040222215339196e-44 1.3333526504036442e-44 0.0000000000000000e+00  -3.6100045129310884e-44 -1.6974209858068099e-44 0.0000000000000000e+00  -1.1446020655112059e-43 6.3005589740164756e-44 0.0000000000000000e+00  -8.4204351010808605e-43 2.2445478354751847e-43 0.0000000000000000e+00  -1.9300598497055254e-42 1.9144105894486724e-43 0.0000000000000000e+00  -2.5127065841040240e-42 5.9133772412229847e-44 0.0000000000000000e+00  -2.0154358024362041e-42 -1.8877333233911573e-43 0.0000000000000000e+00  -8.6213370729182382e-43 -2.4282199569196331e-43 0.0000000000000000e+00  -1.1345245456772494e-43 -6.2483444872980775e-44 0.0000000000000000e+00  -3.8657043171782731e-44 1.7932672587491372e-44 0.0000000000000000e+00  -6.3235488479473211e-44 -1.0505252981276515e-44 0.0000000000000000e+00  -1.5034424211505945e-44 -7.6351136314805313e-45 0.0000000000000000e+00  -9.9555581862003961e-46 5.5051247983521323e-46 0.0000000000000000e+00  -1.4079672926263641e-45 -5.2348165975541577e-46 0.0000000000000000e+00  -1.1229833324049968e-46 -2.7754107514395832e-47 0.0000000000000000e+00  -1.0201314424425487e-46 -2.0866243582489638e-47 0.0000000000000000e+00  -1.8715334019003662e-47 -1.1655731154462472e-47 0.0000000000000000e+00  -4.0846220853879998e-48 1.9653188953913576e-49 0.0000000000000000e+00  -1.4959390417253134e-48 -9.1262731370370376e-49 0.0000000000000000e+00  -1.6309733501697469e-49 2.3894201034231348e-50 0.0000000000000000e+00  -7.5039523971090411e-50 -4.3174962588382324e-50 0.0000000000000000e+00  -8.2402086381187695e-51 6.2319930924121340e-52 0.0000000000000000e+00  -3.1648421047333278e-51 -1.7448745726980137e-51 0.0000000000000000e+00  -5.1156929483884588e-52 -1.1242655909525888e-52 0.0000000000000000e+00  -8.2452355455269312e-53 -3.4760693685449341e-53 0.0000000000000000e+00  -2.6764805819657639e-53 -1.2911563959787849e-53 0.0000000000000000e+00  -1.1936071646181102e-54 3.1798131961220080e-55 0.0000000000000000e+00  -1.0711630309587704e-54 -6.6888920885100236e-55 0.0000000000000000e+00  -5.1430138172950830e-56 8.1924876990115235e-57 0.0000000000000000e+00  -2.3507413329202817e-56 -1.3033278512091362e-56 0.0000000000000000e+00  -4.8500825688683600e-57 -2.4853808016248318e-57 0.0000000000000000e+00  -2.4498585094278754e-58 8.4258273805821808e-59 0.0000000000000000e+00  -2.1715421341012601e-58 -1.3113392788213292e-58 0.0000000000000000e+00  -1.9968421646590072e-59 -6.0757354175647819e-60 0.0000000000000000e+00  -2.3781232100977920e-60 -3.3565569647899310e-61 0.0000000000000000e+00  -1.2976937052511382e-60 -7.5276484932437999e-61 0.0000000000000000e+00  -7.7083972533182365e-62 -2.1241634448298546e-62 0.0000000000000000e+00  -1.3618271257307249e-62 -2.9027854122634930e-63 0.0000000000000000e+00  -6.6689049830317691e-63 -3.7559178332560234e-63 0.0000000000000000e+00  -4.7961230184632704e-64 -1.8059038624310057e-64 0.0000000000000000e+00  -4.3631772943300288e-65 9.5090439952201824e-67 0.0000000000000000e+00  -2.9590603688449670e-65 -1.6509527656106428e-65 0.0000000000000000e+00  -3.4251508003197383e-66 -1.9768506962516292e-66 0.0000000000000000e+00  -8.9627977789249611e-68 5.4483156001418642e-68 0.0000000000000000e+00  -8.6584234302992655e-68 -4.1564395314499943e-68 0.0000000000000000e+00  -2.0742108161287231e-68 -1.2792685483755147e-68 0.0000000000000000e+00  -1.1346874823761489e-69 -5.1146071099962049e-70 0.0000000000000000e+00  -8.7890110205763961e-71 1.3739230336740958e-71 0.0000000000000000e+00  -6.9202969816661813e-71 -3.6461222977256188e-71 0.0000000000000000e+00  -1.2500272151533936e-71 -7.6431285677130909e-72 0.0000000000000000e+00  -5.9876997052055660e-73 -2.7459491911001331e-73 0.0000000000000000e+00  -3.9222613029945665e-74 7.4102265011703546e-75 0.0000000000000000e+00  -3.1586059364322370e-74 -1.4771956212643220e-74 0.0000000000000000e+00  -6.5934528705256768e-75 -3.3546025250460020e-75 0.0000000000000000e+00  -7.1806865853586354e-76 -3.1064643979230418e-76 0.0000000000000000e+00  -8.5488309763632054e-76 -1.6231179774557176e-75 0.0000000000000000e+00  -4.7715334098747810e-75 -1.3947696573158428e-74 0.0000000000000000e+00  4.3599181851476766e-75 -8.3026248470171012e-75 0.0000000000000000e+00  -1.6266641609869650e-73 -3.4296165693445252e-73 0.0000000000000000e+00  -9.2637692356037913e-71 -1.0088274235083182e-70 0.0000000000000000e+00  -7.4850062103223862e-70 -1.3195594548824021e-69 0.0000000000000000e+00  -1.0947698734110498e-69 -3.6543633257335733e-69 0.0000000000000000e+00  -7.7319640018190261e-68 -1.7138628913265449e-67 0.0000000000000000e+00  -6.5025334630522120e-68 -3.2623150542408131e-67 0.0000000000000000e+00  -6.7586266952768373e-66 -1.3526385594790249e-65 0.0000000000000000e+00  -4.4951282870911931e-66 -2.1336173796108533e-65 0.0000000000000000e+00  -9.0161535524567935e-65 -1.5617939393874419e-64 0.0000000000000000e+00  1.7106048094638004e-65 -2.1026844089846183e-64 0.0000000000000000e+00  -4.2464365833293873e-62 -6.4249112254630704e-62 0.0000000000000000e+00  -6.9449908327255267e-62 -1.7246953870477854e-61 0.0000000000000000e+00  -2.3067115220269944e-62 -2.7300340961510766e-61 0.0000000000000000e+00  -5.6915766466003673e-60 -1.1397658227884394e-59 0.0000000000000000e+00  4.7190264134370167e-60 -1.4987690559900206e-59 0.0000000000000000e+00  -2.8723244966932725e-59 -4.7683268373802073e-59 0.0000000000000000e+00  8.7267072784147687e-60 -6.0799545130812364e-59 0.0000000000000000e+00  2.2984121006611642e-59 -3.9550467173039077e-59 0.0000000000000000e+00  -5.5724136919654329e-58 -8.9883931714465982e-58 0.0000000000000000e+00  -1.3629348325822262e-59 -1.2603414592644245e-57 0.0000000000000000e+00  -4.5757885722950540e-57 -1.1672279866472325e-56 0.0000000000000000e+00  5.6682985890991871e-57 -8.6301253134047972e-57 0.0000000000000000e+00  -5.2579688376078845e-57 -7.3790834140652352e-57 0.0000000000000000e+00  -1.7406218014481175e-56 -3.7870414793050063e-56 0.0000000000000000e+00  2.1272408180595766e-56 -4.0545544961478712e-56 0.0000000000000000e+00  -4.9219591596065629e-57 -9.2391280860386677e-57 0.0000000000000000e+00  -7.9845492011479785e-56 -2.0372391046571994e-55 0.0000000000000000e+00  6.2439792098889385e-56 -5.0725387252872021e-55 0.0000000000000000e+00  -4.2122622451887589e-55 -7.2895600123303152e-55 0.0000000000000000e+00  -4.8330163043531160e-56 -1.8362360798330331e-54 0.0000000000000000e+00  1.6280766680391117e-55 -5.7282323819944464e-55 0.0000000000000000e+00  -5.0841088633085694e-55 -1.6796760386296716e-54 0.0000000000000000e+00  -2.2092825062391940e-54 -7.0872111076645765e-54 0.0000000000000000e+00  2.5269069726009607e-54 -6.0615808469481364e-54 0.0000000000000000e+00  -6.5812539396109080e-55 -2.3939931214252289e-54 0.0000000000000000e+00  5.2025893910863609e-55 -2.8166708837361398e-54 0.0000000000000000e+00  1.2508829190121199e-55 -1.4244136503982869e-54 0.0000000000000000e+00  -2.1309131611636944e-54 -3.4770081527790171e-54 0.0000000000000000e+00  5.5659017300611571e-55 -8.2265420095871095e-54 0.0000000000000000e+00  -3.8403432178536397e-54 -1.3575211156464093e-53 0.0000000000000000e+00  4.5807917932363387e-54 -7.7002043242220101e-54 0.0000000000000000e+00  1.9824833642430892e-55 -6.5018610570367416e-55 0.0000000000000000e+00  -4.6858186349838881e-54 -8.0204687187334896e-54 0.0000000000000000e+00  4.7095844643371640e-54 -7.8628774913322284e-54 0.0000000000000000e+00  -1.6214285123981541e-56 -1.3351710294629476e-55 0.0000000000000000e+00  1.0876153529197923e-56 -2.7686071827683457e-55 0.0000000000000000e+00  2.1529843209439865e-56 -9.8798293954796158e-56 0.0000000000000000e+00  -5.0774834877022647e-54 -9.3518288694424990e-54 0.0000000000000000e+00  5.4163628185092440e-54 -9.4156260073383014e-54 0.0000000000000000e+00  5.5382548707468293e-56 -1.0529300633925361e-55 0.0000000000000000e+00  -1.3981827770017084e-56 -6.2027642687722454e-56 0.0000000000000000e+00  -4.8802650934551165e-55 -9.0334736839992747e-55 0.0000000000000000e+00  -5.6779257201624902e-54 -1.0027386510317328e-53 0.0000000000000000e+00  4.3996386986929445e-54 -1.0509180488017025e-53 0.0000000000000000e+00  -2.9828193299059170e-54 -7.9724092548397481e-54 0.0000000000000000e+00  2.3842077109419245e-54 -8.5613793392497342e-54 0.0000000000000000e+00  2.1971287589997698e-54 -3.3179152051505337e-54 0.0000000000000000e+00  -5.3191727999808253e-55 -1.4768843330948739e-54 0.0000000000000000e+00  8.1834548073013631e-55 -1.5789891707948750e-54 0.0000000000000000e+00  -4.8204010668662446e-55 -9.8027432812481205e-55 0.0000000000000000e+00  5.0238926141080921e-55 -8.8895338395883271e-55 0.0000000000000000e+00  -1.5358657271597853e-56 -2.6814285962214855e-56 0.0000000000000000e+00  -4.3876739424021995e-56 -1.7188207871159545e-55 0.0000000000000000e+00  4.1004667662700976e-56 -1.7499690618095917e-55 0.0000000000000000e+00  4.7352109194043939e-57 -6.9070633208394538e-56 0.0000000000000000e+00  -2.7011605695180865e-56 -6.5219122037803463e-56 0.0000000000000000e+00  3.2339297363053103e-56 -6.4390077838811057e-56 0.0000000000000000e+00  -2.8129929797342586e-57 -2.8711373349566168e-56 0.0000000000000000e+00  1.2769046831673310e-56 -3.0121360014440316e-56 0.0000000000000000e+00  9.8823313365785833e-58 -2.4068471764959717e-57 0.0000000000000000e+00  -4.3198133984853054e-57 -7.6051340838471930e-57 0.0000000000000000e+00  4.1954462713005433e-57 -1.1039191317555957e-56 0.0000000000000000e+00  3.0847098068503180e-58 -1.0236624642215664e-57 0.0000000000000000e+00  1.4205511284071028e-58 -5.0368