<?xml version="1.0"?>
<VTKFile type="UnstructuredGrid"  version="0.1"  >
<UnstructuredGrid>
<Piece  NumberOfPoints="11902" NumberOfCells="23402">
<Points>
<DataArray  type="Float64"  NumberOfComponents="3"  format="ascii">-5 -5 0  5 -5 0  5 5 0  -5 5 0  1.133814540028444 0.000898380397924217 0  -4.9 -5 0  -4.8 -5 0  -4.7 -5 0  -4.6 -5 0  -4.5 -5 0  -4.4 -5 0  -4.3 -5 0  -4.2 -5 0  -4.1 -5 0  -4 -5 0  -3.9 -5 0  -3.8 -5 0  -3.7 -5 0  -3.6 -5 0  -3.5 -5 0  -3.4 -5 0  -3.3 -5 0  -3.2 -5 0  -3.1 -5 0  -3 -5 0  -2.9 -5 0  -2.8 -5 0  -2.7 -5 0  -2.6 -5 0  -2.5 -5 0  -2.4 -5 0  -2.3 -5 0  -2.2 -5 0  -2.1 -5 0  -2 -5 0  -1.9 -5 0  -1.8 -5 0  -1.7 -5 0  -1.6 -5 0  -1.5 -5 0  -1.4 -5 0  -1.3 -5 0  -1.2 -5 0  -1.1 -5 0  -1 -5 0  -0.9000000000000004 -5 0  -0.7999999999999998 -5 0  -0.7000000000000002 -5 0  -0.5999999999999996 -5 0  -0.5 -5 0  -0.4000000000000004 -5 0  -0.2999999999999998 -5 0  -0.2000000000000002 -5 0  -0.09999999999999964 -5 0  0 -5 0  0.09999999999999964 -5 0  0.2000000000000002 -5 0  0.2999999999999998 -5 0  0.4000000000000004 -5 0  0.5 -5 0  0.5999999999999996 -5 0  0.7000000000000002 -5 0  0.7999999999999998 -5 0  0.9000000000000004 -5 0  1 -5 0  1.1 -5 0  1.2 -5 0  1.3 -5 0  1.4 -5 0  1.5 -5 0  1.6 -5 0  1.7 -5 0  1.8 -5 0  1.9 -5 0  2 -5 0  2.1 -5 0  2.2 -5 0  2.3 -5 0  2.4 -5 0  2.5 -5 0  2.6 -5 0  2.7 -5 0  2.8 -5 0  2.9 -5 0  3 -5 0  3.1 -5 0  3.199999999999999 -5 0  3.300000000000001 -5 0  3.4 -5 0  3.5 -5 0  3.6 -5 0  3.699999999999999 -5 0  3.800000000000001 -5 0  3.9 -5 0  4 -5 0  4.1 -5 0  4.199999999999999 -5 0  4.300000000000001 -5 0  4.4 -5 0  4.5 -5 0  4.6 -5 0  4.699999999999999 -5 0  4.800000000000001 -5 0  4.9 -5 0  5 -4.9 0  5 -4.8 0  5 -4.7 0  5 -4.6 0  5 -4.5 0  5 -4.4 0  5 -4.3 0  5 -4.2 0  5 -4.1 0  5 -4 0  5 -3.9 0  5 -3.8 0  5 -3.7 0  5 -3.6 0  5 -3.5 0  5 -3.4 0  5 -3.3 0  5 -3.2 0  5 -3.1 0  5 -3 0  5 -2.9 0  5 -2.8 0  5 -2.7 0  5 -2.6 0  5 -2.5 0  5 -2.4 0  5 -2.3 0  5 -2.2 0  5 -2.1 0  5 -2 0  5 -1.9 0  5 -1.8 0  5 -1.7 0  5 -1.6 0  5 -1.5 0  5 -1.4 0  5 -1.3 0  5 -1.2 0  5 -1.1 0  5 -1 0  5 -0.9000000000000004 0  5 -0.7999999999999998 0  5 -0.7000000000000002 0  5 -0.5999999999999996 0  5 -0.5 0  5 -0.4000000000000004 0  5 -0.2999999999999998 0  5 -0.2000000000000002 0  5 -0.09999999999999964 0  5 0 0  5 0.09999999999999964 0  5 0.2000000000000002 0  5 0.2999999999999998 0  5 0.4000000000000004 0  5 0.5 0  5 0.5999999999999996 0  5 0.7000000000000002 0  5 0.7999999999999998 0  5 0.9000000000000004 0  5 1 0  5 1.1 0  5 1.2 0  5 1.3 0  5 1.4 0  5 1.5 0  5 1.6 0  5 1.7 0  5 1.8 0  5 1.9 0  5 2 0  5 2.1 0  5 2.2 0  5 2.3 0  5 2.4 0  5 2.5 0  5 2.6 0  5 2.7 0  5 2.8 0  5 2.9 0  5 3 0  5 3.1 0  5 3.199999999999999 0  5 3.300000000000001 0  5 3.4 0  5 3.5 0  5 3.6 0  5 3.699999999999999 0  5 3.800000000000001 0  5 3.9 0  5 4 0  5 4.1 0  5 4.199999999999999 0  5 4.300000000000001 0  5 4.4 0  5 4.5 0  5 4.6 0  5 4.699999999999999 0  5 4.800000000000001 0  5 4.9 0  4.9 5 0  4.8 5 0  4.7 5 0  4.6 5 0  4.5 5 0  4.4 5 0  4.3 5 0  4.2 5 0  4.1 5 0  4 5 0  3.9 5 0  3.8 5 0  3.7 5 0  3.6 5 0  3.5 5 0  3.4 5 0  3.3 5 0  3.2 5 0  3.1 5 0  3 5 0  2.9 5 0  2.8 5 0  2.7 5 0  2.6 5 0  2.5 5 0  2.4 5 0  2.3 5 0  2.2 5 0  2.1 5 0  2 5 0  1.9 5 0  1.8 5 0  1.7 5 0  1.6 5 0  1.5 5 0  1.4 5 0  1.3 5 0  1.2 5 0  1.1 5 0  1 5 0  0.9000000000000004 5 0  0.7999999999999998 5 0  0.7000000000000002 5 0  0.5999999999999996 5 0  0.5 5 0  0.4000000000000004 5 0  0.2999999999999998 5 0  0.2000000000000002 5 0  0.09999999999999964 5 0  0 5 0  -0.09999999999999964 5 0  -0.2000000000000002 5 0  -0.2999999999999998 5 0  -0.4000000000000004 5 0  -0.5 5 0  -0.5999999999999996 5 0  -0.7000000000000002 5 0  -0.7999999999999998 5 0  -0.9000000000000004 5 0  -1 5 0  -1.1 5 0  -1.2 5 0  -1.3 5 0  -1.4 5 0  -1.5 5 0  -1.6 5 0  -1.7 5 0  -1.8 5 0  -1.9 5 0  -2 5 0  -2.1 5 0  -2.2 5 0  -2.3 5 0  -2.4 5 0  -2.5 5 0  -2.6 5 0  -2.7 5 0  -2.8 5 0  -2.9 5 0  -3 5 0  -3.1 5 0  -3.199999999999999 5 0  -3.300000000000001 5 0  -3.4 5 0  -3.5 5 0  -3.6 5 0  -3.699999999999999 5 0  -3.800000000000001 5 0  -3.9 5 0  -4 5 0  -4.1 5 0  -4.199999999999999 5 0  -4.300000000000001 5 0  -4.4 5 0  -4.5 5 0  -4.6 5 0  -4.699999999999999 5 0  -4.800000000000001 5 0  -4.9 5 0  -5 4.9 0  -5 4.8 0  -5 4.7 0  -5 4.6 0  -5 4.5 0  -5 4.4 0  -5 4.3 0  -5 4.2 0  -5 4.1 0  -5 4 0  -5 3.9 0  -5 3.8 0  -5 3.7 0  -5 3.6 0  -5 3.5 0  -5 3.4 0  -5 3.3 0  -5 3.2 0  -5 3.1 0  -5 3 0  -5 2.9 0  -5 2.8 0  -5 2.7 0  -5 2.6 0  -5 2.5 0  -5 2.4 0  -5 2.3 0  -5 2.2 0  -5 2.1 0  -5 2 0  -5 1.9 0  -5 1.8 0  -5 1.7 0  -5 1.6 0  -5 1.5 0  -5 1.4 0  -5 1.3 0  -5 1.2 0  -5 1.1 0  -5 1 0  -5 0.9000000000000004 0  -5 0.7999999999999998 0  -5 0.7000000000000002 0  -5 0.5999999999999996 0  -5 0.5 0  -5 0.4000000000000004 0  -5 0.2999999999999998 0  -5 0.2000000000000002 0  -5 0.09999999999999964 0  -5 0 0  -5 -0.09999999999999964 0  -5 -0.2000000000000002 0  -5 -0.2999999999999998 0  -5 -0.4000000000000004 0  -5 -0.5 0  -5 -0.5999999999999996 0  -5 -0.7000000000000002 0  -5 -0.7999999999999998 0  -5 -0.9000000000000004 0  -5 -1 0  -5 -1.1 0  -5 -1.2 0  -5 -1.3 0  -5 -1.4 0  -5 -1.5 0  -5 -1.6 0  -5 -1.7 0  -5 -1.8 0  -5 -1.9 0  -5 -2 0  -5 -2.1 0  -5 -2.2 0  -5 -2.3 0  -5 -2.4 0  -5 -2.5 0  -5 -2.6 0  -5 -2.7 0  -5 -2.8 0  -5 -2.9 0  -5 -3 0  -5 -3.1 0  -5 -3.199999999999999 0  -5 -3.300000000000001 0  -5 -3.4 0  -5 -3.5 0  -5 -3.6 0  -5 -3.699999999999999 0  -5 -3.800000000000001 0  -5 -3.9 0  -5 -4 0  -5 -4.1 0  -5 -4.199999999999999 0  -5 -4.300000000000001 0  -5 -4.4 0  -5 -4.5 0  -5 -4.6 0  -5 -4.699999999999999 0  -5 -4.800000000000001 0  -5 -4.9 0  1.128325416757251 0.1002855031911955 0  1.111121214696668 0.1994497864355156 0  1.082098193033399 0.2971789582367139 0  1.043901647370724 0.3902841879111728 0  0.9947805914345793 0.4812491440084133 0  0.9363809146977652 0.5668759306095408 0  0.867915665977145 0.6466839087326909 0  0.7902376541967123 0.7196943341105481 0  0.7056240597823552 0.7859213101529343 0  0.6138975201989327 0.8447520187144757 0  0.515492613562277 0.8948573896171899 0  0.4121222877847016 0.9362298016211228 0  0.3060182809643554 0.9687657139344569 0  0.195812688631306 0.9909409575760193 0  0.0849864384942504 1.00397698375868 0  -0.02711696640908507 1.006583022383909 0  -0.139007162419959 0.9983747311354961 0  -0.2500286965214989 0.9812478547072551 0  -0.3585835039804355 0.9544326850804553 0  -0.4631912016272814 0.9177036199530905 0  -0.5629462249983458 0.8723370513670029 0  -0.6575361484026067 0.8177332256705999 0  -0.7455724890337795 0.7552718409355273 0  -0.8264823607306725 0.6854189813481515 0  -0.8996162839303872 0.6077742374111093 0  -0.963284879583999 0.5246993727467003 0  -1.018087324096075 0.4369666142421755 0  -1.062144641262582 0.3442275431243949 0  -1.09532309103625 0.2487594261112261 0  -1.117856608265618 0.1508459814637964 0  -1.129321989984941 0.05085668491821336 0  -1.129348911268798 -0.04971812705284567 0  -1.11790145367459 -0.1495175286405916 0  -1.096550483807712 -0.2474216167601703 0  -1.062034110926636 -0.3437079425172453 0  -1.018391176518176 -0.4357941840314001 0  -0.9639057621133592 -0.5237551107682417 0  -0.9004341472218693 -0.6065114157787205 0  -0.8273113204205436 -0.6833819372889723 0  -0.7459164221693432 -0.7528541219491596 0  -0.6572012981939352 -0.8145734241710259 0  -0.5633061841948195 -0.8693328524745292 0  -0.4617069966281633 -0.9150236201406206 0  -0.3569637243237297 -0.952430736768909 0  -0.2482581436919017 -0.9798025291861875 0  -0.1378094948232007 -0.9973706837389996 0  -0.02637759911092306 -1.006049221842549 0  0.0854343860103435 -1.002807287126367 0  0.1972978842919348 -0.9895052844485057 0  0.3067775555384098 -0.9673881235842771 0  0.4142898993786376 -0.935008342554158 0  0.5163977234448196 -0.8938860786856589 0  0.6143924079127288 -0.8440063042725201 0  0.705869879090658 -0.7864399991620487 0  0.7904120265824423 -0.7201044887614121 0  0.8675543389915995 -0.6461786483076528 0  0.935542371695618 -0.5661536435079912 0  0.994900193281927 -0.4807902095324582 0  1.044963344404284 -0.3903849727971058 0  1.083149995340302 -0.2964369326862429 0  1.111225058578639 -0.1988742182784283 0  1.128348719408597 -0.09997175796140692 0  -2.449093978503959 4.919096190380341 0  -2.44901549494007 -4.911563421050525 0  4.911512701872092 2.4486619403417 0  4.919538106037153 -2.450053899940342 0  2.446840061415543 -4.896981873440932 0  2.441251580309375 4.900703559680347 0  -4.91153078916928 -2.448679936757842 0  -4.911530720849703 2.448683697751814 0  -1.749066292328462 4.912417654665615 0  -1.744829054299578 -4.915802504743179 0  4.921977443127495 1.744764184196185 0  4.910701738392501 -1.748626863120563 0  -4.910978572781512 -1.748349313900113 0  -4.911789951051476 1.748085905086622 0  1.746373239146264 4.906378787900383 0  1.747856634975232 -4.894708045544365 0  -1.149265043510499 4.910498242702183 0  -1.130078661149056 -4.918269612073136 0  -4.91108187669107 -1.148539249282809 0  -4.910906464201969 1.148338779610558 0  1.1442321010006 -4.914525558667972 0  1.149269873833351 4.910489966210812 0  4.911237714155981 1.14681949800177 0  4.921837617518621 -1.152530324106538 0  -0.546889547868301 -4.911833825947624 0  -0.5466507963389281 4.920348898074352 0  -4.910124785137811 -0.5490484978548915 0  -4.910149963311627 0.5476024164684896 0  4.909481002969997 -0.5493734084364263 0  4.920859256739794 0.5460843015788081 0  0.5426929707422103 -4.89898010343861 0  0.5513831216439505 4.917237037610609 0  -4.912607062017936 -3.048906310701333 0  4.919130486089623 3.04688313505239 0  4.912122977179086 -3.04889200609465 0  -4.913451458110267 3.045992978417679 0  3.055762444763435 -4.918088401449249 0  -3.049127853442694 -4.912072569035399 0  3.052684627643599 4.914137795970509 0  -3.048570484361155 4.912956629040674 0  -4.909349070110881 -0.04994166790856836 0  0.04513344357986853 -4.913798029996047 0  0.04958275726507694 4.920684804978895 0  4.916249351529385 -0.05132160383771091 0  3.54598500415014 -4.919520553660828 0  -3.549297448829608 4.912
[...]
<PointData  Vectors="f_1310"> 
<DataArray  type="Float64"  Name="f_1310"  NumberOfComponents="3" format="ascii">2.6559658580598085e-76 2.6559658580598085e-76 0.0000000000000000e+00  -2.8445085011136704e-76 2.8445085011136704e-76 0.0000000000000000e+00  -8.5659604778865465e-78 -8.5659604778865465e-78 0.0000000000000000e+00  3.0308186857305280e-76 -3.0308186857305280e-76 0.0000000000000000e+00  -6.2028078925600338e-01 -1.2647825803414657e-02 0.0000000000000000e+00  4.1644403849807715e-75 6.6075446012916182e-75 0.0000000000000000e+00  2.0838475775651848e-75 2.0878703568146194e-74 0.0000000000000000e+00  -3.4015409201077890e-75 6.7677924886917793e-75 0.0000000000000000e+00  3.9948406699501070e-72 6.6727521377692160e-72 0.0000000000000000e+00  5.3093518325556020e-71 1.3464887924509742e-70 0.0000000000000000e+00  -7.9008389837791688e-72 4.5536003090218552e-71 0.0000000000000000e+00  3.2260836271620100e-69 6.1694360030800858e-69 0.0000000000000000e+00  5.1458942566921925e-68 9.4120442498203841e-68 0.0000000000000000e+00  -3.0517964341671923e-68 1.4989944100296347e-67 0.0000000000000000e+00  1.2722790029734751e-67 3.9854830821665016e-67 0.0000000000000000e+00  1.2769385560230888e-68 8.7782233141390386e-67 0.0000000000000000e+00  5.4266953768616329e-64 8.8433106009598804e-64 0.0000000000000000e+00  4.7685049379447283e-65 2.4417649822161712e-63 0.0000000000000000e+00  1.3416831605294059e-62 2.2048402048524270e-62 0.0000000000000000e+00  8.0338871236758495e-63 8.3209559479580301e-62 0.0000000000000000e+00  6.8863964918174721e-61 1.1056504385492258e-60 0.0000000000000000e+00  4.0336882522451186e-60 7.0274830972904606e-60 0.0000000000000000e+00  -2.8251132178645386e-60 7.6836508881295634e-60 0.0000000000000000e+00  5.6180228935814967e-59 1.1398882962527792e-58 0.0000000000000000e+00  -1.7433433810163376e-59 1.1636182916431302e-58 0.0000000000000000e+00  -2.9752047322628799e-59 6.8204781362790286e-59 0.0000000000000000e+00  1.7848003791787532e-58 3.3151846293750341e-58 0.0000000000000000e+00  7.2276315780909857e-58 2.0938865213754882e-57 0.0000000000000000e+00  2.8295646389937235e-57 6.2509768939723000e-57 0.0000000000000000e+00  -3.3677004609582585e-57 5.7161745118105182e-57 0.0000000000000000e+00  -3.4795683043759198e-58 1.0955138534923491e-57 0.0000000000000000e+00  1.8847667408300443e-56 2.9443540237081863e-56 0.0000000000000000e+00  -1.3942345721127805e-56 3.5217313608815484e-56 0.0000000000000000e+00  1.1753280131625651e-56 2.9011508845834811e-56 0.0000000000000000e+00  8.6167374286608445e-56 2.1032037946945139e-55 0.0000000000000000e+00  -2.4544551740431498e-56 5.7421946939114769e-55 0.0000000000000000e+00  5.1301876734134191e-57 8.6448072244869789e-57 0.0000000000000000e+00  5.4584097881844480e-56 1.3851103070771352e-55 0.0000000000000000e+00  1.5246183129009447e-55 6.1790433005203531e-55 0.0000000000000000e+00  -2.1977273061233767e-55 3.5039168841140949e-55 0.0000000000000000e+00  9.6664281065023368e-55 1.7283641978073191e-54 0.0000000000000000e+00  -4.3300142707403721e-55 4.3598323871995638e-54 0.0000000000000000e+00  -2.2354470145426823e-55 2.6812654086461068e-54 0.0000000000000000e+00  -9.4246660136205675e-56 9.4362699144131494e-55 0.0000000000000000e+00  -1.1091867827722312e-55 1.8175148115827747e-55 0.0000000000000000e+00  2.7064543299915704e-54 5.2445727318733656e-54 0.0000000000000000e+00  -2.1168690449912168e-54 4.1315374784938380e-54 0.0000000000000000e+00  -7.0468368952715038e-55 8.0584718718498328e-55 0.0000000000000000e+00  -1.2932299251268272e-55 2.7100241135545339e-55 0.0000000000000000e+00  9.1115749397384908e-55 1.4473788679461708e-54 0.0000000000000000e+00  9.2623286154013387e-55 6.1573399310504382e-54 0.0000000000000000e+00  -1.1045066869208228e-54 5.8984109030484526e-54 0.0000000000000000e+00  5.0402325232632788e-55 4.6494751404117890e-54 0.0000000000000000e+00  1.8798058576621143e-56 5.7941433157471024e-54 0.0000000000000000e+00  2.9537318015164283e-55 6.1523406900425231e-54 0.0000000000000000e+00  -1.2349549177090981e-54 2.0447806676800988e-54 0.0000000000000000e+00  -6.3265628443404364e-55 1.4728498928676418e-53 0.0000000000000000e+00  4.3700268714188366e-54 7.4635891870066516e-54 0.0000000000000000e+00  -4.2568486025342945e-54 8.1037534026179585e-54 0.0000000000000000e+00  1.8821605286444887e-54 3.9528899047581191e-54 0.0000000000000000e+00  -7.2225700675647516e-55 9.5025506108060326e-54 0.0000000000000000e+00  1.3032060082495267e-54 9.3265389829385445e-54 0.0000000000000000e+00  -1.6515430235757931e-54 4.4020679607653672e-54 0.0000000000000000e+00  -9.0734311540287059e-55 2.4084754011275515e-54 0.0000000000000000e+00  3.2657675685088098e-55 1.2984683253617255e-54 0.0000000000000000e+00  2.6030857617308491e-55 2.5367996791148467e-54 0.0000000000000000e+00  -7.7552811601867519e-56 3.4906638574934570e-54 0.0000000000000000e+00  -6.9878438589490136e-55 1.4850566010125279e-54 0.0000000000000000e+00  2.3361338854632582e-55 4.4142056070771880e-55 0.0000000000000000e+00  -2.2717368898371583e-55 6.0360530300552370e-55 0.0000000000000000e+00  4.9464732196453623e-56 2.3954480881390690e-55 0.0000000000000000e+00  1.8346686528568950e-55 9.5143229662670858e-55 0.0000000000000000e+00  -3.2534804780571428e-55 5.3208171156629087e-55 0.0000000000000000e+00  -1.5682791277187555e-56 4.8314271821073935e-56 0.0000000000000000e+00  -1.1213913202887047e-57 1.1339891135889834e-56 0.0000000000000000e+00  6.6556157562943665e-57 2.3511850414916133e-56 0.0000000000000000e+00  -8.8767809708215837e-57 1.5072951617732820e-56 0.0000000000000000e+00  1.7193461865828541e-57 2.8768804758052575e-57 0.0000000000000000e+00  -1.2292832246992195e-57 2.7315099589186302e-57 0.0000000000000000e+00  5.1156518604660673e-57 7.7792272226748956e-57 0.0000000000000000e+00  -4.4854362188845150e-57 1.1275903783201037e-56 0.0000000000000000e+00  -1.7946885179260449e-58 9.4050214258900020e-58 0.0000000000000000e+00  -2.3684548374803890e-58 4.6653134396518625e-58 0.0000000000000000e+00  -7.8031449670663519e-61 8.8107509653798158e-59 0.0000000000000000e+00  -2.4239780663161703e-59 6.4352798077281678e-59 0.0000000000000000e+00  -7.0554550301202006e-60 2.5032543798132125e-59 0.0000000000000000e+00  -4.3545102356891066e-60 2.2405688155040308e-59 0.0000000000000000e+00  -3.0410047990530309e-60 7.1816118326097575e-60 0.0000000000000000e+00  -8.4632589303854583e-62 4.4389396051174051e-61 0.0000000000000000e+00  -1.0688354781857960e-61 2.2385464178326611e-61 0.0000000000000000e+00  -3.5662696064756122e-62 5.6882044433232167e-62 0.0000000000000000e+00  -3.8882990971723457e-64 6.7122959091520603e-64 0.0000000000000000e+00  -2.4193012196961932e-65 5.1789814335307578e-65 0.0000000000000000e+00  3.6889550170159405e-66 1.0373458438924767e-65 0.0000000000000000e+00  -4.8230961130280669e-66 9.2754121328537024e-66 0.0000000000000000e+00  -6.6741981495737477e-68 2.7729296918660458e-67 0.0000000000000000e+00  -7.8276515971431061e-68 1.2936694421929474e-67 0.0000000000000000e+00  -8.0382535634048967e-69 1.1749092001098065e-68 0.0000000000000000e+00  -5.6199210290050243e-70 9.5305116847070362e-70 0.0000000000000000e+00  -3.7721389680712249e-71 6.8242765432210190e-71 0.0000000000000000e+00  -1.8755865405349383e-72 3.2049308847838650e-72 0.0000000000000000e+00  -1.2166548166490452e-73 2.7276035943073829e-73 0.0000000000000000e+00  -4.4176686465142427e-75 1.2914343574044516e-74 0.0000000000000000e+00  -2.5471550904732220e-75 4.2419888793202962e-75 0.0000000000000000e+00  -9.7704361397979147e-76 3.5569718174044880e-76 0.0000000000000000e+00  -1.6207335756941708e-75 -2.3889824074027798e-76 0.0000000000000000e+00  -2.4500638932434975e-74 1.1580772908666994e-74 0.0000000000000000e+00  -3.6793667008089698e-74 1.5483373187708192e-75 0.0000000000000000e+00  -3.8852169785236850e-73 1.4315729447717378e-73 0.0000000000000000e+00  -1.0250594683516284e-71 6.2267441537831171e-72 0.0000000000000000e+00  -6.7500326086247673e-71 3.7000478090246944e-71 0.0000000000000000e+00  -1.0611535080631100e-70 3.8927675150456390e-72 0.0000000000000000e+00  -8.9101068407403532e-70 3.3003176136540371e-70 0.0000000000000000e+00  -2.1331181772632173e-68 1.2823414068874831e-68 0.0000000000000000e+00  -1.0257287590605834e-67 5.0917136940799603e-68 0.0000000000000000e+00  -1.0109106934413366e-67 -6.0008607871758878e-68 0.0000000000000000e+00  -3.1735249128279563e-66 1.7386761906639502e-66 0.0000000000000000e+00  -3.1941514893516180e-65 1.8230015230659266e-65 0.0000000000000000e+00  -5.3885779867710001e-65 5.0191067935917536e-66 0.0000000000000000e+00  -4.4442120073313649e-64 1.4389008281462496e-64 0.0000000000000000e+00  -7.0185170324317395e-63 4.3323816900601946e-63 0.0000000000000000e+00  -1.5087767451518542e-62 3.7232980715970561e-63 0.0000000000000000e+00  -8.4452275720821094e-62 1.9539818161781918e-62 0.0000000000000000e+00  -1.3606415110509848e-60 8.4528548287105549e-61 0.0000000000000000e+00  -2.4192895490768349e-60 3.3535651730306628e-61 0.0000000000000000e+00  -2.1221818993491439e-59 7.3359090793604105e-60 0.0000000000000000e+00  -2.4282028550828982e-58 1.4804097851517025e-58 0.0000000000000000e+00  -2.5802909741434843e-58 -9.3203953485848898e-59 0.0000000000000000e+00  -5.9998277871982224e-57 2.7523331854765982e-57 0.0000000000000000e+00  -2.4935139909829052e-56 1.2247944324546433e-56 0.0000000000000000e+00  -5.5559972819251555e-56 -8.5603382265455698e-57 0.0000000000000000e+00  -1.0166722243544208e-54 6.3962248587706625e-55 0.0000000000000000e+00  -1.1176842294363829e-54 -3.4154065435481868e-55 0.0000000000000000e+00  -2.4187006016761976e-53 1.2512600410603560e-53 0.0000000000000000e+00  -6.6184940867309836e-53 2.9429222084205655e-53 0.0000000000000000e+00  -4.3670011822677630e-52 1.2057622409728139e-52 0.0000000000000000e+00  -2.6797632894068449e-51 1.6348195241080470e-51 0.0000000000000000e+00  -7.6646910056991519e-51 -2.0795125863500857e-52 0.0000000000000000e+00  -7.2341273264651558e-50 4.5118192486068223e-50 0.0000000000000000e+00  -1.6162325897868093e-49 -1.4441008219380093e-50 0.0000000000000000e+00  -1.7373118252851171e-48 9.8983652520854582e-49 0.0000000000000000e+00  -4.3403140873496693e-48 -1.9856621769235570e-49 0.0000000000000000e+00  -2.0215487111815029e-47 1.0858471176093680e-47 0.0000000000000000e+00  -1.1042066663707347e-46 1.8561418483152042e-47 0.0000000000000000e+00  -1.0262274726115675e-46 2.4032672941524257e-47 0.0000000000000000e+00  -1.2438750651160297e-45 5.1312271770220366e-46 0.0000000000000000e+00  -8.7105684950620084e-46 -5.5402839638994828e-46 0.0000000000000000e+00  -1.3468470998423146e-44 7.8730266898852216e-45 0.0000000000000000e+00  -5.8026759575741454e-44 1.3401274708013577e-44 0.0000000000000000e+00  -3.6108795677819637e-44 -1.7064486886526428e-44 0.0000000000000000e+00  -1.1442672731530054e-43 6.3340200643250607e-44 0.0000000000000000e+00  -8.4192423797378857e-43 2.2565006410037585e-43 0.0000000000000000e+00  -1.9299080897633722e-42 1.9246117303519217e-43 0.0000000000000000e+00  -2.5125455823193560e-42 5.9453095033736797e-44 0.0000000000000000e+00  -2.0152840601085090e-42 -1.8977936504519836e-43 0.0000000000000000e+00  -8.6201108410588472e-43 -2.4411655679057651e-43 0.0000000000000000e+00  -1.1341971413944146e-43 -6.2815411608949262e-44 0.0000000000000000e+00  -3.8666220092095947e-44 1.8028055797291737e-44 0.0000000000000000e+00  -6.3224222107204609e-44 -1.0558286275280114e-44 0.0000000000000000e+00  -1.5027077266695906e-44 -7.6739569589799940e-45 0.0000000000000000e+00  -9.9609260347102729e-46 5.5330718422743890e-46 0.0000000000000000e+00  -1.4073121934360111e-45 -5.2601442301890553e-46 0.0000000000000000e+00  -1.1226324693218530e-46 -2.7887765866679032e-47 0.0000000000000000e+00  -1.0198053971014622e-46 -2.0958948298942756e-47 0.0000000000000000e+00  -1.8698097516207402e-47 -1.1708582339418761e-47 0.0000000000000000e+00  -4.0847831075088569e-48 1.9765504896278464e-49 0.0000000000000000e+00  -1.4944452960624655e-48 -9.1649393141725153e-49 0.0000000000000000e+00  -1.6313338729247787e-49 2.4003422573563055e-50 0.0000000000000000e+00  -7.4964168096882791e-50 -4.3344852753165309e-50 0.0000000000000000e+00  -8.2411900962908155e-51 6.2609289303987174e-52 0.0000000000000000e+00  -3.1616795436760111e-51 -1.7512160573525214e-51 0.0000000000000000e+00  -5.1136005704285590e-52 -1.1279100244991910e-52 0.0000000000000000e+00  -8.2388244782837836e-53 -3.4876518277103574e-53 0.0000000000000000e+00  -2.6740938684445321e-53 -1.2951511749196114e-53 0.0000000000000000e+00  -1.1941938652633011e-54 3.1895220431979520e-55 0.0000000000000000e+00  -1.0699411870008036e-54 -6.7077844871291766e-55 0.0000000000000000e+00  -5.1445506925131014e-56 8.2182453415161985e-57 0.0000000000000000e+00  -2.3484196312357976e-56 -1.3066581866817454e-56 0.0000000000000000e+00  -4.8457810954646955e-57 -2.4912066443770856e-57 0.0000000000000000e+00  -2.4513087531306535e-58 8.4453430853402529e-59 0.0000000000000000e+00  -2.1693664775240419e-58 -1.3141248807984313e-58 0.0000000000000000e+00  -1.9958932502267359e-59 -6.0871118820798978e-60 0.0000000000000000e+00  -2.3775968109894986e-60 -3.3629239772759729e-61 0.0000000000000000e+00  -1.2965697065363136e-60 -7.5407152304481546e-61 0.0000000000000000e+00  -7.7055007820072792e-62 -2.1273260766661280e-62 0.0000000000000000e+00  -1.3614246818392064e-62 -2.9072487783756434e-63 0.0000000000000000e+00  -6.6640166780897175e-63 -3.7611652200361586e-63 0.0000000000000000e+00  -4.7939749325360984e-64 -1.8081204011049963e-64 0.0000000000000000e+00  -4.3632896743870646e-65 9.5206382933127608e-67 0.0000000000000000e+00  -2.9572625364572538e-65 -1.6527577574255273e-65 0.0000000000000000e+00  -3.4231848175063917e-66 -1.9787756355096927e-66 0.0000000000000000e+00  -8.9681829172925567e-68 5.4535818686500901e-68 0.0000000000000000e+00  -8.6548190369753986e-68 -4.1598707818668337e-68 0.0000000000000000e+00  -2.0732169284815300e-68 -1.2801979522131468e-68 0.0000000000000000e+00  -1.1343498832495206e-69 -5.1176981957287188e-70 0.0000000000000000e+00  -8.7899033038136827e-71 1.3747400092066519e-71 0.0000000000000000e+00  -6.9182967837001905e-71 -3.6479279791479356e-71 0.0000000000000000e+00  -1.2496769686632021e-71 -7.6462568492452504e-72 0.0000000000000000e+00  -5.9867487073292454e-73 -2.7467889111163781e-73 0.0000000000000000e+00  -3.9225078047566719e-74 7.4124036938204012e-75 0.0000000000000000e+00  -3.1582650650897344e-74 -1.4774947329543541e-74 0.0000000000000000e+00  -6.5929855193572615e-75 -3.3550110214913423e-75 0.0000000000000000e+00  -7.1805561174392957e-76 -3.1065781094422490e-76 0.0000000000000000e+00  -8.5493466725669503e-76 -1.6230730144149708e-75 0.0000000000000000e+00  -4.7718693900930320e-75 -1.3947402191217385e-74 0.0000000000000000e+00  4.3611056451132544e-75 -8.3036519297396002e-75 0.0000000000000000e+00  -1.6271244554053555e-73 -3.4292186410341435e-73 0.0000000000000000e+00  -9.2674036652714489e-71 -1.0085155287788287e-70 0.0000000000000000e+00  -7.4886239186494756e-70 -1.3192520238027387e-69 0.0000000000000000e+00  -1.0953896164461693e-69 -3.6538415453237359e-69 0.0000000000000000e+00  -7.7368742243044807e-68 -1.7134530506232904e-67 0.0000000000000000e+00  -6.5073493897640021e-68 -3.2619190725446709e-67 0.0000000000000000e+00  -6.7638975773890808e-66 -1.3522072714029376e-65 0.0000000000000000e+00  -4.4993037033087654e-66 -2.1332844161347890e-65 0.0000000000000000e+00  -9.0251860881083890e-65 -1.5610830234740972e-64 0.0000000000000000e+00  1.7125298761337229e-65 -2.1028323274872323e-64 0.0000000000000000e+00  -4.2513945973264582e-62 -6.4211313509870803e-62 0.0000000000000000e+00  -6.9540888734910334e-62 -1.7240230772213225e-61 0.0000000000000000e+00  -2.3099880338643224e-62 -2.7297979669139218e-61 0.0000000000000000e+00  -5.6998606898310035e-60 -1.1391731580113859e-59 0.0000000000000000e+00  4.7273553619449823e-60 -1.4993217282228303e-59 0.0000000000000000e+00  -2.8772111402047802e-59 -4.7650386657543301e-59 0.0000000000000000e+00  8.7429086348358233e-60 -6.0810006290822451e-59 0.0000000000000000e+00  2.3030545581027052e-59 -3.9579114758512172e-59 0.0000000000000000e+00  -5.5836791694961369e-58 -8.9814449536812650e-58 0.0000000000000000e+00  -1.3659161154530491e-59 -1.2603239607015584e-57 0.0000000000000000e+00  -4.5857926130770976e-57 -1.1666394805051965e-56 0.0000000000000000e+00  5.6823086594971754e-57 -8.6376341908213279e-57 0.0000000000000000e+00  -5.2710942452711679e-57 -7.3721070034576232e-57 0.0000000000000000e+00  -1.7452110098664851e-56 -3.7847210435258632e-56 0.0000000000000000e+00  2.1332359395617595e-56 -4.0573850774480215e-56 0.0000000000000000e+00  -4.9359487216481063e-57 -9.2325862558505570e-57 0.0000000000000000e+00  -8.0077797861890105e-56 -2.0361812137369285e-55 0.0000000000000000e+00  6.2664827720095529e-56 -5.0732894247696996e-55 0.0000000000000000e+00  -4.2257496840692956e-55 -7.2841811864226342e-55 0.0000000000000000e+00  -4.8414051350023000e-56 -1.8361519362150190e-54 0.0000000000000000e+00  1.6336981870384544e-55 -5.7301886575025298e-55 0.0000000000000000e+00  -5.1012798855037077e-55 -1.6790467694867664e-54 0.0000000000000000e+00  -2.2170499476303815e-54 -7.0845977518849948e-54 0.0000000000000000e+00  2.5365837246722554e-54 -6.0641307575747545e-54 0.0000000000000000e+00  -6.6056028257844192e-55 -2.3932718169695050e-54 0.0000000000000000e+00  5.2239975564997875e-55 -2.8170771316224123e-54 0.0000000000000000e+00  1.2563710168092410e-55 -1.4244771965214877e-54 0.0000000000000000e+00  -2.1395567335436340e-54 -3.4752739314895909e-54 0.0000000000000000e+00  5.5914776333432408e-55 -8.2266202686974651e-54 0.0000000000000000e+00  -3.8561496909620868e-54 -1.3572291936601081e-53 0.0000000000000000e+00  4.6003340018126906e-54 -7.7026119239455993e-54 0.0000000000000000e+00  1.9911041688398280e-55 -6.5025577604959721e-55 0.0000000000000000e+00  -4.7060590815752289e-54 -8.0185391559115130e-54 0.0000000000000000e+00  4.7301812623431719e-54 -7.8640054160122439e-54 0.0000000000000000e+00  -1.6285354280881723e-56 -1.3351407131239956e-55 0.0000000000000000e+00  1.0924824814739112e-56 -2.7685119468914418e-55 0.0000000000000000e+00  2.1624561109322352e-56 -9.8798003231262170e-56 0.0000000000000000e+00  -5.0998164737745530e-54 -9.3521476014102618e-54 0.0000000000000000e+00  5.4400521860844748e-54 -9.4143200068171934e-54 0.0000000000000000e+00  5.5623589569307002e-56 -1.0527527747409857e-55 0.0000000000000000e+00  -1.4043140211538481e-56 -6.2030963602328151e-56 0.0000000000000000e+00  -4.9012779893608723e-55 -9.0356539238025235e-55 0.0000000000000000e+00  -5.7020974719735804e-54 -1.0030480625597561e-53 0.0000000000000000e+00  4.4180458867800525e-54 -1.0506267700287223e-53 0.0000000000000000e+00  -2.9951515701410754e-54 -7.9745788236226975e-54 0.0000000000000000e+00  2.3938955941679983e-54 -8.5594504481149937e-54 0.0000000000000000e+00  2.2058704680915737e-54 -3.3159535920156054e-54 0.0000000000000000e+00  -5.3400740176411912e-55 -1.4773812503704783e-54 0.0000000000000000e+00  8.2142559352381445e-55 -1.5781264770756836e-54 0.0000000000000000e+00  -4.8387098420049500e-55 -9.8077206532810198e-55 0.0000000000000000e+00  5.0418714332471962e-55 -8.8837380041091093e-55 0.0000000000000000e+00  -1.5413308930075146e-56 -2.6832134851057510e-56 0.0000000000000000e+00  -4.4034956468006293e-56 -1.7193253306586350e-55 0.0000000000000000e+00  4.1132859970889086e-56 -1.7494329068870675e-55 0.0000000000000000e+00  4.7472191443337911e-57 -6.9063821615457757e-56 0.0000000000000000e+00  -2.7095821325549357e-56 -6.5254203412548960e-56 0.0000000000000000e+00  3.2435085241496219e-56 -6.4347295814344371e-56 0.0000000000000000e+00  -2.8210849745540351e-57 -2.8715119244636427e-56 0.0000000000000000e+00  1.2802862434853533e-56 -3.0104246717067454e-56 0.0000000000000000e+00  9.9074156352449843e-58 -2.4055276004264606e-57 0.0000000000000000e+00  -4.3308947584218814e-57 -7.6109028277049555e-57 0.0000000000000000e+00  4.2050452189994429e-57 -1.1033700071368788e-56 0.0000000000000000e+00  3.0917324455530324e-58 -1.0232600671251184e-57 0.0000000000000000e+00  1.4236166191313127e-58 -5.0350