<?xml version="1.0"?>
<VTKFile type="UnstructuredGrid"  version="0.1"  >
<UnstructuredGrid>
<Piece  NumberOfPoints="11902" NumberOfCells="23402">
<Points>
<DataArray  type="Float64"  NumberOfComponents="3"  format="ascii">-5 -5 0  5 -5 0  5 5 0  -5 5 0  1.265471901266782 0.001275516879703514 0  -4.9 -5 0  -4.8 -5 0  -4.7 -5 0  -4.6 -5 0  -4.5 -5 0  -4.4 -5 0  -4.3 -5 0  -4.2 -5 0  -4.1 -5 0  -4 -5 0  -3.9 -5 0  -3.8 -5 0  -3.7 -5 0  -3.6 -5 0  -3.5 -5 0  -3.4 -5 0  -3.3 -5 0  -3.2 -5 0  -3.1 -5 0  -3 -5 0  -2.9 -5 0  -2.8 -5 0  -2.7 -5 0  -2.6 -5 0  -2.5 -5 0  -2.4 -5 0  -2.3 -5 0  -2.2 -5 0  -2.1 -5 0  -2 -5 0  -1.9 -5 0  -1.8 -5 0  -1.7 -5 0  -1.6 -5 0  -1.5 -5 0  -1.4 -5 0  -1.3 -5 0  -1.2 -5 0  -1.1 -5 0  -1 -5 0  -0.9000000000000004 -5 0  -0.7999999999999998 -5 0  -0.7000000000000002 -5 0  -0.5999999999999996 -5 0  -0.5 -5 0  -0.4000000000000004 -5 0  -0.2999999999999998 -5 0  -0.2000000000000002 -5 0  -0.09999999999999964 -5 0  0 -5 0  0.09999999999999964 -5 0  0.2000000000000002 -5 0  0.2999999999999998 -5 0  0.4000000000000004 -5 0  0.5 -5 0  0.5999999999999996 -5 0  0.7000000000000002 -5 0  0.7999999999999998 -5 0  0.9000000000000004 -5 0  1 -5 0  1.1 -5 0  1.2 -5 0  1.3 -5 0  1.4 -5 0  1.5 -5 0  1.6 -5 0  1.7 -5 0  1.8 -5 0  1.9 -5 0  2 -5 0  2.1 -5 0  2.2 -5 0  2.3 -5 0  2.4 -5 0  2.5 -5 0  2.6 -5 0  2.7 -5 0  2.8 -5 0  2.9 -5 0  3 -5 0  3.1 -5 0  3.199999999999999 -5 0  3.300000000000001 -5 0  3.4 -5 0  3.5 -5 0  3.6 -5 0  3.699999999999999 -5 0  3.800000000000001 -5 0  3.9 -5 0  4 -5 0  4.1 -5 0  4.199999999999999 -5 0  4.300000000000001 -5 0  4.4 -5 0  4.5 -5 0  4.6 -5 0  4.699999999999999 -5 0  4.800000000000001 -5 0  4.9 -5 0  5 -4.9 0  5 -4.8 0  5 -4.7 0  5 -4.6 0  5 -4.5 0  5 -4.4 0  5 -4.3 0  5 -4.2 0  5 -4.1 0  5 -4 0  5 -3.9 0  5 -3.8 0  5 -3.7 0  5 -3.6 0  5 -3.5 0  5 -3.4 0  5 -3.3 0  5 -3.2 0  5 -3.1 0  5 -3 0  5 -2.9 0  5 -2.8 0  5 -2.7 0  5 -2.6 0  5 -2.5 0  5 -2.4 0  5 -2.3 0  5 -2.2 0  5 -2.1 0  5 -2 0  5 -1.9 0  5 -1.8 0  5 -1.7 0  5 -1.6 0  5 -1.5 0  5 -1.4 0  5 -1.3 0  5 -1.2 0  5 -1.1 0  5 -1 0  5 -0.9000000000000004 0  5 -0.7999999999999998 0  5 -0.7000000000000002 0  5 -0.5999999999999996 0  5 -0.5 0  5 -0.4000000000000004 0  5 -0.2999999999999998 0  5 -0.2000000000000002 0  5 -0.09999999999999964 0  5 0 0  5 0.09999999999999964 0  5 0.2000000000000002 0  5 0.2999999999999998 0  5 0.4000000000000004 0  5 0.5 0  5 0.5999999999999996 0  5 0.7000000000000002 0  5 0.7999999999999998 0  5 0.9000000000000004 0  5 1 0  5 1.1 0  5 1.2 0  5 1.3 0  5 1.4 0  5 1.5 0  5 1.6 0  5 1.7 0  5 1.8 0  5 1.9 0  5 2 0  5 2.1 0  5 2.2 0  5 2.3 0  5 2.4 0  5 2.5 0  5 2.6 0  5 2.7 0  5 2.8 0  5 2.9 0  5 3 0  5 3.1 0  5 3.199999999999999 0  5 3.300000000000001 0  5 3.4 0  5 3.5 0  5 3.6 0  5 3.699999999999999 0  5 3.800000000000001 0  5 3.9 0  5 4 0  5 4.1 0  5 4.199999999999999 0  5 4.300000000000001 0  5 4.4 0  5 4.5 0  5 4.6 0  5 4.699999999999999 0  5 4.800000000000001 0  5 4.9 0  4.9 5 0  4.8 5 0  4.7 5 0  4.6 5 0  4.5 5 0  4.4 5 0  4.3 5 0  4.2 5 0  4.1 5 0  4 5 0  3.9 5 0  3.8 5 0  3.7 5 0  3.6 5 0  3.5 5 0  3.4 5 0  3.3 5 0  3.2 5 0  3.1 5 0  3 5 0  2.9 5 0  2.8 5 0  2.7 5 0  2.6 5 0  2.5 5 0  2.4 5 0  2.3 5 0  2.2 5 0  2.1 5 0  2 5 0  1.9 5 0  1.8 5 0  1.7 5 0  1.6 5 0  1.5 5 0  1.4 5 0  1.3 5 0  1.2 5 0  1.1 5 0  1 5 0  0.9000000000000004 5 0  0.7999999999999998 5 0  0.7000000000000002 5 0  0.5999999999999996 5 0  0.5 5 0  0.4000000000000004 5 0  0.2999999999999998 5 0  0.2000000000000002 5 0  0.09999999999999964 5 0  0 5 0  -0.09999999999999964 5 0  -0.2000000000000002 5 0  -0.2999999999999998 5 0  -0.4000000000000004 5 0  -0.5 5 0  -0.5999999999999996 5 0  -0.7000000000000002 5 0  -0.7999999999999998 5 0  -0.9000000000000004 5 0  -1 5 0  -1.1 5 0  -1.2 5 0  -1.3 5 0  -1.4 5 0  -1.5 5 0  -1.6 5 0  -1.7 5 0  -1.8 5 0  -1.9 5 0  -2 5 0  -2.1 5 0  -2.2 5 0  -2.3 5 0  -2.4 5 0  -2.5 5 0  -2.6 5 0  -2.7 5 0  -2.8 5 0  -2.9 5 0  -3 5 0  -3.1 5 0  -3.199999999999999 5 0  -3.300000000000001 5 0  -3.4 5 0  -3.5 5 0  -3.6 5 0  -3.699999999999999 5 0  -3.800000000000001 5 0  -3.9 5 0  -4 5 0  -4.1 5 0  -4.199999999999999 5 0  -4.300000000000001 5 0  -4.4 5 0  -4.5 5 0  -4.6 5 0  -4.699999999999999 5 0  -4.800000000000001 5 0  -4.9 5 0  -5 4.9 0  -5 4.8 0  -5 4.7 0  -5 4.6 0  -5 4.5 0  -5 4.4 0  -5 4.3 0  -5 4.2 0  -5 4.1 0  -5 4 0  -5 3.9 0  -5 3.8 0  -5 3.7 0  -5 3.6 0  -5 3.5 0  -5 3.4 0  -5 3.3 0  -5 3.2 0  -5 3.1 0  -5 3 0  -5 2.9 0  -5 2.8 0  -5 2.7 0  -5 2.6 0  -5 2.5 0  -5 2.4 0  -5 2.3 0  -5 2.2 0  -5 2.1 0  -5 2 0  -5 1.9 0  -5 1.8 0  -5 1.7 0  -5 1.6 0  -5 1.5 0  -5 1.4 0  -5 1.3 0  -5 1.2 0  -5 1.1 0  -5 1 0  -5 0.9000000000000004 0  -5 0.7999999999999998 0  -5 0.7000000000000002 0  -5 0.5999999999999996 0  -5 0.5 0  -5 0.4000000000000004 0  -5 0.2999999999999998 0  -5 0.2000000000000002 0  -5 0.09999999999999964 0  -5 0 0  -5 -0.09999999999999964 0  -5 -0.2000000000000002 0  -5 -0.2999999999999998 0  -5 -0.4000000000000004 0  -5 -0.5 0  -5 -0.5999999999999996 0  -5 -0.7000000000000002 0  -5 -0.7999999999999998 0  -5 -0.9000000000000004 0  -5 -1 0  -5 -1.1 0  -5 -1.2 0  -5 -1.3 0  -5 -1.4 0  -5 -1.5 0  -5 -1.6 0  -5 -1.7 0  -5 -1.8 0  -5 -1.9 0  -5 -2 0  -5 -2.1 0  -5 -2.2 0  -5 -2.3 0  -5 -2.4 0  -5 -2.5 0  -5 -2.6 0  -5 -2.7 0  -5 -2.8 0  -5 -2.9 0  -5 -3 0  -5 -3.1 0  -5 -3.199999999999999 0  -5 -3.300000000000001 0  -5 -3.4 0  -5 -3.5 0  -5 -3.6 0  -5 -3.699999999999999 0  -5 -3.800000000000001 0  -5 -3.9 0  -5 -4 0  -5 -4.1 0  -5 -4.199999999999999 0  -5 -4.300000000000001 0  -5 -4.4 0  -5 -4.5 0  -5 -4.6 0  -5 -4.699999999999999 0  -5 -4.800000000000001 0  -5 -4.9 0  1.257654696671993 0.09202974848457533 0  1.235495087318099 0.1896649282727682 0  1.201420556641111 0.2866794927453014 0  1.158760619720941 0.3754204250931044 0  1.099868671311645 0.4666673709545055 0  1.032795284575453 0.5497895817210624 0  0.9544439528683276 0.630447456266818 0  0.8672888234473433 0.7052029295200946 0  0.7754706111233749 0.7701820345635008 0  0.6740503415569093 0.8276827097969784 0  0.5601067737033423 0.8799474126853569 0  0.4459422572903933 0.9250593547240575 0  0.3363531945728285 0.9563689601947704 0  0.2088070019979903 0.9795514895409932 0  0.08676026867764906 0.9974857818193175 0  -0.0260066947772799 1.001152645275229 0  -0.1436604391380695 0.9877868452002431 0  -0.2749086131924068 0.9674363228482171 0  -0.3955981506304244 0.9430428617313379 0  -0.5043652322875517 0.9084087876352965 0  -0.6135221275219237 0.8620912001161417 0  -0.7153813500733444 0.8067348486951916 0  -0.809570339245047 0.7427186509868907 0  -0.9012857762605474 0.669027606561558 0  -0.9881215747119145 0.5885291707649077 0  -1.063079872477734 0.5065144988541319 0  -1.125573611066426 0.4225774041401268 0  -1.181870807310359 0.3274724568916253 0  -1.218872860607731 0.2416274853781143 0  -1.243007527625712 0.1483694180689797 0  -1.252996794516557 0.05300547175218023 0  -1.252916895521432 -0.05071044229237567 0  -1.242793789545015 -0.1453327019617953 0  -1.218516772266985 -0.2350831155379192 0  -1.175920510948242 -0.3309257155170519 0  -1.125867508176011 -0.423785331447938 0  -1.065527183324808 -0.5061667553563961 0  -0.9907520392534876 -0.5875360134729137 0  -0.904511839969776 -0.6669753401854064 0  -0.8139300828949496 -0.7378525068812326 0  -0.7190231216168796 -0.7981725940543506 0  -0.6146970140407808 -0.8517449054347204 0  -0.4978355983440381 -0.9015785322278245 0  -0.3857627510861882 -0.9413929257194567 0  -0.2716153549133035 -0.9673011609699949 0  -0.1417893489180162 -0.9879032737469021 0  -0.02740978676961928 -1.000365782876797 0  0.08464369828738427 -0.993027750772137 0  0.2159561835046303 -0.9749306379128073 0  0.339560501666597 -0.954340436059834 0  0.4502656286597681 -0.9236976545811031 0  0.5630749582420144 -0.879121786224996 0  0.6754615277799761 -0.8274210223054649 0  0.7750533757823497 -0.7715030203450802 0  0.8657589507407081 -0.7073235137038639 0  0.951090160582881 -0.6316925956865426 0  1.030547325117876 -0.5481070022335721 0  1.102081560955415 -0.4643452485328948 0  1.159764493107966 -0.3754746845776701 0  1.203308837809753 -0.2847669676696959 0  1.236244173814506 -0.189158153838184 0  1.258063697995607 -0.09233966817003762 0  -2.448506553574138 4.918017379855977 0  -2.448375379913688 -4.910386619989567 0  4.910306467986538 2.447817895486169 0  4.918443437955595 -2.44928677040357 0  2.446095518095773 -4.895599695092757 0  2.440531093014207 4.899366210145837 0  -4.91033375013624 -2.447845208574664 0  -4.910331075767776 2.447849461311662 0  -1.748458454860575 4.910861503615298 0  -1.744246965829931 -4.914308345476125 0  4.920453301874004 1.744000083138546 0  4.908961481540905 -1.747751492435749 0  -4.909256552271881 -1.747486568878435 0  -4.910080646213927 1.747232632550524 0  1.745726834827026 4.904706161645198 0  1.747132836007673 -4.892830621513817 0  -1.148781021723636 4.908611423430447 0  -1.129642848442696 -4.916544350523277 0  -4.908925699140744 -1.147829170605911 0  -4.908743515894604 1.147630030032983 0  1.143778891494229 -4.912719884784828 0  1.148790222005374 4.908597285038293 0  4.909064940708427 1.146103676638713 0  4.919928822396566 -1.151897691360096 0  -0.5466368954402093 -4.909782563467897 0  -0.5464234125196017 4.918490382449418 0  -4.907619318712752 -0.5486536201193012 0  -4.907643312551002 0.5472121328899709 0  4.906935049668069 -0.5489715091162976 0  4.918632059838997 0.5457355571338106 0  0.5424161286733712 -4.896623782541747 0  0.5511499950657112 4.915304059111562 0  -4.911799652556431 -3.048216569726208 0  4.918377299075892 3.046237646163648 0  4.911306857767848 -3.048191303790497 0  -4.912648189364308 3.045309024249451 0  3.055238893781834 -4.917298874197372 0  -3.048564849499007 -4.911228369649047 0  3.052133667269637 4.913307827512029 0  -3.04801122644807 4.912119181855529 0  -4.906712885888897 -0.04990214350340864 0  0.04511778113692623 -4.911730607356208 0  0.04956442497492942 4.918777516156992 0  4.913792095819785 -0.05128507181213204 0  3.545570519216782 -4.918968380275766 0  -3.54884676684
[...]
<PointData  Vectors="f_7134"> 
<DataArray  type="Float64"  Name="f_7134"  NumberOfComponents="3" format="ascii">2.6559658580600297e-76 2.6559658580600297e-76 0.0000000000000000e+00  -2.8445085011138821e-76 2.8445085011138821e-76 0.0000000000000000e+00  -8.5659604779174690e-78 -8.5659604779174690e-78 0.0000000000000000e+00  3.0308186857311747e-76 -3.0308186857311747e-76 0.0000000000000000e+00  7.8200535981690822e-01 7.9518268149322002e-03 0.0000000000000000e+00  4.1660806864196526e-75 6.6060954922599850e-75 0.0000000000000000e+00  2.0822351272706483e-75 2.0880104141376287e-74 0.0000000000000000e+00  -3.4063120398481112e-75 6.7719772943666989e-75 0.0000000000000000e+00  4.0008698515794142e-72 6.6674683336528489e-72 0.0000000000000000e+00  5.3179768688700355e-71 1.3457287844961339e-70 0.0000000000000000e+00  -7.9224111253107360e-72 4.5554525260688153e-71 0.0000000000000000e+00  3.2354568737173063e-69 6.1614156634914929e-69 0.0000000000000000e+00  5.1635380908792007e-68 9.3971339072744763e-68 0.0000000000000000e+00  -3.0664837900137901e-68 1.5001928677279278e-67 0.0000000000000000e+00  1.2774070270886496e-67 3.9812116707577931e-67 0.0000000000000000e+00  1.2621016088879853e-68 8.7791406309990066e-67 0.0000000000000000e+00  5.4551933319410107e-64 8.8204871464743542e-64 0.0000000000000000e+00  4.7423915216955805e-65 2.4418729909334452e-63 0.0000000000000000e+00  1.3502005604237200e-62 2.1982880814370042e-62 0.0000000000000000e+00  8.0710041015592439e-63 8.3177569406121274e-62 0.0000000000000000e+00  6.9374109354980134e-61 1.1018906428992357e-60 0.0000000000000000e+00  4.0661284150299324e-60 7.0042232800230748e-60 0.0000000000000000e+00  -2.8498476854672883e-60 7.7008187241540622e-60 0.0000000000000000e+00  5.6679371336925578e-59 1.1364413597698505e-58 0.0000000000000000e+00  -1.7607720322958300e-59 1.1647574375326527e-58 0.0000000000000000e+00  -3.0067719390902891e-59 6.8404758705851052e-59 0.0000000000000000e+00  1.8043469656457634e-58 3.3030230197953518e-58 0.0000000000000000e+00  7.3071310424677898e-58 2.0889387232466439e-57 0.0000000000000000e+00  2.8641262022079315e-57 6.2309218263476312e-57 0.0000000000000000e+00  -3.4117123570095162e-57 5.7404534928748077e-57 0.0000000000000000e+00  -3.5271907460098751e-58 1.0980430409250851e-57 0.0000000000000000e+00  1.9112088074446252e-56 2.9306187835253269e-56 0.0000000000000000e+00  -1.4156282038057827e-56 3.5318869367749775e-56 0.0000000000000000e+00  1.1930821776175303e-56 2.8925771842504775e-56 0.0000000000000000e+00  8.7507195463048368e-56 2.0969281025966235e-55 0.0000000000000000e+00  -2.5167044099277744e-56 5.7435478642100764e-55 0.0000000000000000e+00  5.2188127433956468e-57 8.6087711805657739e-57 0.0000000000000000e+00  5.5537637077900554e-56 1.3812927739746425e-55 0.0000000000000000e+00  1.5514899619285982e-55 6.1683824038878392e-55 0.0000000000000000e+00  -2.2403363366014920e-55 3.5178410878984218e-55 0.0000000000000000e+00  9.8541269122682264e-55 1.7222484572738682e-54 0.0000000000000000e+00  -4.4299348527760359e-55 4.3616700974271646e-54 0.0000000000000000e+00  -2.2876308513758109e-55 2.6821050286327444e-54 0.0000000000000000e+00  -9.6384588062888071e-56 9.4401056192461256e-55 0.0000000000000000e+00  -1.1334156790433512e-55 1.8227451280563892e-55 0.0000000000000000e+00  2.7656102640674678e-54 5.2318397084808925e-54 0.0000000000000000e+00  -2.1644720687038232e-54 4.1400550630699343e-54 0.0000000000000000e+00  -7.2076582050246282e-55 8.0839095392160843e-55 0.0000000000000000e+00  -1.3233961216148581e-55 2.7135966502852424e-55 0.0000000000000000e+00  9.3237474935700169e-55 1.4448064418010543e-54 0.0000000000000000e+00  9.4757339465099574e-55 6.1540139040477364e-54 0.0000000000000000e+00  -1.1311217597539914e-54 5.8988759675843900e-54 0.0000000000000000e+00  5.1585440521542925e-55 4.6478337873190535e-54 0.0000000000000000e+00  1.9114939184957468e-56 5.7927703546406881e-54 0.0000000000000000e+00  3.0244401282311031e-55 6.1509235239924140e-54 0.0000000000000000e+00  -1.2645365407710953e-54 2.0440593709219685e-54 0.0000000000000000e+00  -6.4693225884147580e-55 1.4722440621374372e-53 0.0000000000000000e+00  4.4740129370090877e-54 7.4699927799749328e-54 0.0000000000000000e+00  -4.3572237269189940e-54 8.0946416704950793e-54 0.0000000000000000e+00  1.9262981729528271e-54 3.9575096969267819e-54 0.0000000000000000e+00  -7.3771229404938136e-55 9.4981224705717344e-54 0.0000000000000000e+00  1.3343244740331753e-54 9.3291640438489584e-54 0.0000000000000000e+00  -1.6887158176759048e-54 4.3954966842030070e-54 0.0000000000000000e+00  -9.2708868047449512e-55 2.4041184988902278e-54 0.0000000000000000e+00  3.3392064705561195e-55 1.2998074232260936e-54 0.0000000000000000e+00  2.6635239055167806e-55 2.5377445140358812e-54 0.0000000000000000e+00  -7.8393589994877054e-56 3.4896930459553900e-54 0.0000000000000000e+00  -7.1279344262637268e-55 1.4808704401302611e-54 0.0000000000000000e+00  2.3829548351134734e-55 4.4281993027320329e-55 0.0000000000000000e+00  -2.3143497710875847e-55 6.0210903869705340e-55 0.0000000000000000e+00  5.0443510703822063e-56 2.3985103294595571e-55 0.0000000000000000e+00  1.8703941281018920e-55 9.5260048258795638e-55 0.0000000000000000e+00  -3.3098746206691842e-55 5.2980757012441432e-55 0.0000000000000000e+00  -1.5936499176639722e-56 4.8201268325892632e-56 0.0000000000000000e+00  -1.1366208589458403e-57 1.1331458373967651e-56 0.0000000000000000e+00  6.7658756226834438e-57 2.3559557741738748e-56 0.0000000000000000e+00  -9.0070244458807405e-57 1.5008322324589613e-56 0.0000000000000000e+00  1.7445566044017325e-57 2.8893977281780632e-57 0.0000000000000000e+00  -1.2460444852778643e-57 2.7226091280821789e-57 0.0000000000000000e+00  5.1834710845327761e-57 7.8161055461750423e-57 0.0000000000000000e+00  -4.5384679700417051e-57 1.1244490623474169e-56 0.0000000000000000e+00  -1.8158598406976613e-58 9.3924859580038819e-58 0.0000000000000000e+00  -2.3946469620342342e-58 4.6491674094120369e-58 0.0000000000000000e+00  -7.8853697256197084e-61 8.8102302383801736e-59 0.0000000000000000e+00  -2.4479871050962510e-59 6.4195726302026704e-59 0.0000000000000000e+00  -7.1210722457127073e-60 2.4988332571454896e-59 0.0000000000000000e+00  -4.3872986303120969e-60 2.2381510354953687e-59 0.0000000000000000e+00  -3.0645032222680667e-60 7.1645788255936198e-60 0.0000000000000000e+00  -8.5279015202144030e-62 4.4342433355453235e-61 0.0000000000000000e+00  -1.0763401610014042e-61 2.2329516367807187e-61 0.0000000000000000e+00  -3.5885533589404577e-62 5.6710624029993780e-62 0.0000000000000000e+00  -3.9112207495574729e-64 6.6944456040970226e-64 0.0000000000000000e+00  -2.4318753459605606e-65 5.1689398954992866e-65 0.0000000000000000e+00  3.7093167547328527e-66 1.0389556682713172e-65 0.0000000000000000e+00  -4.8433223674942470e-66 9.2587378998869223e-66 0.0000000000000000e+00  -6.7010607826779827e-68 2.7707070049224414e-67 0.0000000000000000e+00  -7.8547857048132643e-68 1.2913906541290709e-67 0.0000000000000000e+00  -8.0621643415581955e-69 1.1728776059497871e-68 0.0000000000000000e+00  -5.6341141223408321e-70 9.5183442245495652e-70 0.0000000000000000e+00  -3.7798883444942529e-71 6.8175786388399229e-71 0.0000000000000000e+00  -1.8786137259418806e-72 3.2022980452100192e-72 0.0000000000000000e+00  -1.2178168898196607e-73 2.7265846256247542e-73 0.0000000000000000e+00  -4.4213702366036108e-75 1.2911100624303136e-74 0.0000000000000000e+00  -2.5481846523070119e-75 4.2410848520643187e-75 0.0000000000000000e+00  -9.7686932803505739e-76 3.5585042771780396e-76 0.0000000000000000e+00  -1.6211713603838314e-75 -2.3928544619239513e-76 0.0000000000000000e+00  -2.4487419153427234e-74 1.1592445374044120e-74 0.0000000000000000e+00  -3.6791020415239533e-74 1.5506899059575685e-75 0.0000000000000000e+00  -3.8827110135856102e-73 1.4337962127040327e-73 0.0000000000000000e+00  -1.0235324895911476e-71 6.2404807608418639e-72 0.0000000000000000e+00  -6.7391463026354688e-71 3.7099471203883408e-71 0.0000000000000000e+00  -1.0610187420158199e-70 3.9051889955290601e-72 0.0000000000000000e+00  -8.8987171975034428e-70 3.3107838723961425e-70 0.0000000000000000e+00  -2.1277749907291525e-68 1.2873737388589034e-68 0.0000000000000000e+00  -1.0233603699963380e-67 5.1144204794325304e-68 0.0000000000000000e+00  -1.0140649539225031e-67 -6.0318657488588093e-68 0.0000000000000000e+00  -3.1642759649832887e-66 1.7477882775098073e-66 0.0000000000000000e+00  -3.1835014098806734e-65 1.8337674085743799e-65 0.0000000000000000e+00  -5.3854003461399308e-65 5.0520914628429758e-66 0.0000000000000000e+00  -4.4351662667866452e-64 1.4482329016535450e-64 0.0000000000000000e+00  -6.9882887233480921e-63 4.3650219419296833e-63 0.0000000000000000e+00  -1.5060124829630397e-62 3.7541137180890469e-63 0.0000000000000000e+00  -8.4311489769092308e-62 1.9692823504141864e-62 0.0000000000000000e+00  -1.3538611841503221e-60 8.5321962284035025e-61 0.0000000000000000e+00  -2.4164620112138655e-60 3.3880057724336259e-61 0.0000000000000000e+00  -2.1160065727388237e-59 7.4106790402110532e-60 0.0000000000000000e+00  -2.4150096979547429e-58 1.4973972361402454e-58 0.0000000000000000e+00  -2.5889147657085227e-58 -9.4372100428503499e-59 0.0000000000000000e+00  -5.9742120967585551e-57 2.7872781288956237e-57 0.0000000000000000e+00  -2.4817725716188085e-56 1.2417746846823789e-56 0.0000000000000000e+00  -5.5646505680034686e-56 -8.7067504906887062e-57 0.0000000000000000e+00  -1.0103840111512715e-54 6.4941860484930493e-55 0.0000000000000000e+00  -1.1210768306686743e-54 -3.4719741944086760e-55 0.0000000000000000e+00  -2.4062491650035350e-53 1.2722182899818783e-53 0.0000000000000000e+00  -6.5892641618102582e-53 2.9960966158581443e-53 0.0000000000000000e+00  -4.3549396359153893e-52 1.2271330276034654e-52 0.0000000000000000e+00  -2.6637932338031478e-51 1.6669976587171801e-51 0.0000000000000000e+00  -7.6660019957547930e-51 -2.1510652255365355e-52 0.0000000000000000e+00  -7.1916862842847997e-50 4.6081179530160789e-50 0.0000000000000000e+00  -1.6173264711136791e-49 -1.4820512553763652e-50 0.0000000000000000e+00  -1.7285643141010962e-48 1.0125567928719051e-48 0.0000000000000000e+00  -4.3412407863545055e-48 -2.0465369880235220e-49 0.0000000000000000e+00  -2.0128643227482605e-47 1.1125261343226101e-47 0.0000000000000000e+00  -1.1025880618374937e-46 1.9001762138759558e-47 0.0000000000000000e+00  -1.0246022250337350e-46 2.4662709988131163e-47 0.0000000000000000e+00  -1.2403994839452590e-45 5.2659398275062474e-46 0.0000000000000000e+00  -8.7397251285954424e-46 -5.6930737367386731e-46 0.0000000000000000e+00  -1.3427559071227780e-44 8.0905961699663427e-45 0.0000000000000000e+00  -5.7953922304514188e-44 1.3771195031117131e-44 0.0000000000000000e+00  -3.6156111713368184e-44 -1.7557600241110832e-44 0.0000000000000000e+00  -1.1424569123058006e-43 6.5167898946968051e-44 0.0000000000000000e+00  -8.4127924882941689e-43 2.3217902394761029e-43 0.0000000000000000e+00  -1.9290868460730578e-42 1.9803338413496369e-43 0.0000000000000000e+00  -2.5116735019260707e-42 6.1197699885825098e-44 0.0000000000000000e+00  -2.0144607947763626e-42 -1.9527443378387958e-43 0.0000000000000000e+00  -8.6134534139408596e-43 -2.5118769378931458e-43 0.0000000000000000e+00  -1.1324198527366135e-43 -6.4628621022804072e-44 0.0000000000000000e+00  -3.8716039595000437e-44 1.8549046260045499e-44 0.0000000000000000e+00  -6.3163150129039423e-44 -1.0847820368093590e-44 0.0000000000000000e+00  -1.4987247691799653e-44 -7.8860378459714673e-45 0.0000000000000000e+00  -9.9900253097590056e-46 5.6856573484951312e-46 0.0000000000000000e+00  -1.4037632343472226e-45 -5.3983726873380644e-46 0.0000000000000000e+00  -1.1207318348715661e-46 -2.8617201447866312e-47 0.0000000000000000e+00  -1.0180405702157215e-46 -2.1464560523166798e-47 0.0000000000000000e+00  -1.8604786295135506e-47 -1.1996884849074075e-47 0.0000000000000000e+00  -4.0856587923991083e-48 2.0379094887819148e-49 0.0000000000000000e+00  -1.4863635745907540e-48 -9.3757608603760776e-49 0.0000000000000000e+00  -1.6332858578852647e-49 2.4599213782221629e-50 0.0000000000000000e+00  -7.4556696551757171e-50 -4.4270701351612799e-50 0.0000000000000000e+00  -8.2465050579476512e-51 6.4187600977464129e-52 0.0000000000000000e+00  -3.1445880525170187e-51 -1.7857589107875468e-51 0.0000000000000000e+00  -5.1023005548419823e-52 -1.1477491879190839e-52 0.0000000000000000e+00  -8.2041956903317526e-53 -3.5507142283222055e-53 0.0000000000000000e+00  -2.6612075855206672e-53 -1.3168938391517091e-53 0.0000000000000000e+00  -1.1973613518395396e-54 3.2423626020983944e-55 0.0000000000000000e+00  -1.0633472194196631e-54 -6.8105741480806120e-55 0.0000000000000000e+00  -5.1528490386405495e-56 8.3584403922663671e-57 0.0000000000000000e+00  -2.3358956247185900e-56 -1.3247710229658042e-56 0.0000000000000000e+00  -4.8225856746205923e-57 -2.5228824435326675e-57 0.0000000000000000e+00  -2.4591287592132034e-58 8.5514487051918989e-59 0.0000000000000000e+00  -2.1576386279641510e-58 -1.3292658996563670e-58 0.0000000000000000e+00  -1.9907803848076942e-59 -6.1489237453957221e-60 0.0000000000000000e+00  -2.3747603448112179e-60 -3.3975202515455768e-61 0.0000000000000000e+00  -1.2905146782761058e-60 -7.6117008072288279e-61 0.0000000000000000e+00  -7.6899036460738248e-62 -2.1445015895802315e-62 0.0000000000000000e+00  -1.3592573855839492e-62 -2.9314900273342098e-63 0.0000000000000000e+00  -6.6376979472237652e-63 -3.7896586700756690e-63 0.0000000000000000e+00  -4.7824130210741482e-64 -1.8201532829483409e-64 0.0000000000000000e+00  -4.3638945494904601e-65 9.5835801196632259e-67 0.0000000000000000e+00  -2.9475879342861011e-65 -1.6625547917208022e-65 0.0000000000000000e+00  -3.4126075103045345e-66 -1.9892219753209140e-66 0.0000000000000000e+00  -8.9971554654578279e-68 5.4821607582220661e-68 0.0000000000000000e+00  -8.6354322495051106e-68 -4.1784871542911738e-68 0.0000000000000000e+00  -2.0678722031325414e-68 -1.2852396020947729e-68 0.0000000000000000e+00  -1.1325348980049320e-69 -5.1344621171059841e-70 0.0000000000000000e+00  -8.7947002917919140e-71 1.3791706684517795e-71 0.0000000000000000e+00  -6.9075459798814595e-71 -3.6577186282037266e-71 0.0000000000000000e+00  -1.2477948299889220e-71 -7.6632155626982611e-72 0.0000000000000000e+00  -5.9816397865335957e-73 -2.7513398414832305e-73 0.0000000000000000e+00  -3.9238320426698286e-74 7.4242030727110749e-75 0.0000000000000000e+00  -3.1564343378029336e-74 -1.4791153743415454e-74 0.0000000000000000e+00  -6.5904761015976811e-75 -3.3572238135748219e-75 0.0000000000000000e+00  -7.1798558537540788e-76 -3.1071938336996721e-76 0.0000000000000000e+00  -8.5521150292119946e-76 -1.6228295094554877e-75 0.0000000000000000e+00  -4.7736725387300528e-75 -1.3945808329510800e-74 0.0000000000000000e+00  4.3674849785873669e-75 -8.3092185745947071e-75 0.0000000000000000e+00  -1.6295973519888487e-73 -3.4270618536678104e-73 0.0000000000000000e+00  -9.2869395006116630e-71 -1.0068241463015954e-70 0.0000000000000000e+00  -7.5080755431544631e-70 -1.3175843277353359e-69 0.0000000000000000e+00  -1.0987230203191546e-69 -3.6510100311570969e-69 0.0000000000000000e+00  -7.7632916173813934e-68 -1.7112283757253655e-67 0.0000000000000000e+00  -6.5332730657202975e-68 -3.2597684447215147e-67 0.0000000000000000e+00  -6.7922743348774823e-66 -1.3498645215291938e-65 0.0000000000000000e+00  -4.5217985813704753e-66 -2.1314744097038316e-65 0.0000000000000000e+00  -9.0738652601984615e-65 -1.5572170183814644e-64 0.0000000000000000e+00  1.7229110214600408e-65 -2.1036372453787479e-64 0.0000000000000000e+00  -4.2781366702016723e-62 -6.4005581714834006e-62 0.0000000000000000e+00  -7.0031937924546192e-62 -1.7203611164493989e-61 0.0000000000000000e+00  -2.3276821243425389e-62 -2.7285110333277907e-61 0.0000000000000000e+00  -5.7446039448656754e-60 -1.1359424804584616e-59 0.0000000000000000e+00  4.7724106197005994e-60 -1.5023395966756868e-59 0.0000000000000000e+00  -2.9036380243767967e-59 -4.7470894714088128e-59 0.0000000000000000e+00  8.8305984262373877e-60 -6.0867163009126351e-59 0.0000000000000000e+00  2.3282028358007521e-59 -3.9735785406499795e-59 0.0000000000000000e+00  -5.6447050052136658e-58 -8.9434454955629579e-58 0.0000000000000000e+00  -1.3820802518467144e-59 -1.2602281669685766e-57 0.0000000000000000e+00  -4.6400308289976051e-57 -1.1634178357134665e-56 0.0000000000000000e+00  5.7583868292762446e-57 -8.6788129024264638e-57 0.0000000000000000e+00  -5.3423776058053223e-57 -7.3338427000132320e-57 0.0000000000000000e+00  -1.7701530506238592e-56 -3.7719827100593117e-56 0.0000000000000000e+00  2.1658512225651563e-56 -4.0729421378771206e-56 0.0000000000000000e+00  -5.0120659258375814e-57 -9.1966269274880951e-57 0.0000000000000000e+00  -8.1342237907169879e-56 -2.0303635506085539e-55 0.0000000000000000e+00  6.3893969836089383e-56 -5.0774382093981915e-55 0.0000000000000000e+00  -4.2992824104460623e-55 -7.2545433432055184e-55 0.0000000000000000e+00  -4.8864260504785028e-56 -1.8356916772455330e-54 0.0000000000000000e+00  1.6643904563241599e-55 -5.7409868140764657e-55 0.0000000000000000e+00  -5.1949885684479602e-55 -1.6755751656002672e-54 0.0000000000000000e+00  -2.2594720831943147e-54 -7.0701655672322419e-54 0.0000000000000000e+00  2.5895294338335667e-54 -6.0782464983253997e-54 0.0000000000000000e+00  -6.7387245310798660e-55 -2.3892828486417251e-54 0.0000000000000000e+00  5.3413193109533189e-55 -2.8193323905536174e-54 0.0000000000000000e+00  1.2864902682977510e-55 -1.4248317440065960e-54 0.0000000000000000e+00  -2.1869122218197838e-54 -3.4656540356891597e-54 0.0000000000000000e+00  5.7319956122275074e-55 -8.2270677257051038e-54 0.0000000000000000e+00  -3.9427773911137914e-54 -1.3556087321521788e-53 0.0000000000000000e+00  4.7075302753408743e-54 -7.7160068016805317e-54 0.0000000000000000e+00  2.0384152351989759e-55 -6.5064445801891522e-55 0.0000000000000000e+00  -4.8171203566937728e-54 -8.0077875402895216e-54 0.0000000000000000e+00  4.8432335991665590e-54 -7.8703162620731128e-54 0.0000000000000000e+00  -1.6675462209797202e-56 -1.3349706665015927e-55 0.0000000000000000e+00  1.1192127550553045e-56 -2.7679849950105376e-55 0.0000000000000000e+00  2.2144528382914594e-56 -9.8796645871260219e-56 0.0000000000000000e+00  -5.2224159416024767e-54 -9.3538558952280737e-54 0.0000000000000000e+00  5.5700785378368192e-54 -9.4071391566982773e-54 0.0000000000000000e+00  5.6946445406439078e-56 -1.0517759347691730e-55 0.0000000000000000e+00  -1.4379693129036330e-56 -6.2049225705459682e-56 0.0000000000000000e+00  -5.0165667979156357e-55 -9.0476870231342904e-55 0.0000000000000000e+00  -5.8346799578955737e-54 -1.0047567439025407e-53 0.0000000000000000e+00  4.5189657649989766e-54 -1.0490177395415339e-53 0.0000000000000000e+00  -3.0627451292230149e-54 -7.9865637154060903e-54 0.0000000000000000e+00  2.4469732685684012e-54 -8.5487963019661840e-54 0.0000000000000000e+00  2.2537411970309965e-54 -3.3051215509258935e-54 0.0000000000000000e+00  -5.4544994510495105e-55 -1.4801247468834901e-54 0.0000000000000000e+00  8.3827149424875182e-55 -1.5733667331133602e-54 0.0000000000000000e+00  -4.9388647631534954e-55 -9.8351868919424118e-55 0.0000000000000000e+00  5.1400977140906578e-55 -8.8517891697139135e-55 0.0000000000000000e+00  -1.5711864762167761e-56 -2.6930525581069999e-56 0.0000000000000000e+00  -4.4899458461665785e-56 -1.7221072413669996e-55 0.0000000000000000e+00  4.1831386833604174e-56 -1.7464843002542943e-55 0.0000000000000000e+00  4.8123673413099849e-57 -6.9026466045574018e-56 0.0000000000000000e+00  -2.7554725533297151e-56 -6.5447117740401091e-56 0.0000000000000000e+00  3.2956606813517640e-56 -6.4112239456814545e-56 0.0000000000000000e+00  -2.8651198553338443e-57 -2.8735693348682925e-56 0.0000000000000000e+00  1.2986646239282461e-56 -3.0010381405797475e-56 0.0000000000000000e+00  1.0043660861589595e-57 -2.3982942022394949e-57 0.0000000000000000e+00  -4.3910933461080482e-57 -7.6425296063145829e-57 0.0000000000000000e+00  4.2571113195177425e-57 -1.1003640470541266e-56 0.0000000000000000e+00  3.1298231155562665e-58 -1.0210574265137094e-57 0.0000000000000000e+00  1.4402334874523758e-58 -5.025056