<?xml version="1.0"?>
<VTKFile type="UnstructuredGrid"  version="0.1"  >
<UnstructuredGrid>
<Piece  NumberOfPoints="11902" NumberOfCells="23402">
<Points>
<DataArray  type="Float64"  NumberOfComponents="3"  format="ascii">-5 -5 0  5 -5 0  5 5 0  -5 5 0  1.262611465895939 0.00129484877744381 0  -4.9 -5 0  -4.8 -5 0  -4.7 -5 0  -4.6 -5 0  -4.5 -5 0  -4.4 -5 0  -4.3 -5 0  -4.2 -5 0  -4.1 -5 0  -4 -5 0  -3.9 -5 0  -3.8 -5 0  -3.7 -5 0  -3.6 -5 0  -3.5 -5 0  -3.4 -5 0  -3.3 -5 0  -3.2 -5 0  -3.1 -5 0  -3 -5 0  -2.9 -5 0  -2.8 -5 0  -2.7 -5 0  -2.6 -5 0  -2.5 -5 0  -2.4 -5 0  -2.3 -5 0  -2.2 -5 0  -2.1 -5 0  -2 -5 0  -1.9 -5 0  -1.8 -5 0  -1.7 -5 0  -1.6 -5 0  -1.5 -5 0  -1.4 -5 0  -1.3 -5 0  -1.2 -5 0  -1.1 -5 0  -1 -5 0  -0.9000000000000004 -5 0  -0.7999999999999998 -5 0  -0.7000000000000002 -5 0  -0.5999999999999996 -5 0  -0.5 -5 0  -0.4000000000000004 -5 0  -0.2999999999999998 -5 0  -0.2000000000000002 -5 0  -0.09999999999999964 -5 0  0 -5 0  0.09999999999999964 -5 0  0.2000000000000002 -5 0  0.2999999999999998 -5 0  0.4000000000000004 -5 0  0.5 -5 0  0.5999999999999996 -5 0  0.7000000000000002 -5 0  0.7999999999999998 -5 0  0.9000000000000004 -5 0  1 -5 0  1.1 -5 0  1.2 -5 0  1.3 -5 0  1.4 -5 0  1.5 -5 0  1.6 -5 0  1.7 -5 0  1.8 -5 0  1.9 -5 0  2 -5 0  2.1 -5 0  2.2 -5 0  2.3 -5 0  2.4 -5 0  2.5 -5 0  2.6 -5 0  2.7 -5 0  2.8 -5 0  2.9 -5 0  3 -5 0  3.1 -5 0  3.199999999999999 -5 0  3.300000000000001 -5 0  3.4 -5 0  3.5 -5 0  3.6 -5 0  3.699999999999999 -5 0  3.800000000000001 -5 0  3.9 -5 0  4 -5 0  4.1 -5 0  4.199999999999999 -5 0  4.300000000000001 -5 0  4.4 -5 0  4.5 -5 0  4.6 -5 0  4.699999999999999 -5 0  4.800000000000001 -5 0  4.9 -5 0  5 -4.9 0  5 -4.8 0  5 -4.7 0  5 -4.6 0  5 -4.5 0  5 -4.4 0  5 -4.3 0  5 -4.2 0  5 -4.1 0  5 -4 0  5 -3.9 0  5 -3.8 0  5 -3.7 0  5 -3.6 0  5 -3.5 0  5 -3.4 0  5 -3.3 0  5 -3.2 0  5 -3.1 0  5 -3 0  5 -2.9 0  5 -2.8 0  5 -2.7 0  5 -2.6 0  5 -2.5 0  5 -2.4 0  5 -2.3 0  5 -2.2 0  5 -2.1 0  5 -2 0  5 -1.9 0  5 -1.8 0  5 -1.7 0  5 -1.6 0  5 -1.5 0  5 -1.4 0  5 -1.3 0  5 -1.2 0  5 -1.1 0  5 -1 0  5 -0.9000000000000004 0  5 -0.7999999999999998 0  5 -0.7000000000000002 0  5 -0.5999999999999996 0  5 -0.5 0  5 -0.4000000000000004 0  5 -0.2999999999999998 0  5 -0.2000000000000002 0  5 -0.09999999999999964 0  5 0 0  5 0.09999999999999964 0  5 0.2000000000000002 0  5 0.2999999999999998 0  5 0.4000000000000004 0  5 0.5 0  5 0.5999999999999996 0  5 0.7000000000000002 0  5 0.7999999999999998 0  5 0.9000000000000004 0  5 1 0  5 1.1 0  5 1.2 0  5 1.3 0  5 1.4 0  5 1.5 0  5 1.6 0  5 1.7 0  5 1.8 0  5 1.9 0  5 2 0  5 2.1 0  5 2.2 0  5 2.3 0  5 2.4 0  5 2.5 0  5 2.6 0  5 2.7 0  5 2.8 0  5 2.9 0  5 3 0  5 3.1 0  5 3.199999999999999 0  5 3.300000000000001 0  5 3.4 0  5 3.5 0  5 3.6 0  5 3.699999999999999 0  5 3.800000000000001 0  5 3.9 0  5 4 0  5 4.1 0  5 4.199999999999999 0  5 4.300000000000001 0  5 4.4 0  5 4.5 0  5 4.6 0  5 4.699999999999999 0  5 4.800000000000001 0  5 4.9 0  4.9 5 0  4.8 5 0  4.7 5 0  4.6 5 0  4.5 5 0  4.4 5 0  4.3 5 0  4.2 5 0  4.1 5 0  4 5 0  3.9 5 0  3.8 5 0  3.7 5 0  3.6 5 0  3.5 5 0  3.4 5 0  3.3 5 0  3.2 5 0  3.1 5 0  3 5 0  2.9 5 0  2.8 5 0  2.7 5 0  2.6 5 0  2.5 5 0  2.4 5 0  2.3 5 0  2.2 5 0  2.1 5 0  2 5 0  1.9 5 0  1.8 5 0  1.7 5 0  1.6 5 0  1.5 5 0  1.4 5 0  1.3 5 0  1.2 5 0  1.1 5 0  1 5 0  0.9000000000000004 5 0  0.7999999999999998 5 0  0.7000000000000002 5 0  0.5999999999999996 5 0  0.5 5 0  0.4000000000000004 5 0  0.2999999999999998 5 0  0.2000000000000002 5 0  0.09999999999999964 5 0  0 5 0  -0.09999999999999964 5 0  -0.2000000000000002 5 0  -0.2999999999999998 5 0  -0.4000000000000004 5 0  -0.5 5 0  -0.5999999999999996 5 0  -0.7000000000000002 5 0  -0.7999999999999998 5 0  -0.9000000000000004 5 0  -1 5 0  -1.1 5 0  -1.2 5 0  -1.3 5 0  -1.4 5 0  -1.5 5 0  -1.6 5 0  -1.7 5 0  -1.8 5 0  -1.9 5 0  -2 5 0  -2.1 5 0  -2.2 5 0  -2.3 5 0  -2.4 5 0  -2.5 5 0  -2.6 5 0  -2.7 5 0  -2.8 5 0  -2.9 5 0  -3 5 0  -3.1 5 0  -3.199999999999999 5 0  -3.300000000000001 5 0  -3.4 5 0  -3.5 5 0  -3.6 5 0  -3.699999999999999 5 0  -3.800000000000001 5 0  -3.9 5 0  -4 5 0  -4.1 5 0  -4.199999999999999 5 0  -4.300000000000001 5 0  -4.4 5 0  -4.5 5 0  -4.6 5 0  -4.699999999999999 5 0  -4.800000000000001 5 0  -4.9 5 0  -5 4.9 0  -5 4.8 0  -5 4.7 0  -5 4.6 0  -5 4.5 0  -5 4.4 0  -5 4.3 0  -5 4.2 0  -5 4.1 0  -5 4 0  -5 3.9 0  -5 3.8 0  -5 3.7 0  -5 3.6 0  -5 3.5 0  -5 3.4 0  -5 3.3 0  -5 3.2 0  -5 3.1 0  -5 3 0  -5 2.9 0  -5 2.8 0  -5 2.7 0  -5 2.6 0  -5 2.5 0  -5 2.4 0  -5 2.3 0  -5 2.2 0  -5 2.1 0  -5 2 0  -5 1.9 0  -5 1.8 0  -5 1.7 0  -5 1.6 0  -5 1.5 0  -5 1.4 0  -5 1.3 0  -5 1.2 0  -5 1.1 0  -5 1 0  -5 0.9000000000000004 0  -5 0.7999999999999998 0  -5 0.7000000000000002 0  -5 0.5999999999999996 0  -5 0.5 0  -5 0.4000000000000004 0  -5 0.2999999999999998 0  -5 0.2000000000000002 0  -5 0.09999999999999964 0  -5 0 0  -5 -0.09999999999999964 0  -5 -0.2000000000000002 0  -5 -0.2999999999999998 0  -5 -0.4000000000000004 0  -5 -0.5 0  -5 -0.5999999999999996 0  -5 -0.7000000000000002 0  -5 -0.7999999999999998 0  -5 -0.9000000000000004 0  -5 -1 0  -5 -1.1 0  -5 -1.2 0  -5 -1.3 0  -5 -1.4 0  -5 -1.5 0  -5 -1.6 0  -5 -1.7 0  -5 -1.8 0  -5 -1.9 0  -5 -2 0  -5 -2.1 0  -5 -2.2 0  -5 -2.3 0  -5 -2.4 0  -5 -2.5 0  -5 -2.6 0  -5 -2.7 0  -5 -2.8 0  -5 -2.9 0  -5 -3 0  -5 -3.1 0  -5 -3.199999999999999 0  -5 -3.300000000000001 0  -5 -3.4 0  -5 -3.5 0  -5 -3.6 0  -5 -3.699999999999999 0  -5 -3.800000000000001 0  -5 -3.9 0  -5 -4 0  -5 -4.1 0  -5 -4.199999999999999 0  -5 -4.300000000000001 0  -5 -4.4 0  -5 -4.5 0  -5 -4.6 0  -5 -4.699999999999999 0  -5 -4.800000000000001 0  -5 -4.9 0  1.254406537466559 0.0939911662308946 0  1.232395662044018 0.1917565791690787 0  1.198834895065781 0.2883344251040998 0  1.156033509478575 0.3767421103888071 0  1.097689123054039 0.4677200667981348 0  1.031506393725511 0.5516077622486629 0  0.9529033399590168 0.6318599689098825 0  0.8657423770586077 0.7067390228267025 0  0.7739029760058651 0.7721212880182409 0  0.6716490270023013 0.8295287444280627 0  0.5589480877816868 0.881770665382076 0  0.4459253634148863 0.9265494694621558 0  0.3342396408442824 0.9584433419350601 0  0.2087647958345652 0.9803535219458543 0  0.0883278321404778 0.9992161721403792 0  -0.02670506150235424 1.002625331598344 0  -0.1443684753535248 0.9888251746567446 0  -0.2729691836706982 0.9694271778157391 0  -0.3926596221584164 0.9453059375165357 0  -0.5028144909400502 0.909695201185988 0  -0.6124666708684472 0.8632240076896804 0  -0.7145552156281264 0.8083421755833052 0  -0.8091987123582562 0.7435746706352635 0  -0.9006198902076472 0.6698253082263474 0  -0.9868099829662216 0.5897564685240727 0  -1.061555434035889 0.5084212016643631 0  -1.123519126355432 0.4235544246710282 0  -1.177751274888563 0.3306007489505327 0  -1.215477643163943 0.2426231310433917 0  -1.239917892903956 0.1486332731740442 0  -1.250538288925433 0.05211432863264442 0  -1.250498113970971 -0.04986015936784615 0  -1.239883699744726 -0.145652260827962 0  -1.215088173759938 -0.2372941241993864 0  -1.173215186163748 -0.3322384876919829 0  -1.123845174734418 -0.4243399364636172 0  -1.063439480781241 -0.5083141086064208 0  -0.9893156187201805 -0.5887649056341056 0  -0.9037543622446832 -0.6677700545631958 0  -0.8130216670775682 -0.7393961778214601 0  -0.7173304827355401 -0.8002947718032885 0  -0.6125733549700035 -0.8534911468328744 0  -0.497699982373133 -0.9031327065625001 0  -0.3849932356712186 -0.9430526285981211 0  -0.2696333840802858 -0.9692267163460561 0  -0.1427517994504341 -0.9887843019595335 0  -0.02770992228021729 -1.001858145159756 0  0.08723694794011518 -0.9944761612217589 0  0.2148086958311907 -0.9766170135909591 0  0.3370104860457407 -0.956756373787652 0  0.4501030935592904 -0.9252279857574016 0  0.5615062082258906 -0.8810111371085426 0  0.6727783540508531 -0.829480440344644 0  0.7738054075528689 -0.7732558667432904 0  0.8655037181089258 -0.7080118143868183 0  0.9514391696004381 -0.6322258111592652 0  1.028964024870703 -0.5504246767230855 0  1.098862594444981 -0.4664221394714372 0  1.156832395018887 -0.3771641033318431 0  1.200593842554684 -0.286400247201484 0  1.233109775839657 -0.190981923981374 0  1.25480818678489 -0.09388825354115038 0  -2.448536332292976 4.918069169258754 0  -2.448408118768372 -4.910443297178679 0  4.910366097149415 2.447857593531351 0  4.918497561342885 -2.449322632307985 0  2.446133451296156 -4.895666074652663 0  2.440567919860814 4.899430658764958 0  -4.910393385562628 -2.447884359251206 0  -4.910390657898186 2.447888417006781 0  -1.748489405499322 4.910936929535072 0  -1.744276985556092 -4.914380961028811 0  4.920528309179613 1.744035928555358 0  4.909047152317121 -1.7477922565888 0  -4.909341995761211 -1.747526888646757 0  -4.910165270839654 1.747272324553093 0  1.74576033120013 4.904787460312054 0  1.747170103877719 -4.892921640779567 0  -1.148805636881244 4.90870357456647 0  -1.129665451361249 -4.916628789789498 0  -4.909032353684407 -1.147862279278367 0  -4.908850347267186 1.147662902642412 0  1.143802440995426 -4.912808090138467 0  1.148815458642581 4.908689892203483 0  4.909171536737428 1.146137226060375 0  4.920022490288597 -1.151927049868157 0  -0.5466500095525461 -4.909883404086379 0  -0.5464347501275291 4.918581648785068 0  -4.907742977699659 -0.5486720298339158 0  -4.907766940921984 0.5472301760931747 0  4.907059719411032 -0.5489900488182798 0  4.918741105725291 0.5457519549102395 0  0.5424306487067517 -4.896739518277243 0  0.5511626151378793 4.915399063127011 0  -4.911840005342498 -3.04824901829264 0  4.918414670958567 3.046268078678599 0  4.911347353458746 -3.048224160415238 0  -4.912688182979413 3.045341063351443 0  3.055265350779406 -4.917336509301611 0  -3.048593447485407 -4.911268739092297 0  3.052161560429474 4.913347547792057 0  -3.048039434584227 4.912159085412328 0  -4.906842880118755 -0.04990404989579519 0  0.0451186797460565 -4.91183235453749 0  0.04956589634423903 4.91887137021225 0  4.913912338654328 -0.05128660620228021 0  3.545591352386029 -4.918994571398534 0  -3.54886940934398 4
[...]
<PointData  Vectors="f_5574"> 
<DataArray  type="Float64"  Name="f_5574"  NumberOfComponents="3" format="ascii">2.6559658580600303e-76 2.6559658580600303e-76 0.0000000000000000e+00  -2.8445085011138821e-76 2.8445085011138821e-76 0.0000000000000000e+00  -8.5659604779173855e-78 -8.5659604779173855e-78 0.0000000000000000e+00  3.0308186857311747e-76 -3.0308186857311747e-76 0.0000000000000000e+00  7.8835588045152138e-01 8.5740474542411408e-03 0.0000000000000000e+00  4.1660032338845182e-75 6.6061681868448595e-75 0.0000000000000000e+00  2.0823113726685202e-75 2.0880033781301771e-74 0.0000000000000000e+00  -3.4060865957046575e-75 6.7717672160666337e-75 0.0000000000000000e+00  4.0005849403330302e-72 6.6677336017844516e-72 0.0000000000000000e+00  5.3175693210722306e-71 1.3457669373695634e-70 0.0000000000000000e+00  -7.9213905280196037e-72 4.5553594287577509e-71 0.0000000000000000e+00  3.2350133335423613e-69 6.1618188624441341e-69 0.0000000000000000e+00  5.1627026512555363e-68 9.3978839581677500e-68 0.0000000000000000e+00  -3.0657872425750919e-68 1.5001324847201814e-67 0.0000000000000000e+00  1.2771640577090143e-67 3.9814266805400652e-67 0.0000000000000000e+00  1.2628127865774409e-68 8.7790937799867590e-67 0.0000000000000000e+00  5.4538405804791934e-64 8.8216380979708170e-64 0.0000000000000000e+00  4.7436569823283539e-65 2.4418673375921235e-63 0.0000000000000000e+00  1.3497955608914395e-62 2.1986190536925212e-62 0.0000000000000000e+00  8.0692481392041880e-63 8.3179178591712114e-62 0.0000000000000000e+00  6.9349809300301217e-61 1.1020808946108385e-60 0.0000000000000000e+00  4.0645814541968168e-60 7.0054015440628115e-60 0.0000000000000000e+00  -2.8486666771506200e-60 7.6999479746559767e-60 0.0000000000000000e+00  5.6655534221582579e-59 1.1366162222365073e-58 0.0000000000000000e+00  -1.7599379539966854e-59 1.1646995316554888e-58 0.0000000000000000e+00  -3.0052595402431030e-59 6.8394582103830372e-59 0.0000000000000000e+00  1.8034098841342672e-58 3.3036422943347562e-58 0.0000000000000000e+00  7.3033195701774194e-58 2.0891906867350151e-57 0.0000000000000000e+00  2.8624652190702437e-57 6.2319454473993825e-57 0.0000000000000000e+00  -3.4095935978992372e-57 5.7392122890042310e-57 0.0000000000000000e+00  -3.5248951948431036e-58 1.0979136340728304e-57 0.0000000000000000e+00  1.9099334484924627e-56 2.9313222384691808e-56 0.0000000000000000e+00  -1.4145936474456035e-56 3.5313655284687945e-56 0.0000000000000000e+00  1.1922240479974352e-56 2.8930172020288488e-56 0.0000000000000000e+00  8.7442375593696493e-56 2.0972504418092964e-55 0.0000000000000000e+00  -2.5136496860555551e-56 5.7434767734700439e-55 0.0000000000000000e+00  5.2145098500877262e-57 8.6106280734658889e-57 0.0000000000000000e+00  5.5491323577836344e-56 1.3814895590125837e-55 0.0000000000000000e+00  1.5501844870632088e-55 6.1689321543827461e-55 0.0000000000000000e+00  -2.2382584264146838e-55 3.5171208972868418e-55 0.0000000000000000e+00  9.8449729176517046e-55 1.7225647991236821e-54 0.0000000000000000e+00  -4.4250274298787876e-55 4.3615743410222218e-54 0.0000000000000000e+00  -2.2850664028933220e-55 2.6820612631787595e-54 0.0000000000000000e+00  -9.6279628109930695e-56 9.4399061567181800e-55 0.0000000000000000e+00  -1.1322280250464190e-55 1.8224736210230905e-55 0.0000000000000000e+00  2.7627104737525979e-54 5.2325006976249414e-54 0.0000000000000000e+00  -2.1621355484635801e-54 4.1396127095407085e-54 0.0000000000000000e+00  -7.1997590642685018e-55 8.0825885106804863e-55 0.0000000000000000e+00  -1.3219129841393522e-55 2.7134113049893953e-55 0.0000000000000000e+00  9.3133166272384997e-55 1.4449399582064598e-54 0.0000000000000000e+00  9.4652472365776797e-55 6.1541867770655475e-54 0.0000000000000000e+00  -1.1298114397012943e-54 5.8988526738069242e-54 0.0000000000000000e+00  5.1527247561827336e-55 4.6479191106701410e-54 0.0000000000000000e+00  1.9099422622134814e-56 5.7928421314032042e-54 0.0000000000000000e+00  3.0209574459669632e-55 6.1509973404890676e-54 0.0000000000000000e+00  -1.2630809079298893e-54 2.0440982072873580e-54 0.0000000000000000e+00  -6.4623336129392849e-55 1.4722757430430627e-53 0.0000000000000000e+00  4.4688987329675825e-54 7.4696545052401938e-54 0.0000000000000000e+00  -4.3522901774038650e-54 8.0951208698560332e-54 0.0000000000000000e+00  1.9241295196339476e-54 3.9572671237074159e-54 0.0000000000000000e+00  -7.3695729999613177e-55 9.4983531770233832e-54 0.0000000000000000e+00  1.3327940561709761e-54 9.3290255417957179e-54 0.0000000000000000e+00  -1.6868938165169889e-54 4.3958398170517680e-54 0.0000000000000000e+00  -9.2612267368840839e-55 2.4043453859105954e-54 0.0000000000000000e+00  3.3356073719145277e-55 1.2997375000348946e-54 0.0000000000000000e+00  2.6605577623105745e-55 2.5376949705252558e-54 0.0000000000000000e+00  -7.8354411900870058e-56 3.4897427770804650e-54 0.0000000000000000e+00  -7.1211085810269228e-55 1.4810872738462136e-54 0.0000000000000000e+00  2.3806735083756620e-55 4.4274745028069942e-55 0.0000000000000000e+00  -2.3122796576624754e-55 6.0218626908164488e-55 0.0000000000000000e+00  5.0395855589399554e-56 2.3983518186835564e-55 0.0000000000000000e+00  1.8686561680894213e-55 9.5254006424325049e-55 0.0000000000000000e+00  -3.3071435988531658e-55 5.2992451780955402e-55 0.0000000000000000e+00  -1.5924244767461022e-56 4.8207063122625532e-56 0.0000000000000000e+00  -1.1358901412561526e-57 1.1331888252593563e-56 0.0000000000000000e+00  6.7605456596326365e-57 2.3557109098096040e-56 0.0000000000000000e+00  -9.0007532329682660e-57 1.5011624589388057e-56 0.0000000000000000e+00  1.7433427476451011e-57 2.8887581795403928e-57 0.0000000000000000e+00  -1.2452391518146346e-57 2.7230628534319044e-57 0.0000000000000000e+00  5.1802150727134331e-57 7.8142273372276741e-57 0.0000000000000000e+00  -4.5359294898694274e-57 1.1246085373933489e-56 0.0000000000000000e+00  -1.8148464120926602e-58 9.3931223261406177e-58 0.0000000000000000e+00  -2.3933950350634953e-58 4.6499857604525775e-58 0.0000000000000000e+00  -7.8814438040069088e-61 8.8102566121222218e-59 0.0000000000000000e+00  -2.4468420345099728e-59 6.4203668233125136e-59 0.0000000000000000e+00  -7.1179463309225270e-60 2.4990565221655997e-59 0.0000000000000000e+00  -4.3857421869733031e-60 2.2382726789740299e-59 0.0000000000000000e+00  -3.0633870214568912e-60 7.1654363010326646e-60 0.0000000000000000e+00  -8.5248312039989424e-62 4.4344797268432781e-61 0.0000000000000000e+00  -1.0759840915896661e-61 2.2332329317307162e-61 0.0000000000000000e+00  -3.5874974105565931e-62 5.6719230906883396e-62 0.0000000000000000e+00  -3.9101351834408569e-64 6.6953413122493213e-64 0.0000000000000000e+00  -2.4312804986065992e-65 5.1694431697996003e-65 0.0000000000000000e+00  3.7083530779966334e-66 1.0388749467862150e-65 0.0000000000000000e+00  -4.8423668687505409e-66 9.2595723298015372e-66 0.0000000000000000e+00  -6.6997920091622216e-68 2.7708182128764078e-67 0.0000000000000000e+00  -7.8535050362279295e-68 1.2915045810753351e-67 0.0000000000000000e+00  -8.0610364441043316e-69 1.1729791132764204e-68 0.0000000000000000e+00  -5.6334449561092178e-70 9.5189518405794346e-70 0.0000000000000000e+00  -3.7795231623611697e-71 6.8179129440087331e-71 0.0000000000000000e+00  -1.8784711285891413e-72 3.2024294011227754e-72 0.0000000000000000e+00  -1.2177621832078468e-73 2.7266354310078324e-73 0.0000000000000000e+00  -4.4211959722052270e-75 1.2911262321956632e-74 0.0000000000000000e+00  -2.5481361965372721e-75 4.2411299145402663e-75 0.0000000000000000e+00  -9.7687753082642467e-76 3.5584278888918702e-76 0.0000000000000000e+00  -1.6211507539570436e-75 -2.3926614373387811e-76 0.0000000000000000e+00  -2.4488041406179082e-74 1.1591863489248250e-74 0.0000000000000000e+00  -3.6791145002137872e-74 1.5505726182140452e-75 0.0000000000000000e+00  -3.8828289816984707e-73 1.4336853703188810e-73 0.0000000000000000e+00  -1.0236043698000198e-71 6.2397959666280834e-72 0.0000000000000000e+00  -6.7396587164034996e-71 3.7094536807492000e-71 0.0000000000000000e+00  -1.0610250844952662e-70 3.9045699514627613e-72 0.0000000000000000e+00  -8.8992532530526719e-70 3.3102622376854944e-70 0.0000000000000000e+00  -2.1280263865653389e-68 1.2871230318792766e-68 0.0000000000000000e+00  -1.0234717739256356e-67 5.1132895960867029e-68 0.0000000000000000e+00  -1.0139166400969027e-67 -6.0303222849912464e-68 0.0000000000000000e+00  -3.1647108373385801e-66 1.7473346847715782e-66 0.0000000000000000e+00  -3.1840019535633990e-65 1.8332317575697665e-65 0.0000000000000000e+00  -5.3855496280879317e-65 5.0504511661876432e-66 0.0000000000000000e+00  -4.4355912605285698e-64 1.4477687751130023e-64 0.0000000000000000e+00  -6.9897079070248442e-63 4.3633999946611320e-63 0.0000000000000000e+00  -1.5061421936627475e-62 3.7525833893041297e-63 0.0000000000000000e+00  -8.4318098482739936e-62 1.9685221456414472e-62 0.0000000000000000e+00  -1.3541790966571288e-60 8.5282596792869808e-61 0.0000000000000000e+00  -2.4165945027258935e-60 3.3862982785659460e-61 0.0000000000000000e+00  -2.1162959544321485e-59 7.4069716978713810e-60 0.0000000000000000e+00  -2.4156273726861984e-58 1.4965558656462422e-58 0.0000000000000000e+00  -2.5885113229931142e-58 -9.4314295020996180e-59 0.0000000000000000e+00  -5.9754103302587078e-57 2.7855490990526904e-57 0.0000000000000000e+00  -2.4823213649333190e-56 1.2409353078897909e-56 0.0000000000000000e+00  -5.5642469680986866e-56 -8.6995291779815340e-57 0.0000000000000000e+00  -1.0106776369973990e-54 6.4893489269621951e-55 0.0000000000000000e+00  -1.1209185447004081e-54 -3.4691836310620925e-55 0.0000000000000000e+00  -2.4068300305126290e-53 1.2711845207952896e-53 0.0000000000000000e+00  -6.5906265866943393e-53 2.9934763142754533e-53 0.0000000000000000e+00  -4.3555019500125515e-52 1.2260796137734861e-52 0.0000000000000000e+00  -2.6645368326220112e-51 1.6654137868385866e-51 0.0000000000000000e+00  -7.6659418263210951e-51 -2.1475650658987178e-52 0.0000000000000000e+00  -7.1936602761311984e-50 4.6033832088309936e-50 0.0000000000000000e+00  -1.6172757925632066e-49 -1.4801906628636286e-50 0.0000000000000000e+00  -1.7289707213130861e-48 1.0114408609244751e-48 0.0000000000000000e+00  -4.3411981750069003e-48 -2.0435585314098915e-49 0.0000000000000000e+00  -2.0132672858979348e-47 1.1112170655901640e-47 0.0000000000000000e+00  -1.1026632171634088e-46 1.8980143287605915e-47 0.0000000000000000e+00  -1.0246775085205485e-46 2.4631825292121114e-47 0.0000000000000000e+00  -1.2405604706511158e-45 5.2593362259992345e-46 0.0000000000000000e+00  -8.7383777820434828e-46 -5.6855896667605111e-46 0.0000000000000000e+00  -1.3429449386434418e-44 8.0799393400572239e-45 0.0000000000000000e+00  -5.7957288675745496e-44 1.3753075249216844e-44 0.0000000000000000e+00  -3.6153942363079706e-44 -1.7533464098885345e-44 0.0000000000000000e+00  -1.1425399547418129e-43 6.5078437577771558e-44 0.0000000000000000e+00  -8.4130883303749705e-43 2.3185946054309886e-43 0.0000000000000000e+00  -1.9291246994953241e-42 1.9776064679050144e-43 0.0000000000000000e+00  -2.5117139833776434e-42 6.1112311112080701e-44 0.0000000000000000e+00  -2.0144994991391204e-42 -1.9500550375155679e-43 0.0000000000000000e+00  -8.6137682154552783e-43 -2.5084162501290834e-43 0.0000000000000000e+00  -1.1325038501407123e-43 -6.4539876182740914e-44 0.0000000000000000e+00  -3.8713684247891910e-44 1.8523547567495418e-44 0.0000000000000000e+00  -6.3166015511874055e-44 -1.0833639162811908e-44 0.0000000000000000e+00  -1.4989118017118888e-44 -7.8756514478766369e-45 0.0000000000000000e+00  -9.9886589761930638e-46 5.6781844344421473e-46 0.0000000000000000e+00  -1.4039296406225658e-45 -5.3915981880032013e-46 0.0000000000000000e+00  -1.1208209519847661e-46 -2.8581449775658938e-47 0.0000000000000000e+00  -1.0181232712526000e-46 -2.1439749531330264e-47 0.0000000000000000e+00  -1.8609159718237215e-47 -1.1982741978110897e-47 0.0000000000000000e+00  -4.0856177574944296e-48 2.0349080520697763e-49 0.0000000000000000e+00  -1.4867423823808282e-48 -9.3654089062217189e-49 0.0000000000000000e+00  -1.6331943969439870e-49 2.4569987992321091e-50 0.0000000000000000e+00  -7.4575801682794422e-50 -4.4225192918560175e-50 0.0000000000000000e+00  -8.2462561575957210e-51 6.4110179058151742e-52 0.0000000000000000e+00  -3.1453897988672814e-51 -1.7840591848646488e-51 0.0000000000000000e+00  -5.1028310182321627e-52 -1.1467714444553462e-52 0.0000000000000000e+00  -8.2058210535485581e-53 -3.5476075887843508e-53 0.0000000000000000e+00  -2.6618127457948279e-53 -1.3158216915708672e-53 0.0000000000000000e+00  -1.1972125863487553e-54 3.2397565738574770e-55 0.0000000000000000e+00  -1.0636570918560206e-54 -6.8054997546440282e-55 0.0000000000000000e+00  -5.1524593910790612e-56 8.3515274281017510e-57 0.0000000000000000e+00  -2.3364845973700253e-56 -1.3238758049029023e-56 0.0000000000000000e+00  -4.8236771586252749e-57 -2.5213153693440937e-57 0.0000000000000000e+00  -2.4587607514317035e-58 8.5461988290509366e-59 0.0000000000000000e+00  -2.1581908542761571e-58 -1.3285160894805803e-58 0.0000000000000000e+00  -1.9910213204171136e-59 -6.1458589679785042e-60 0.0000000000000000e+00  -2.3748939973123711e-60 -3.3958051642994156e-61 0.0000000000000000e+00  -1.2908001339719371e-60 -7.6081789601566974e-61 0.0000000000000000e+00  -7.6906395637376935e-62 -2.1436483286385280e-62 0.0000000000000000e+00  -1.3593596243272981e-62 -2.9302861658917790e-63 0.0000000000000000e+00  -6.6389400290131134e-63 -3.7882426895112889e-63 0.0000000000000000e+00  -4.7829589631198350e-64 -1.8195548075926064e-64 0.0000000000000000e+00  -4.3638659876747652e-65 9.5804495957787041e-67 0.0000000000000000e+00  -2.9480449332971906e-65 -1.6620672321594523e-65 0.0000000000000000e+00  -3.4131073212341044e-66 -1.9887018185903902e-66 0.0000000000000000e+00  -8.9957864011499351e-68 5.4807376891274756e-68 0.0000000000000000e+00  -8.6363486568727181e-68 -4.1775596490246401e-68 0.0000000000000000e+00  -2.0681248992585889e-68 -1.2849883269989966e-68 0.0000000000000000e+00  -1.1326207284422219e-69 -5.1336262718143344e-70 0.0000000000000000e+00  -8.7944734448795452e-71 1.3789497591055203e-71 0.0000000000000000e+00  -6.9080544362033427e-71 -3.6572303593925216e-71 0.0000000000000000e+00  -1.2478838500960439e-71 -7.6623696898923535e-72 0.0000000000000000e+00  -5.9818814249314062e-73 -2.7511128252148765e-73 0.0000000000000000e+00  -3.9237694104965695e-74 7.4236144871268824e-75 0.0000000000000000e+00  -3.1565209189516675e-74 -1.4790345333974437e-74 0.0000000000000000e+00  -6.5905947671510833e-75 -3.3571134431337021e-75 0.0000000000000000e+00  -7.1798889593146449e-76 -3.1071631294818451e-76 0.0000000000000000e+00  -8.5519841368005767e-76 -1.6228416537122116e-75 0.0000000000000000e+00  -4.7735873090175642e-75 -1.3945887792308555e-74 0.0000000000000000e+00  4.3671831205636724e-75 -8.3089407171649741e-75 0.0000000000000000e+00  -1.6294803349692446e-73 -3.4271695134408774e-73 0.0000000000000000e+00  -9.2860145417512406e-71 -1.0069086281264523e-70 0.0000000000000000e+00  -7.5071541680505440e-70 -1.3176676704495720e-69 0.0000000000000000e+00  -1.0985650497306634e-69 -3.6511516151622090e-69 0.0000000000000000e+00  -7.7620392063551666e-68 -1.7113396683079229e-67 0.0000000000000000e+00  -6.5320431574626241e-68 -3.2598761268171070e-67 0.0000000000000000e+00  -6.7909277531912033e-66 -1.3499818545218546e-65 0.0000000000000000e+00  -4.5207299400444123e-66 -2.1315651830873789e-65 0.0000000000000000e+00  -9.0715514367873431e-65 -1.5574110333676063e-64 0.0000000000000000e+00  1.7224170938078176e-65 -2.1035968010366144e-64 0.0000000000000000e+00  -4.2768638887153321e-62 -6.4015923236607223e-62 0.0000000000000000e+00  -7.0008538898330644e-62 -1.7205454699197415e-61 0.0000000000000000e+00  -2.3268381723383850e-62 -2.7285759005947105e-61 0.0000000000000000e+00  -5.7424692475883986e-60 -1.1361053804477812e-59 0.0000000000000000e+00  4.7702550925089343e-60 -1.5021868740902398e-59 0.0000000000000000e+00  -2.9023743391761240e-59 -4.7479971838432262e-59 0.0000000000000000e+00  8.8263989868976973e-60 -6.0864266849314576e-59 0.0000000000000000e+00  2.3269966147870120e-59 -3.9727830028114656e-59 0.0000000000000000e+00  -5.6417778919898057e-58 -8.9453750668985690e-58 0.0000000000000000e+00  -1.3813036465052897e-59 -1.2602330423898435e-57 0.0000000000000000e+00  -4.6374251847396130e-57 -1.1635817887454176e-56 0.0000000000000000e+00  5.7547210474311846e-57 -8.6767085604136805e-57 0.0000000000000000e+00  -5.3389420012949798e-57 -7.3357988470418146e-57 0.0000000000000000e+00  -1.7689491939131094e-56 -3.7726353208831189e-56 0.0000000000000000e+00  2.1642739905705585e-56 -4.0721427971667682e-56 0.0000000000000000e+00  -5.0083840435768890e-57 -9.1984753947914798e-57 0.0000000000000000e+00  -8.1281032977599961e-56 -2.0306629317197546e-55 0.0000000000000000e+00  6.3834066488149788e-56 -5.0772218389701817e-55 0.0000000000000000e+00  -4.2957116776193829e-55 -7.2560766460152415e-55 0.0000000000000000e+00  -4.8843108749696313e-56 -1.8357149785540821e-54 0.0000000000000000e+00  1.6628958768430693e-55 -5.7404252811650849e-55 0.0000000000000000e+00  -5.1904295457260056e-55 -1.6757553962517423e-54 0.0000000000000000e+00  -2.2574049969976618e-54 -7.0709171606091565e-54 0.0000000000000000e+00  2.5869403353988586e-54 -6.0775050591750276e-54 0.0000000000000000e+00  -6.7322245437286152e-55 -2.3894915540777619e-54 0.0000000000000000e+00  5.3355640233947010e-55 -2.8192124780756926e-54 0.0000000000000000e+00  1.2850086059100242e-55 -1.4248124296463284e-54 0.0000000000000000e+00  -2.1845904648361445e-54 -3.4661640928521878e-54 0.0000000000000000e+00  5.7250680835345942e-55 -8.2270398553579506e-54 0.0000000000000000e+00  -3.9385273844069387e-54 -1.3556949343855073e-53 0.0000000000000000e+00  4.7022622377601441e-54 -7.7152828770931386e-54 0.0000000000000000e+00  2.0360881205440685e-55 -6.5062297340340824e-55 0.0000000000000000e+00  -4.8116592142530682e-54 -8.0083759943737979e-54 0.0000000000000000e+00  4.8376715143900665e-54 -7.8699574630909452e-54 0.0000000000000000e+00  -1.6656267480446540e-56 -1.3349805708242559e-55 0.0000000000000000e+00  1.1178970690624773e-56 -2.7680116812654557e-55 0.0000000000000000e+00  2.2118942831749219e-56 -9.8796575743680175e-56 0.0000000000000000e+00  -5.2163836177284914e-54 -9.3538001792189249e-54 0.0000000000000000e+00  5.5636836662046706e-54 -9.4074779515728967e-54 0.0000000000000000e+00  5.6881407297695296e-56 -1.0518232354007083e-55 0.0000000000000000e+00  -1.4363138693845000e-56 -6.2048365504039861e-56 0.0000000000000000e+00  -5.0109025412199402e-55 -9.0470915456700902e-55 0.0000000000000000e+00  -5.8281705387291304e-54 -1.0046713650037346e-53 0.0000000000000000e+00  4.5140159537351937e-54 -1.0490987502978735e-53 0.0000000000000000e+00  -3.0594321095396669e-54 -7.9859584790814609e-54 0.0000000000000000e+00  2.4443742268302699e-54 -8.5493359292493217e-54 0.0000000000000000e+00  2.2513997641556459e-54 -3.3056714351259028e-54 0.0000000000000000e+00  -5.4489063484178135e-55 -1.4799853567967523e-54 0.0000000000000000e+00  8.3744986227558246e-55 -1.5736090286473037e-54 0.0000000000000000e+00  -4.9339776945178646e-55 -9.8337890935160199e-55 0.0000000000000000e+00  5.1353182148341305e-55 -8.8534165939324597e-55 0.0000000000000000e+00  -1.5697341542110635e-56 -2.6925515183205467e-56 0.0000000000000000e+00  -4.4857383450785581e-56 -1.7219655248934748e-55 0.0000000000000000e+00  4.1797594545733255e-56 -1.7466343935627161e-55 0.0000000000000000e+00  4.8092453359996362e-57 -6.9028363673505050e-56 0.0000000000000000e+00  -2.7532523663023680e-56 -6.5437300486246268e-56 0.0000000000000000e+00  3.2931422324107994e-56 -6.4124193267489939e-56 0.0000000000000000e+00  -2.8629953274175208e-57 -2.8734648009050083e-56 0.0000000000000000e+00  1.2977804797569456e-56 -3.0015145896907084e-56 0.0000000000000000e+00  1.0037114768861481e-57 -2.3986610862910517e-57 0.0000000000000000e+00  -4.3882000024337148e-57 -7.6409252002267954e-57 0.0000000000000000e+00  4.2546168823800105e-57 -1.1005162425633467e-56 0.0000000000000000e+00  3.1279983210811498e-58 -1.0211689395313515e-57 0.0000000000000000e+00  1.4394384718680400e-58 -5.025560