<?xml version="1.0"?>
<VTKFile type="UnstructuredGrid"  version="0.1"  >
<UnstructuredGrid>
<Piece  NumberOfPoints="11902" NumberOfCells="23402">
<Points>
<DataArray  type="Float64"  NumberOfComponents="3"  format="ascii">-5 -5 0  5 -5 0  5 5 0  -5 5 0  1.26466159434596 0.001264291635559718 0  -4.9 -5 0  -4.8 -5 0  -4.7 -5 0  -4.6 -5 0  -4.5 -5 0  -4.4 -5 0  -4.3 -5 0  -4.2 -5 0  -4.1 -5 0  -4 -5 0  -3.9 -5 0  -3.8 -5 0  -3.7 -5 0  -3.6 -5 0  -3.5 -5 0  -3.4 -5 0  -3.3 -5 0  -3.2 -5 0  -3.1 -5 0  -3 -5 0  -2.9 -5 0  -2.8 -5 0  -2.7 -5 0  -2.6 -5 0  -2.5 -5 0  -2.4 -5 0  -2.3 -5 0  -2.2 -5 0  -2.1 -5 0  -2 -5 0  -1.9 -5 0  -1.8 -5 0  -1.7 -5 0  -1.6 -5 0  -1.5 -5 0  -1.4 -5 0  -1.3 -5 0  -1.2 -5 0  -1.1 -5 0  -1 -5 0  -0.9000000000000004 -5 0  -0.7999999999999998 -5 0  -0.7000000000000002 -5 0  -0.5999999999999996 -5 0  -0.5 -5 0  -0.4000000000000004 -5 0  -0.2999999999999998 -5 0  -0.2000000000000002 -5 0  -0.09999999999999964 -5 0  0 -5 0  0.09999999999999964 -5 0  0.2000000000000002 -5 0  0.2999999999999998 -5 0  0.4000000000000004 -5 0  0.5 -5 0  0.5999999999999996 -5 0  0.7000000000000002 -5 0  0.7999999999999998 -5 0  0.9000000000000004 -5 0  1 -5 0  1.1 -5 0  1.2 -5 0  1.3 -5 0  1.4 -5 0  1.5 -5 0  1.6 -5 0  1.7 -5 0  1.8 -5 0  1.9 -5 0  2 -5 0  2.1 -5 0  2.2 -5 0  2.3 -5 0  2.4 -5 0  2.5 -5 0  2.6 -5 0  2.7 -5 0  2.8 -5 0  2.9 -5 0  3 -5 0  3.1 -5 0  3.199999999999999 -5 0  3.300000000000001 -5 0  3.4 -5 0  3.5 -5 0  3.6 -5 0  3.699999999999999 -5 0  3.800000000000001 -5 0  3.9 -5 0  4 -5 0  4.1 -5 0  4.199999999999999 -5 0  4.300000000000001 -5 0  4.4 -5 0  4.5 -5 0  4.6 -5 0  4.699999999999999 -5 0  4.800000000000001 -5 0  4.9 -5 0  5 -4.9 0  5 -4.8 0  5 -4.7 0  5 -4.6 0  5 -4.5 0  5 -4.4 0  5 -4.3 0  5 -4.2 0  5 -4.1 0  5 -4 0  5 -3.9 0  5 -3.8 0  5 -3.7 0  5 -3.6 0  5 -3.5 0  5 -3.4 0  5 -3.3 0  5 -3.2 0  5 -3.1 0  5 -3 0  5 -2.9 0  5 -2.8 0  5 -2.7 0  5 -2.6 0  5 -2.5 0  5 -2.4 0  5 -2.3 0  5 -2.2 0  5 -2.1 0  5 -2 0  5 -1.9 0  5 -1.8 0  5 -1.7 0  5 -1.6 0  5 -1.5 0  5 -1.4 0  5 -1.3 0  5 -1.2 0  5 -1.1 0  5 -1 0  5 -0.9000000000000004 0  5 -0.7999999999999998 0  5 -0.7000000000000002 0  5 -0.5999999999999996 0  5 -0.5 0  5 -0.4000000000000004 0  5 -0.2999999999999998 0  5 -0.2000000000000002 0  5 -0.09999999999999964 0  5 0 0  5 0.09999999999999964 0  5 0.2000000000000002 0  5 0.2999999999999998 0  5 0.4000000000000004 0  5 0.5 0  5 0.5999999999999996 0  5 0.7000000000000002 0  5 0.7999999999999998 0  5 0.9000000000000004 0  5 1 0  5 1.1 0  5 1.2 0  5 1.3 0  5 1.4 0  5 1.5 0  5 1.6 0  5 1.7 0  5 1.8 0  5 1.9 0  5 2 0  5 2.1 0  5 2.2 0  5 2.3 0  5 2.4 0  5 2.5 0  5 2.6 0  5 2.7 0  5 2.8 0  5 2.9 0  5 3 0  5 3.1 0  5 3.199999999999999 0  5 3.300000000000001 0  5 3.4 0  5 3.5 0  5 3.6 0  5 3.699999999999999 0  5 3.800000000000001 0  5 3.9 0  5 4 0  5 4.1 0  5 4.199999999999999 0  5 4.300000000000001 0  5 4.4 0  5 4.5 0  5 4.6 0  5 4.699999999999999 0  5 4.800000000000001 0  5 4.9 0  4.9 5 0  4.8 5 0  4.7 5 0  4.6 5 0  4.5 5 0  4.4 5 0  4.3 5 0  4.2 5 0  4.1 5 0  4 5 0  3.9 5 0  3.8 5 0  3.7 5 0  3.6 5 0  3.5 5 0  3.4 5 0  3.3 5 0  3.2 5 0  3.1 5 0  3 5 0  2.9 5 0  2.8 5 0  2.7 5 0  2.6 5 0  2.5 5 0  2.4 5 0  2.3 5 0  2.2 5 0  2.1 5 0  2 5 0  1.9 5 0  1.8 5 0  1.7 5 0  1.6 5 0  1.5 5 0  1.4 5 0  1.3 5 0  1.2 5 0  1.1 5 0  1 5 0  0.9000000000000004 5 0  0.7999999999999998 5 0  0.7000000000000002 5 0  0.5999999999999996 5 0  0.5 5 0  0.4000000000000004 5 0  0.2999999999999998 5 0  0.2000000000000002 5 0  0.09999999999999964 5 0  0 5 0  -0.09999999999999964 5 0  -0.2000000000000002 5 0  -0.2999999999999998 5 0  -0.4000000000000004 5 0  -0.5 5 0  -0.5999999999999996 5 0  -0.7000000000000002 5 0  -0.7999999999999998 5 0  -0.9000000000000004 5 0  -1 5 0  -1.1 5 0  -1.2 5 0  -1.3 5 0  -1.4 5 0  -1.5 5 0  -1.6 5 0  -1.7 5 0  -1.8 5 0  -1.9 5 0  -2 5 0  -2.1 5 0  -2.2 5 0  -2.3 5 0  -2.4 5 0  -2.5 5 0  -2.6 5 0  -2.7 5 0  -2.8 5 0  -2.9 5 0  -3 5 0  -3.1 5 0  -3.199999999999999 5 0  -3.300000000000001 5 0  -3.4 5 0  -3.5 5 0  -3.6 5 0  -3.699999999999999 5 0  -3.800000000000001 5 0  -3.9 5 0  -4 5 0  -4.1 5 0  -4.199999999999999 5 0  -4.300000000000001 5 0  -4.4 5 0  -4.5 5 0  -4.6 5 0  -4.699999999999999 5 0  -4.800000000000001 5 0  -4.9 5 0  -5 4.9 0  -5 4.8 0  -5 4.7 0  -5 4.6 0  -5 4.5 0  -5 4.4 0  -5 4.3 0  -5 4.2 0  -5 4.1 0  -5 4 0  -5 3.9 0  -5 3.8 0  -5 3.7 0  -5 3.6 0  -5 3.5 0  -5 3.4 0  -5 3.3 0  -5 3.2 0  -5 3.1 0  -5 3 0  -5 2.9 0  -5 2.8 0  -5 2.7 0  -5 2.6 0  -5 2.5 0  -5 2.4 0  -5 2.3 0  -5 2.2 0  -5 2.1 0  -5 2 0  -5 1.9 0  -5 1.8 0  -5 1.7 0  -5 1.6 0  -5 1.5 0  -5 1.4 0  -5 1.3 0  -5 1.2 0  -5 1.1 0  -5 1 0  -5 0.9000000000000004 0  -5 0.7999999999999998 0  -5 0.7000000000000002 0  -5 0.5999999999999996 0  -5 0.5 0  -5 0.4000000000000004 0  -5 0.2999999999999998 0  -5 0.2000000000000002 0  -5 0.09999999999999964 0  -5 0 0  -5 -0.09999999999999964 0  -5 -0.2000000000000002 0  -5 -0.2999999999999998 0  -5 -0.4000000000000004 0  -5 -0.5 0  -5 -0.5999999999999996 0  -5 -0.7000000000000002 0  -5 -0.7999999999999998 0  -5 -0.9000000000000004 0  -5 -1 0  -5 -1.1 0  -5 -1.2 0  -5 -1.3 0  -5 -1.4 0  -5 -1.5 0  -5 -1.6 0  -5 -1.7 0  -5 -1.8 0  -5 -1.9 0  -5 -2 0  -5 -2.1 0  -5 -2.2 0  -5 -2.3 0  -5 -2.4 0  -5 -2.5 0  -5 -2.6 0  -5 -2.7 0  -5 -2.8 0  -5 -2.9 0  -5 -3 0  -5 -3.1 0  -5 -3.199999999999999 0  -5 -3.300000000000001 0  -5 -3.4 0  -5 -3.5 0  -5 -3.6 0  -5 -3.699999999999999 0  -5 -3.800000000000001 0  -5 -3.9 0  -5 -4 0  -5 -4.1 0  -5 -4.199999999999999 0  -5 -4.300000000000001 0  -5 -4.4 0  -5 -4.5 0  -5 -4.6 0  -5 -4.699999999999999 0  -5 -4.800000000000001 0  -5 -4.9 0  1.256581647614195 0.09309690256439758 0  1.234411917432636 0.190920507027266 0  1.200624261723077 0.2876827695664835 0  1.15791684313436 0.3760676369480321 0  1.099250079859176 0.4672085363769158 0  1.032646390052494 0.5506688817197412 0  0.9540282470391318 0.6311646169532381 0  0.8667229761722225 0.706099219264986 0  0.7748890444534452 0.7713239394987709 0  0.6729837928112952 0.8287769589641444 0  0.5595784370867493 0.8810110188281052 0  0.4460354476423373 0.9260085398430462 0  0.3352978045816223 0.9576033066814543 0  0.2088046589179799 0.9800626596084934 0  0.08760513955121298 0.9985726085997489 0  -0.0263090184171958 1.002113808554545 0  -0.1439864622555069 0.9884440401873142 0  -0.2739406356023828 0.9685742609377991 0  -0.3940922772599765 0.9443983956216314 0  -0.5035925003344563 0.9092512505140926 0  -0.6131704412704573 0.8628319458486494 0  -0.7151263658649269 0.8077144076729306 0  -0.8095855675158097 0.7432473582770687 0  -0.9012381488913239 0.6694397388663391 0  -0.9878847611014793 0.5890858611236015 0  -1.062885311762856 0.5073971316085003 0  -1.12507063018272 0.4230455189204161 0  -1.180277805477481 0.3291984170921761 0  -1.217662268300426 0.2423587898506179 0  -1.242005393614443 0.1486445790413897 0  -1.252272079974234 0.05262338909491499 0  -1.252220190271459 -0.05031154401372115 0  -1.241893198800659 -0.145604209239827 0  -1.217291543812272 -0.2363682638521734 0  -1.175030415461049 -0.3316599019881509 0  -1.125368728452848 -0.4240981581694228 0  -1.065011595776024 -0.5072440014234986 0  -0.9904478450102566 -0.588107502782268 0  -0.9044074130317391 -0.6674181968250653 0  -0.8136562681173599 -0.7387812601506867 0  -0.7183666839676417 -0.7994100401243345 0  -0.6137326843595945 -0.8527793405490278 0  -0.4978217592274017 -0.9025277614951751 0  -0.385415558197997 -0.9424459982548103 0  -0.2706109025549573 -0.968432874560618 0  -0.1422525181004005 -0.9884982063678309 0  -0.02750903189876864 -1.001354018066383 0  0.08603293656597105 -0.9939422657970227 0  0.2153800817329792 -0.9759271066135586 0  0.338250165680964 -0.9557680660173092 0  0.450255509371933 -0.9246806293247093 0  0.5623331256210864 -0.8802343927254991 0  0.6742718446942628 -0.8286117565438341 0  0.774669076971593 -0.7725314751936403 0  0.8659408066074236 -0.7077356806020539 0  0.9517598723546637 -0.6318953038612101 0  1.030239348944218 -0.5492717256473512 0  1.100918172575138 -0.4655028872546401 0  1.158779644312086 -0.3763780732526709 0  1.202445381865541 -0.2857639158402726 0  1.235146215975047 -0.1902849163024966 0  1.256998917717365 -0.09320390755487309 0  -2.448521013143226 4.918042337459123 0  -2.448391275218789 -4.910413936181672 0  4.910335353271032 2.447836961325458 0  4.918469658563357 -2.449303987450159 0  2.446113954154283 -4.895631652629328 0  2.440548991137629 4.899397262574444 0  -4.910362691822689 -2.447864020517205 0  -4.910359998852265 2.44786818183256 0  -1.748473473256193 4.910897881463155 0  -1.74426153450258 -4.914343368957328 0  4.920489612830046 1.744017284859634 0  4.909002957155983 -1.747771054655763 0  -4.909298006536035 -1.747505926381673 0  -4.91012171141232 1.747251698124436 0  1.745743137221732 4.904745366131801 0  1.747150970961843 -4.892874481053492 0  -1.148792946975449 4.908655895978682 0  -1.129653804781768 -4.916585098065264 0  -4.908977430169611 -1.147845052761187 0  -4.908795339827104 1.147645817864996 0  1.143790370295099 -4.912762420989687 0  1.148802529131552 4.908641972812473 0  4.90911651769295 1.146119764559534 0  4.91997414543573 -1.151911778100475 0  -0.5466432285772028 -4.909831238781678 0  -0.5464288765255662 4.918534446860809 0  -4.907679285532518 -0.5486624395530088 0  -4.90770326849787 0.5472208045626246 0  4.906995350878117 -0.5489804089772568 0  4.918684803472787 0.5457434121211591 0  0.5424232364349337 -4.896679628955837 0  0.5511561801579409 4.915349925445572 0  -4.911819239709013 -3.048232170540603 0  4.918395411835361 3.046252270637316 0  4.911326486776841 -3.048207084580293 0  -4.912667607429919 3.045324427730194 0  3.055251742318762 -4.917316980862455 0  -3.04857873524841 -4.911247814458623 0  3.052147212106666 4.913326952325099 0  -3.048024925610406 4.912138399441099 0  -4.906775921861062 -0.04990304231073405 0  0.04511826272312374 -4.911779718151381 0  0.04956519226454469 4.9188228350606 0  4.91385024877805 -0.05128581783329139 0  3.545580631881897 -4.918980975732926 0  -3.548857763120602 4.9
[...]
<PointData  Vectors="f_6302"> 
<DataArray  type="Float64"  Name="f_6302"  NumberOfComponents="3" format="ascii">2.6559658580600310e-76 2.6559658580600310e-76 0.0000000000000000e+00  -2.8445085011138821e-76 2.8445085011138821e-76 0.0000000000000000e+00  -8.5659604779174507e-78 -8.5659604779174507e-78 0.0000000000000000e+00  3.0308186857311747e-76 -3.0308186857311747e-76 0.0000000000000000e+00  7.8644554136526135e-01 8.2278416566442109e-03 0.0000000000000000e+00  4.1660434173416579e-75 6.6061307827979240e-75 0.0000000000000000e+00  2.0822718183902414e-75 2.0880069983020547e-74 0.0000000000000000e+00  -3.4062035553207718e-75 6.7718753074041211e-75 0.0000000000000000e+00  4.0007327507093408e-72 6.6675971139169029e-72 0.0000000000000000e+00  5.3177807577930770e-71 1.3457473066423683e-70 0.0000000000000000e+00  -7.9219199677333396e-72 4.5554073287563635e-71 0.0000000000000000e+00  3.2352434192168114e-69 6.1616114111755269e-69 0.0000000000000000e+00  5.1631360146691442e-68 9.3974980517905485e-68 0.0000000000000000e+00  -3.0661485160153566e-68 1.5001635512954373e-67 0.0000000000000000e+00  1.2772900858106545e-67 3.9813160578752581e-67 0.0000000000000000e+00  1.2624442257164367e-68 8.7791178791421468e-67 0.0000000000000000e+00  5.4545421567332816e-64 8.8210459513986500e-64 0.0000000000000000e+00  4.7430017295371586e-65 2.4418702446654728e-63 0.0000000000000000e+00  1.3500055774540941e-62 2.1984487777718226e-62 0.0000000000000000e+00  8.0701590764296886e-63 8.3178350673688099e-62 0.0000000000000000e+00  6.9362408593661761e-61 1.1019830174115115e-60 0.0000000000000000e+00  4.0653834653640039e-60 7.0047953782883264e-60 0.0000000000000000e+00  -2.8492789010863868e-60 7.7003959340181431e-60 0.0000000000000000e+00  5.6667890979589941e-59 1.1365262639098380e-58 0.0000000000000000e+00  -1.7603702545680153e-59 1.1647293213356772e-58 0.0000000000000000e+00  -3.0060433421188955e-59 6.8399817470388561e-59 0.0000000000000000e+00  1.8038955026669086e-58 3.3033237067514490e-58 0.0000000000000000e+00  7.3052947671716668e-58 2.0890610638721375e-57 0.0000000000000000e+00  2.8633258164136628e-57 6.2314188312859552e-57 0.0000000000000000e+00  -3.4106912362593554e-57 5.7398508606441842e-57 0.0000000000000000e+00  -3.5260843049155859e-58 1.0979802135818212e-57 0.0000000000000000e+00  1.9105940602957617e-56 2.9309603111207058e-56 0.0000000000000000e+00  -1.4151294204259810e-56 3.5316338165706885e-56 0.0000000000000000e+00  1.1926684699893317e-56 2.8927907973157691e-56 0.0000000000000000e+00  8.7475943293107597e-56 2.0970845814282644e-55 0.0000000000000000e+00  -2.5152299336283854e-56 5.7435134115452511e-55 0.0000000000000000e+00  5.2167375579104074e-57 8.6096724073167353e-57 0.0000000000000000e+00  5.5515300488695816e-56 1.3813882795086243e-55 0.0000000000000000e+00  1.5508603302613540e-55 6.1686492108885653e-55 0.0000000000000000e+00  -2.2393338685672564e-55 3.5174917155467942e-55 0.0000000000000000e+00  9.8497106357833055e-55 1.7224019170637888e-54 0.0000000000000000e+00  -4.4275661057360940e-55 4.3616237407386247e-54 0.0000000000000000e+00  -2.2863929780719212e-55 2.6820838562537357e-54 0.0000000000000000e+00  -9.6333927199109736e-56 9.4400090724338134e-55 0.0000000000000000e+00  -1.1328424982125054e-55 1.8226135995694926e-55 0.0000000000000000e+00  2.7642107762510505e-54 5.2321599132921162e-54 0.0000000000000000e+00  -2.1633443334515404e-54 4.1398409543427483e-54 0.0000000000000000e+00  -7.2038454886393923e-55 8.0832705563677215e-55 0.0000000000000000e+00  -1.3226802140556883e-55 2.7135071690147126e-55 0.0000000000000000e+00  9.3187125541133895e-55 1.4448709128809367e-54 0.0000000000000000e+00  9.4706720658912505e-55 6.1540975135085177e-54 0.0000000000000000e+00  -1.1304892637118412e-54 5.8988652215194480e-54 0.0000000000000000e+00  5.1557349203811731e-55 4.6478750215355362e-54 0.0000000000000000e+00  1.9107417309584267e-56 5.7928052483883762e-54 0.0000000000000000e+00  3.0227586278202952e-55 6.1509592596054451e-54 0.0000000000000000e+00  -1.2638339650805248e-54 2.0440788907474345e-54 0.0000000000000000e+00  -6.4659522930447663e-55 1.4722594923105030e-53 0.0000000000000000e+00  4.4715447288305264e-54 7.4698261002380504e-54 0.0000000000000000e+00  -4.3548429093954463e-54 8.0948767539121896e-54 0.0000000000000000e+00  1.9252516785529460e-54 3.9573908464004959e-54 0.0000000000000000e+00  -7.3734822106625986e-55 9.4982348978626018e-54 0.0000000000000000e+00  1.3335858883375699e-54 9.3290960385959305e-54 0.0000000000000000e+00  -1.6878368540107233e-54 4.3956642182409958e-54 0.0000000000000000e+00  -9.2662275869600723e-55 2.4042291554682186e-54 0.0000000000000000e+00  3.3374702364731946e-55 1.2997732882102917e-54 0.0000000000000000e+00  2.6620928078600081e-55 2.5377203040514118e-54 0.0000000000000000e+00  -7.8374792654299864e-56 3.4897172027236893e-54 0.0000000000000000e+00  -7.1246435915231859e-55 1.4809760564327169e-54 0.0000000000000000e+00  2.3818549760788763e-55 4.4278462654653630e-55 0.0000000000000000e+00  -2.3133520412142129e-55 6.0214663311147224e-55 0.0000000000000000e+00  5.0420537293920146e-56 2.3984331341223799e-55 0.0000000000000000e+00  1.8695563677301379e-55 9.5257106347083866e-55 0.0000000000000000e+00  -3.3085587605765493e-55 5.2986446863011435e-55 0.0000000000000000e+00  -1.5930596250656851e-56 4.8204086653914502e-56 0.0000000000000000e+00  -1.1362691014024256e-57 1.1331667297639377e-56 0.0000000000000000e+00  6.7633079943390081e-57 2.3558366703990158e-56 0.0000000000000000e+00  -9.0040045172079602e-57 1.5009927753937342e-56 0.0000000000000000e+00  1.7439720676183878e-57 2.8890868061596061e-57 0.0000000000000000e+00  -1.2456567516065245e-57 2.7228296565719267e-57 0.0000000000000000e+00  5.1819035672370517e-57 7.8151927431077297e-57 0.0000000000000000e+00  -4.5372462222034321e-57 1.1245265423246598e-56 0.0000000000000000e+00  -1.8153720853764895e-58 9.3927951332518687e-58 0.0000000000000000e+00  -2.3940444989789189e-58 4.6495649402817047e-58 0.0000000000000000e+00  -7.8834806333374168e-61 8.8102430487248714e-59 0.0000000000000000e+00  -2.4474361733967184e-59 6.4199583404446775e-59 0.0000000000000000e+00  -7.1195684146830239e-60 2.4989416767180063e-59 0.0000000000000000e+00  -4.3865500848628078e-60 2.2382100871874723e-59 0.0000000000000000e+00  -3.0639663699650892e-60 7.1649951096405329e-60 0.0000000000000000e+00  -8.5264248194620869e-62 4.4343580968316401e-61 0.0000000000000000e+00  -1.0761689211061366e-61 2.2330881841787213e-61 0.0000000000000000e+00  -3.5880455903815499e-62 5.6714801526400686e-62 0.0000000000000000e+00  -3.9106987617605006e-64 6.6948803307150659e-64 0.0000000000000000e+00  -2.4315893428161300e-65 5.1691841331967615e-65 0.0000000000000000e+00  3.7088534018094139e-66 1.0389164928394609e-65 0.0000000000000000e+00  -4.8428630144694627e-66 9.2591427972793387e-66 0.0000000000000000e+00  -6.7004508318856724e-68 2.7707609664902650e-67 0.0000000000000000e+00  -7.8541700688026546e-68 1.2914459318178053e-67 0.0000000000000000e+00  -8.0616221676450490e-69 1.1729268553644288e-68 0.0000000000000000e+00  -5.6337924688649422e-70 9.5186390174380789e-70 0.0000000000000000e+00  -3.7797128150754649e-71 6.8177408258252162e-71 0.0000000000000000e+00  -1.8785451864083147e-72 3.2023617703833421e-72 0.0000000000000000e+00  -1.2177905959549900e-73 2.7266092721132427e-73 0.0000000000000000e+00  -4.4212864789447701e-75 1.2911179066612456e-74 0.0000000000000000e+00  -2.5481613630386955e-75 4.2411067123542976e-75 0.0000000000000000e+00  -9.7687327052701952e-76 3.5584672205198929e-76 0.0000000000000000e+00  -1.6211614564646103e-75 -2.3927608251247144e-76 0.0000000000000000e+00  -2.4487718223488086e-74 1.1592163098743940e-74 0.0000000000000000e+00  -3.6791080294003852e-74 1.5506330099338073e-75 0.0000000000000000e+00  -3.8827677115036279e-73 1.4337424430167089e-73 0.0000000000000000e+00  -1.0235670355750997e-71 6.2401485792768799e-72 0.0000000000000000e+00  -6.7393925645940335e-71 3.7097077688114000e-71 0.0000000000000000e+00  -1.0610217900551843e-70 3.9048887290151968e-72 0.0000000000000000e+00  -8.8989748145938977e-70 3.3105308517779349e-70 0.0000000000000000e+00  -2.1278957985752710e-68 1.2872521414649109e-68 0.0000000000000000e+00  -1.0234139024734978e-67 5.1138720095435516e-68 0.0000000000000000e+00  -1.0139936899272614e-67 -6.0311172357480340e-68 0.0000000000000000e+00  -3.1644849175480737e-66 1.7475683061376084e-66 0.0000000000000000e+00  -3.1837419009457705e-65 1.8335076626038639e-65 0.0000000000000000e+00  -5.3854720652386719e-65 5.0512961181151762e-66 0.0000000000000000e+00  -4.4353704480916937e-64 1.4480078524778390e-64 0.0000000000000000e+00  -6.9889704703047837e-63 4.3642355846229753e-63 0.0000000000000000e+00  -1.5060747884997745e-62 3.7533718477611309e-63 0.0000000000000000e+00  -8.4314664387949220e-62 1.9689137920442982e-62 0.0000000000000000e+00  -1.3540138735324032e-60 8.5302881355190709e-61 0.0000000000000000e+00  -2.4165256394946188e-60 3.3871782213791043e-61 0.0000000000000000e+00  -2.1161455479607451e-59 7.4088822156634793e-60 0.0000000000000000e+00  -2.4153062975877229e-58 1.4969895195748794e-58 0.0000000000000000e+00  -2.5887210570314796e-58 -9.4344092410763954e-59 0.0000000000000000e+00  -5.9747874070884140e-57 2.7864403900940373e-57 0.0000000000000000e+00  -2.4820360374830534e-56 1.2413680534543308e-56 0.0000000000000000e+00  -5.5644568576506737e-56 -8.7032533924803918e-57 0.0000000000000000e+00  -1.0105249586530683e-54 6.4918431370850512e-55 0.0000000000000000e+00  -1.1210008568093500e-54 -3.4706227543958208e-55 0.0000000000000000e+00  -2.4065279639090989e-53 1.2717176565209553e-53 0.0000000000000000e+00  -6.5899180287136998e-53 2.9948278522150891e-53 0.0000000000000000e+00  -4.3552095108339686e-52 1.2266229341345279e-52 0.0000000000000000e+00  -2.6641500742843825e-51 1.6662308793381332e-51 0.0000000000000000e+00  -7.6659731497235428e-51 -2.1493724849378516e-52 0.0000000000000000e+00  -7.1926334964532049e-50 4.6058262022855717e-50 0.0000000000000000e+00  -1.6173021569755878e-49 -1.4811511024385552e-50 0.0000000000000000e+00  -1.7287593176562437e-48 1.0120167439359161e-48 0.0000000000000000e+00  -4.3412203407158852e-48 -2.0450965340170174e-49 0.0000000000000000e+00  -2.0130576721924708e-47 1.1118927258183162e-47 0.0000000000000000e+00  -1.1026241213269223e-46 1.8991300553725316e-47 0.0000000000000000e+00  -1.0246383499336724e-46 2.4647768584220926e-47 0.0000000000000000e+00  -1.2404767332315141e-45 5.2627451443075457e-46 0.0000000000000000e+00  -8.7390784693657276e-46 -5.6894535876719771e-46 0.0000000000000000e+00  -1.3428466339540482e-44 8.0854413411625043e-45 0.0000000000000000e+00  -5.7955537928765746e-44 1.3762430245774738e-44 0.0000000000000000e+00  -3.6155069516939676e-44 -1.7545926780596235e-44 0.0000000000000000e+00  -1.1424968049403268e-43 6.5124630724035771e-44 0.0000000000000000e+00  -8.4129346083566511e-43 2.3202446744489921e-43 0.0000000000000000e+00  -1.9291050190818353e-42 1.9790147510709101e-43 0.0000000000000000e+00  -2.5116929197018389e-42 6.1156402935166542e-44 0.0000000000000000e+00  -2.0144793311064587e-42 -1.9514436695662571e-43 0.0000000000000000e+00  -8.6136040756166436e-43 -2.5102031918385026e-43 0.0000000000000000e+00  -1.1324600574738979e-43 -6.4585699577634337e-44 0.0000000000000000e+00  -3.8714912286945255e-44 1.8536713854082473e-44 0.0000000000000000e+00  -6.3164523230033654e-44 -1.0840960677339900e-44 0.0000000000000000e+00  -1.4988143862213954e-44 -7.8810138812547275e-45 0.0000000000000000e+00  -9.9893706125936195e-46 5.6820426340064491e-46 0.0000000000000000e+00  -1.4038430019069689e-45 -5.3950953908525076e-46 0.0000000000000000e+00  -1.1207745547933108e-46 -2.8599905687022222e-47 0.0000000000000000e+00  -1.0180802298594222e-46 -2.1452555111648254e-47 0.0000000000000000e+00  -1.8606883425147882e-47 -1.1990041855099219e-47 0.0000000000000000e+00  -4.0856391569512469e-48 2.0364579544081262e-49 0.0000000000000000e+00  -1.4865452680740872e-48 -9.3707512832450625e-49 0.0000000000000000e+00  -1.6332420027391339e-49 2.4585072975784173e-50 0.0000000000000000e+00  -7.4565862488402163e-50 -4.4248674970529084e-50 0.0000000000000000e+00  -8.2463857191801733e-51 6.4150140284265646e-52 0.0000000000000000e+00  -3.1449727894610109e-51 -1.7849360922941923e-51 0.0000000000000000e+00  -5.1025551840533584e-52 -1.1472757595405884e-52 0.0000000000000000e+00  -8.2049758349725885e-53 -3.5492100750433862e-53 0.0000000000000000e+00  -2.6614981023759094e-53 -1.3163746591178432e-53 0.0000000000000000e+00  -1.1972899324600432e-54 3.2411006223799496e-55 0.0000000000000000e+00  -1.0634960081261034e-54 -6.8081165090351061e-55 0.0000000000000000e+00  -5.1526619872659470e-56 8.3550928462955369e-57 0.0000000000000000e+00  -2.3361784825393305e-56 -1.3243373774772899e-56 0.0000000000000000e+00  -4.8231099489547697e-57 -2.5221232470464893e-57 0.0000000000000000e+00  -2.4589519899523564e-58 8.5489052716264644e-59 0.0000000000000000e+00  -2.1579039227034484e-58 -1.3289025907585082e-58 0.0000000000000000e+00  -1.9908961545966782e-59 -6.1474385030277777e-60 0.0000000000000000e+00  -2.3748245635111144e-60 -3.3966891112157338e-61 0.0000000000000000e+00  -1.2906518532857617e-60 -7.6099939209690548e-61 0.0000000000000000e+00  -7.6902573563997389e-62 -2.1440879791475780e-62 0.0000000000000000e+00  -1.3593065232619160e-62 -2.9309064927052593e-63 0.0000000000000000e+00  -6.6382949732134116e-63 -3.7889722547238759e-63 0.0000000000000000e+00  -4.7826754688812804e-64 -1.8198631313145321e-64 0.0000000000000000e+00  -4.3638808191014806e-65 9.5820623850398227e-67 0.0000000000000000e+00  -2.9478076441339480e-65 -1.6623183953509682e-65 0.0000000000000000e+00  -3.4128478216809569e-66 -1.9889697554480634e-66 0.0000000000000000e+00  -8.9964972105359378e-68 5.4814707208726453e-68 0.0000000000000000e+00  -8.6358729012545459e-68 -4.1780373772847460e-68 0.0000000000000000e+00  -2.0679937180669317e-68 -1.2851177443548499e-68 0.0000000000000000e+00  -1.1325761742857810e-69 -5.1340567425789326e-70 0.0000000000000000e+00  -8.7945911999970538e-71 1.3790635302143148e-71 0.0000000000000000e+00  -6.9077905094466821e-71 -3.6574818143461344e-71 0.0000000000000000e+00  -1.2478376433640782e-71 -7.6628052959572932e-72 0.0000000000000000e+00  -5.9817560039587778e-73 -2.7512297302241370e-73 0.0000000000000000e+00  -3.9238019193857358e-74 7.4239175873205761e-75 0.0000000000000000e+00  -3.1564759801578233e-74 -1.4790761629260386e-74 0.0000000000000000e+00  -6.5905331758317588e-75 -3.3571702786380127e-75 0.0000000000000000e+00  -7.1798717764608151e-76 -3.1071789406710364e-76 0.0000000000000000e+00  -8.5520520740498474e-76 -1.6228354000191178e-75 0.0000000000000000e+00  -4.7736315467862118e-75 -1.3945846872078517e-74 0.0000000000000000e+00  4.3673397882003016e-75 -8.3090837944516769e-75 0.0000000000000000e+00  -1.6295410679597585e-73 -3.4271140762513948e-73 0.0000000000000000e+00  -9.2864945888701234e-71 -1.0068651273713941e-70 0.0000000000000000e+00  -7.5076323380999744e-70 -1.3176247577801301e-69 0.0000000000000000e+00  -1.0986470295053482e-69 -3.6510787170071916e-69 0.0000000000000000e+00  -7.7626891319272436e-68 -1.7112823683073382e-67 0.0000000000000000e+00  -6.5326813694685383e-68 -3.2598206888826204e-67 0.0000000000000000e+00  -6.7916264959755773e-66 -1.3499214491226057e-65 0.0000000000000000e+00  -4.5212844078468338e-66 -2.1315184555570923e-65 0.0000000000000000e+00  -9.0727519150532130e-65 -1.5573111648699692e-64 0.0000000000000000e+00  1.7226733359114678e-65 -2.1036176177599424e-64 0.0000000000000000e+00  -4.2775241700768525e-62 -6.4010600606724392e-62 0.0000000000000000e+00  -7.0020676319291048e-62 -1.7204505967234623e-61 0.0000000000000000e+00  -2.3272759052143341e-62 -2.7285425212734610e-61 0.0000000000000000e+00  -5.7435764246624837e-60 -1.1360215578700248e-59 0.0000000000000000e+00  4.7713727941543010e-60 -1.5022654375921799e-59 0.0000000000000000e+00  -2.9030296249502318e-59 -4.7475302136833124e-59 0.0000000000000000e+00  8.8285763188502887e-60 -6.0865756539751137e-59 0.0000000000000000e+00  2.3276219286971834e-59 -3.9731921315248966e-59 0.0000000000000000e+00  -5.6432953268428351e-58 -8.9443827300852750e-58 0.0000000000000000e+00  -1.3817061823495078e-59 -1.2602305355409061e-57 0.0000000000000000e+00  -4.6387757725506358e-57 -1.1634974865399183e-56 0.0000000000000000e+00  5.7566206187522469e-57 -8.6777901967008742e-57 0.0000000000000000e+00  -5.3407222557339901e-57 -7.3347934164391184e-57 0.0000000000000000e+00  -1.7695729213376635e-56 -3.7722999532501047e-56 0.0000000000000000e+00  2.1650910219010575e-56 -4.0725534567596636e-56 0.0000000000000000e+00  -5.0102912716588869e-57 -9.1975257863013366e-57 0.0000000000000000e+00  -8.1312735303344209e-56 -2.0305091476027425e-55 0.0000000000000000e+00  6.3865074963465081e-56 -5.0773328325309790e-55 0.0000000000000000e+00  -4.2975606620956480e-55 -7.2552894509447784e-55 0.0000000000000000e+00  -4.8854096568102123e-56 -1.8357029866994315e-54 0.0000000000000000e+00  1.6636695940392541e-55 -5.7407134068612205e-55 0.0000000000000000e+00  -5.1927898796611633e-55 -1.6756628999231432e-54 0.0000000000000000e+00  -2.2584750271534910e-54 -7.0705315740399280e-54 0.0000000000000000e+00  2.5882801328337191e-54 -6.0778850144505470e-54 0.0000000000000000e+00  -6.7355886176571922e-55 -2.3893845439785308e-54 0.0000000000000000e+00  5.3385413452861091e-55 -2.8192738184956878e-54 0.0000000000000000e+00  1.2857748887910395e-55 -1.4248222728552092e-54 0.0000000000000000e+00  -2.1857916176435146e-54 -3.4659030806164853e-54 0.0000000000000000e+00  5.7286500225378461e-55 -8.2270537604823632e-54 0.0000000000000000e+00  -3.9407259699723837e-54 -1.3556508442157923e-53 0.0000000000000000e+00  4.7049869862828250e-54 -7.7156521149735474e-54 0.0000000000000000e+00  2.0372916400689534e-55 -6.5063388697751873e-55 0.0000000000000000e+00  -4.8144836616568197e-54 -8.0080765421725049e-54 0.0000000000000000e+00  4.8405479736735092e-54 -7.8701387816083755e-54 0.0000000000000000e+00  -1.6666193995749463e-56 -1.3349755872436418e-55 0.0000000000000000e+00  1.1185773665766613e-56 -2.7679978940526640e-55 0.0000000000000000e+00  2.2132173960845828e-56 -9.8796597628462469e-56 0.0000000000000000e+00  -5.2195031253838232e-54 -9.3538321449848031e-54 0.0000000000000000e+00  5.5669907137430916e-54 -9.4073003674219054e-54 0.0000000000000000e+00  5.6915041759634132e-56 -1.0517985779613091e-55 0.0000000000000000e+00  -1.4371699565866456e-56 -6.2048816608090026e-56 0.0000000000000000e+00  -5.0138319369389798e-55 -9.0474005385469498e-55 0.0000000000000000e+00  -5.8315371847026831e-54 -1.0047155757160184e-53 0.0000000000000000e+00  4.5165761591814853e-54 -1.0490568727322381e-53 0.0000000000000000e+00  -3.0611457955642899e-54 -7.9862711227564200e-54 0.0000000000000000e+00  2.4457186965497285e-54 -8.5490573872720834e-54 0.0000000000000000e+00  2.2526110764471707e-54 -3.3053877820610007e-54 0.0000000000000000e+00  -5.4518000143689270e-55 -1.4800572395286818e-54 0.0000000000000000e+00  8.3787501487878925e-55 -1.5734841690151443e-54 0.0000000000000000e+00  -4.9365064170071133e-55 -9.8345094955454558e-55 0.0000000000000000e+00  5.1377918148470249e-55 -8.8525783900822052e-55 0.0000000000000000e+00  -1.5704858095098536e-56 -2.6928095711024872e-56 0.0000000000000000e+00  -4.4879158701347411e-56 -1.7220385185779455e-55 0.0000000000000000e+00  4.1815091483791254e-56 -1.7465571467183768e-55 0.0000000000000000e+00  4.8108630498731268e-57 -6.9027387658008097e-56 0.0000000000000000e+00  -2.7544019257942402e-56 -6.5442353124302200e-56 0.0000000000000000e+00  3.2944464185611466e-56 -6.4118041959836787e-56 0.0000000000000000e+00  -2.8640956057755664e-57 -2.8735185898909262e-56 0.0000000000000000e+00  1.2982384732959898e-56 -3.0012694680829161e-56 0.0000000000000000e+00  1.0040506036263375e-57 -2.3984723433661060e-57 0.0000000000000000e+00  -4.3896988858740420e-57 -7.6417505973798766e-57 0.0000000000000000e+00  4.2559094441314151e-57 -1.1004379532844477e-56 0.0000000000000000e+00  3.1289438925775438e-58 -1.0211115772373354e-57 0.0000000000000000e+00  1.4398504756984440e-58 -5.025301