<?xml version="1.0"?>
<VTKFile type="UnstructuredGrid"  version="0.1"  >
<UnstructuredGrid>
<Piece  NumberOfPoints="11902" NumberOfCells="23402">
<Points>
<DataArray  type="Float64"  NumberOfComponents="3"  format="ascii">-5 -5 0  5 -5 0  5 5 0  -5 5 0  1.25986874789274 0.001337993802756003 0  -4.9 -5 0  -4.8 -5 0  -4.7 -5 0  -4.6 -5 0  -4.5 -5 0  -4.4 -5 0  -4.3 -5 0  -4.2 -5 0  -4.1 -5 0  -4 -5 0  -3.9 -5 0  -3.8 -5 0  -3.7 -5 0  -3.6 -5 0  -3.5 -5 0  -3.4 -5 0  -3.3 -5 0  -3.2 -5 0  -3.1 -5 0  -3 -5 0  -2.9 -5 0  -2.8 -5 0  -2.7 -5 0  -2.6 -5 0  -2.5 -5 0  -2.4 -5 0  -2.3 -5 0  -2.2 -5 0  -2.1 -5 0  -2 -5 0  -1.9 -5 0  -1.8 -5 0  -1.7 -5 0  -1.6 -5 0  -1.5 -5 0  -1.4 -5 0  -1.3 -5 0  -1.2 -5 0  -1.1 -5 0  -1 -5 0  -0.9000000000000004 -5 0  -0.7999999999999998 -5 0  -0.7000000000000002 -5 0  -0.5999999999999996 -5 0  -0.5 -5 0  -0.4000000000000004 -5 0  -0.2999999999999998 -5 0  -0.2000000000000002 -5 0  -0.09999999999999964 -5 0  0 -5 0  0.09999999999999964 -5 0  0.2000000000000002 -5 0  0.2999999999999998 -5 0  0.4000000000000004 -5 0  0.5 -5 0  0.5999999999999996 -5 0  0.7000000000000002 -5 0  0.7999999999999998 -5 0  0.9000000000000004 -5 0  1 -5 0  1.1 -5 0  1.2 -5 0  1.3 -5 0  1.4 -5 0  1.5 -5 0  1.6 -5 0  1.7 -5 0  1.8 -5 0  1.9 -5 0  2 -5 0  2.1 -5 0  2.2 -5 0  2.3 -5 0  2.4 -5 0  2.5 -5 0  2.6 -5 0  2.7 -5 0  2.8 -5 0  2.9 -5 0  3 -5 0  3.1 -5 0  3.199999999999999 -5 0  3.300000000000001 -5 0  3.4 -5 0  3.5 -5 0  3.6 -5 0  3.699999999999999 -5 0  3.800000000000001 -5 0  3.9 -5 0  4 -5 0  4.1 -5 0  4.199999999999999 -5 0  4.300000000000001 -5 0  4.4 -5 0  4.5 -5 0  4.6 -5 0  4.699999999999999 -5 0  4.800000000000001 -5 0  4.9 -5 0  5 -4.9 0  5 -4.8 0  5 -4.7 0  5 -4.6 0  5 -4.5 0  5 -4.4 0  5 -4.3 0  5 -4.2 0  5 -4.1 0  5 -4 0  5 -3.9 0  5 -3.8 0  5 -3.7 0  5 -3.6 0  5 -3.5 0  5 -3.4 0  5 -3.3 0  5 -3.2 0  5 -3.1 0  5 -3 0  5 -2.9 0  5 -2.8 0  5 -2.7 0  5 -2.6 0  5 -2.5 0  5 -2.4 0  5 -2.3 0  5 -2.2 0  5 -2.1 0  5 -2 0  5 -1.9 0  5 -1.8 0  5 -1.7 0  5 -1.6 0  5 -1.5 0  5 -1.4 0  5 -1.3 0  5 -1.2 0  5 -1.1 0  5 -1 0  5 -0.9000000000000004 0  5 -0.7999999999999998 0  5 -0.7000000000000002 0  5 -0.5999999999999996 0  5 -0.5 0  5 -0.4000000000000004 0  5 -0.2999999999999998 0  5 -0.2000000000000002 0  5 -0.09999999999999964 0  5 0 0  5 0.09999999999999964 0  5 0.2000000000000002 0  5 0.2999999999999998 0  5 0.4000000000000004 0  5 0.5 0  5 0.5999999999999996 0  5 0.7000000000000002 0  5 0.7999999999999998 0  5 0.9000000000000004 0  5 1 0  5 1.1 0  5 1.2 0  5 1.3 0  5 1.4 0  5 1.5 0  5 1.6 0  5 1.7 0  5 1.8 0  5 1.9 0  5 2 0  5 2.1 0  5 2.2 0  5 2.3 0  5 2.4 0  5 2.5 0  5 2.6 0  5 2.7 0  5 2.8 0  5 2.9 0  5 3 0  5 3.1 0  5 3.199999999999999 0  5 3.300000000000001 0  5 3.4 0  5 3.5 0  5 3.6 0  5 3.699999999999999 0  5 3.800000000000001 0  5 3.9 0  5 4 0  5 4.1 0  5 4.199999999999999 0  5 4.300000000000001 0  5 4.4 0  5 4.5 0  5 4.6 0  5 4.699999999999999 0  5 4.800000000000001 0  5 4.9 0  4.9 5 0  4.8 5 0  4.7 5 0  4.6 5 0  4.5 5 0  4.4 5 0  4.3 5 0  4.2 5 0  4.1 5 0  4 5 0  3.9 5 0  3.8 5 0  3.7 5 0  3.6 5 0  3.5 5 0  3.4 5 0  3.3 5 0  3.2 5 0  3.1 5 0  3 5 0  2.9 5 0  2.8 5 0  2.7 5 0  2.6 5 0  2.5 5 0  2.4 5 0  2.3 5 0  2.2 5 0  2.1 5 0  2 5 0  1.9 5 0  1.8 5 0  1.7 5 0  1.6 5 0  1.5 5 0  1.4 5 0  1.3 5 0  1.2 5 0  1.1 5 0  1 5 0  0.9000000000000004 5 0  0.7999999999999998 5 0  0.7000000000000002 5 0  0.5999999999999996 5 0  0.5 5 0  0.4000000000000004 5 0  0.2999999999999998 5 0  0.2000000000000002 5 0  0.09999999999999964 5 0  0 5 0  -0.09999999999999964 5 0  -0.2000000000000002 5 0  -0.2999999999999998 5 0  -0.4000000000000004 5 0  -0.5 5 0  -0.5999999999999996 5 0  -0.7000000000000002 5 0  -0.7999999999999998 5 0  -0.9000000000000004 5 0  -1 5 0  -1.1 5 0  -1.2 5 0  -1.3 5 0  -1.4 5 0  -1.5 5 0  -1.6 5 0  -1.7 5 0  -1.8 5 0  -1.9 5 0  -2 5 0  -2.1 5 0  -2.2 5 0  -2.3 5 0  -2.4 5 0  -2.5 5 0  -2.6 5 0  -2.7 5 0  -2.8 5 0  -2.9 5 0  -3 5 0  -3.1 5 0  -3.199999999999999 5 0  -3.300000000000001 5 0  -3.4 5 0  -3.5 5 0  -3.6 5 0  -3.699999999999999 5 0  -3.800000000000001 5 0  -3.9 5 0  -4 5 0  -4.1 5 0  -4.199999999999999 5 0  -4.300000000000001 5 0  -4.4 5 0  -4.5 5 0  -4.6 5 0  -4.699999999999999 5 0  -4.800000000000001 5 0  -4.9 5 0  -5 4.9 0  -5 4.8 0  -5 4.7 0  -5 4.6 0  -5 4.5 0  -5 4.4 0  -5 4.3 0  -5 4.2 0  -5 4.1 0  -5 4 0  -5 3.9 0  -5 3.8 0  -5 3.7 0  -5 3.6 0  -5 3.5 0  -5 3.4 0  -5 3.3 0  -5 3.2 0  -5 3.1 0  -5 3 0  -5 2.9 0  -5 2.8 0  -5 2.7 0  -5 2.6 0  -5 2.5 0  -5 2.4 0  -5 2.3 0  -5 2.2 0  -5 2.1 0  -5 2 0  -5 1.9 0  -5 1.8 0  -5 1.7 0  -5 1.6 0  -5 1.5 0  -5 1.4 0  -5 1.3 0  -5 1.2 0  -5 1.1 0  -5 1 0  -5 0.9000000000000004 0  -5 0.7999999999999998 0  -5 0.7000000000000002 0  -5 0.5999999999999996 0  -5 0.5 0  -5 0.4000000000000004 0  -5 0.2999999999999998 0  -5 0.2000000000000002 0  -5 0.09999999999999964 0  -5 0 0  -5 -0.09999999999999964 0  -5 -0.2000000000000002 0  -5 -0.2999999999999998 0  -5 -0.4000000000000004 0  -5 -0.5 0  -5 -0.5999999999999996 0  -5 -0.7000000000000002 0  -5 -0.7999999999999998 0  -5 -0.9000000000000004 0  -5 -1 0  -5 -1.1 0  -5 -1.2 0  -5 -1.3 0  -5 -1.4 0  -5 -1.5 0  -5 -1.6 0  -5 -1.7 0  -5 -1.8 0  -5 -1.9 0  -5 -2 0  -5 -2.1 0  -5 -2.2 0  -5 -2.3 0  -5 -2.4 0  -5 -2.5 0  -5 -2.6 0  -5 -2.7 0  -5 -2.8 0  -5 -2.9 0  -5 -3 0  -5 -3.1 0  -5 -3.199999999999999 0  -5 -3.300000000000001 0  -5 -3.4 0  -5 -3.5 0  -5 -3.6 0  -5 -3.699999999999999 0  -5 -3.800000000000001 0  -5 -3.9 0  -5 -4 0  -5 -4.1 0  -5 -4.199999999999999 0  -5 -4.300000000000001 0  -5 -4.4 0  -5 -4.5 0  -5 -4.6 0  -5 -4.699999999999999 0  -5 -4.800000000000001 0  -5 -4.9 0  1.251716913228948 0.09460946035319288 0  1.229950934033085 0.1922342779005596 0  1.196501381002075 0.2887438093391164 0  1.153657338972432 0.3773705104121186 0  1.095631339473452 0.468229535415957 0  1.029773162082753 0.5524314656908162 0  0.9513747009230412 0.6324770317459696 0  0.8644955364007445 0.7071734220986406 0  0.7726993348302724 0.7726028929733681 0  0.6703506748549591 0.829970241974423 0  0.5583192651366875 0.8822308671751509 0  0.4456990116546631 0.9267486059203948 0  0.3334633334731812 0.9588709055655925 0  0.2087339702565117 0.9805239292370217 0  0.08880863946684972 0.9994489432078244 0  -0.02700131648662496 1.002773949230246 0  -0.1446987812199109 0.9890083379019536 0  -0.2722401243128637 0.969948951472375 0  -0.3915979492800973 0.9457524879684112 0  -0.5021680441639693 0.9098317617475191 0  -0.6116311503400297 0.8633615191118157 0  -0.7137724933337573 0.8086688540503854 0  -0.8084431672517718 0.7438139504885097 0  -0.8995497238580291 0.6702715619790305 0  -0.9852389970885186 0.5904709267437149 0  -1.059615362906235 0.509332630673846 0  -1.121434154785465 0.4240940277805195 0  -1.174913570380152 0.3316532792810241 0  -1.212831711513268 0.2427150206136452 0  -1.237305081090411 0.1485781346494485 0  -1.248262013284718 0.0517066320996003 0  -1.24821788120858 -0.04955710533050725 0  -1.237284765021562 -0.1456660207960438 0  -1.212474864146174 -0.2379395661102957 0  -1.170976161589101 -0.3327483915686048 0  -1.121787752006491 -0.4245898241497884 0  -1.061348295545345 -0.5091838322470689 0  -0.98769289059934 -0.5894567404139009 0  -0.9026362023934241 -0.6681569012266285 0  -0.8120713492038582 -0.7398083320277185 0  -0.7161758091940519 -0.8008209330774921 0  -0.6114604693562415 -0.8539262186894184 0  -0.4974178961275154 -0.9034621611964804 0  -0.3845829080051641 -0.943295638819702 0  -0.2689301515188567 -0.9696699459825506 0  -0.1431830877323026 -0.9888655600445199 0  -0.02786024863263304 -1.001991770262152 0  0.08804638578485272 -0.9947012076988331 0  0.2143187905172614 -0.9770529575291057 0  0.3360754886878922 -0.9572655425117731 0  0.4498532425667743 -0.9254260339018049 0  0.5607463099523486 -0.8814541212907105 0  0.6713525165813428 -0.8300067396797538 0  0.7726511066156586 -0.7737141260947547 0  0.8645125670738932 -0.7082580518131245 0  0.950342062449982 -0.632650498359926 0  1.027172453701135 -0.5513758855382717 0  1.096488380557098 -0.4671043562694704 0  1.154475477524943 -0.3777483484968569 0  1.198243635343058 -0.2867834961939326 0  1.230636880020943 -0.1913896879247625 0  1.2520850461079 -0.09438729088694089 0  -2.448549951039674 4.918093431123176 0  -2.448423054642664 -4.91046983617596 0  4.910393536265504 2.447876332170305 0  4.918522450073897 -2.449339581174548 0  2.446150742889576 -4.89569718045625 0  2.440584721571374 4.899460803896441 0  -4.910420704933109 -2.447902873612592 0  -4.91041797040211 2.447906848748053 0  -1.748503575421383 4.910972164367285 0  -1.744290680060641 -4.914414875500157 0  4.920562886220054 1.744052884881818 0  4.909086626314786 -1.747811552582764 0  -4.909381192633545 -1.747546002323558 0  -4.910204108628752 1.74729114200214 0  1.745775561445814 4.904825394578451 0  1.747187042709678 -4.892964183056319 0  -1.14881694192662 4.908746525198481 0  -1.129675776677826 -4.916668148233782 0  -4.909081339752018 -1.147878007411258 0  -4.908899427724136 1.147678506427922 0  1.143813107395562 -4.912849230215997 0  1.148826880046065 4.908733022340074 0  4.909220743288489 1.14615312448042 0  4.920065716465095 -1.151940959980476 0  -0.5466560348027943 -4.909930349966894 0  -0.5464400153035937 4.918624117081347 0  -4.907799824997875 -0.5486807949625868 0  -4.907823781378095 0.5472387405069884 0  4.907117316843893 -0.5489988328264082 0  4.918791491213147 0.5457597395795046 0  0.5424371756915199 -4.896793415221162 0  0.551168262689033 4.915443254802937 0  -4.911858473318533 -3.04826433500303 0  4.918431844436899 3.046282420231208 0  4.911365947077226 -3.048239667738375 0  -4.912706502168052 3.045356197083495 0  3.05527743513612 -4.917354180155852 0  -3.048606501563966 -4.911287680571777 0  3.052174313436922 4.913366162992182 0  -3.048052334933526 4.912177819808793 0  -4.906902659522606 -0.04990497258007576 0  0.04511901994488733 -4.911879709447097 0  0.04956645948033497 4.918915014059632 0  4.913967912320582 -0.05128732341369268 0  3.5456008799785 -4.91900688450029 0  -3.548879766834403 4.9119
[...]
<PointData  Vectors="f_5054"> 
<DataArray  type="Float64"  Name="f_5054"  NumberOfComponents="3" format="ascii">2.6559658580600303e-76 2.6559658580600303e-76 0.0000000000000000e+00  -2.8445085011138815e-76 2.8445085011138815e-76 0.0000000000000000e+00  -8.5659604779173136e-78 -8.5659604779173136e-78 0.0000000000000000e+00  3.0308186857311735e-76 -3.0308186857311735e-76 0.0000000000000000e+00  7.8532021440854005e-01 8.8993704636648290e-03 0.0000000000000000e+00  4.1659667728475180e-75 6.6062014176639311e-75 0.0000000000000000e+00  2.0823472565147822e-75 2.0880001622421817e-74 0.0000000000000000e+00  -3.4059804792098482e-75 6.7716711898665261e-75 0.0000000000000000e+00  4.0004508344076606e-72 6.6678548541687225e-72 0.0000000000000000e+00  5.3173774804603711e-71 1.3457843771184209e-70 0.0000000000000000e+00  -7.9209102660622633e-72 4.5553168804336285e-71 0.0000000000000000e+00  3.2348046261820126e-69 6.1620031325883077e-69 0.0000000000000000e+00  5.1623095970692582e-68 9.3982267201659535e-68 0.0000000000000000e+00  -3.0654596704790193e-68 1.5001048961096908e-67 0.0000000000000000e+00  1.2770497660797424e-67 3.9815249286119460e-67 0.0000000000000000e+00  1.2631462818414909e-68 8.7790724100690209e-67 0.0000000000000000e+00  5.4532045547077412e-64 8.8221639049684746e-64 0.0000000000000000e+00  4.7442486024763747e-65 2.4418647663892366e-63 0.0000000000000000e+00  1.3496052308548788e-62 2.1987702256941639e-62 0.0000000000000000e+00  8.0684217477077955e-63 8.3179913949857725e-62 0.0000000000000000e+00  6.9338395056920304e-61 1.1021677745427054e-60 0.0000000000000000e+00  4.0638550396963690e-60 7.0059395412986477e-60 0.0000000000000000e+00  -2.8481123045594408e-60 7.6995504431993075e-60 0.0000000000000000e+00  5.6644345532095682e-59 1.1366960520578384e-58 0.0000000000000000e+00  -1.7595466864271473e-59 1.1646731013529292e-58 0.0000000000000000e+00  -3.0045503022292141e-59 6.8389937625773337e-59 0.0000000000000000e+00  1.8029705218016483e-58 3.3039249079387286e-58 0.0000000000000000e+00  7.3015325134448374e-58 2.0893056719760388e-57 0.0000000000000000e+00  2.8616869899143969e-57 6.2324125000199733e-57 0.0000000000000000e+00  -3.4086013643820386e-57 5.7386460201042957e-57 0.0000000000000000e+00  -3.5238205529840999e-58 1.0978545971538192e-57 0.0000000000000000e+00  1.9093365118321408e-56 2.9316431404939173e-56 0.0000000000000000e+00  -1.4141097846627406e-56 3.5311276914347946e-56 0.0000000000000000e+00  1.1918226426922634e-56 2.8932179119406218e-56 0.0000000000000000e+00  8.7412062692541369e-56 2.0973974720704664e-55 0.0000000000000000e+00  -2.5122269729206708e-56 5.7434443249894533e-55 0.0000000000000000e+00  5.2124996636969118e-57 8.6114751091513186e-57 0.0000000000000000e+00  5.5469689535978011e-56 1.3815793252275664e-55 0.0000000000000000e+00  1.5495747132345517e-55 6.1691829262052856e-55 0.0000000000000000e+00  -2.2372888983173184e-55 3.5167922344672954e-55 0.0000000000000000e+00  9.8407018402580942e-55 1.7227091638531169e-54 0.0000000000000000e+00  -4.4227422000018603e-55 4.3615305272834407e-54 0.0000000000000000e+00  -2.2838724556761801e-55 2.6820412161514148e-54 0.0000000000000000e+00  -9.6230747236879702e-56 9.4398148528438869e-55 0.0000000000000000e+00  -1.1316746778971494e-55 1.8223494843363773e-55 0.0000000000000000e+00  2.7613594248839798e-54 5.2328029158182811e-54 0.0000000000000000e+00  -2.1610473268393602e-54 4.1394101944979506e-54 0.0000000000000000e+00  -7.1960807649203107e-55 8.0819831016986258e-55 0.0000000000000000e+00  -1.3212225375702141e-55 2.7133261063487174e-55 0.0000000000000000e+00  9.3084606364405960e-55 1.4450013130920089e-54 0.0000000000000000e+00  9.4603646718684101e-55 6.1542660120008305e-54 0.0000000000000000e+00  -1.1292016600917315e-54 5.8988412037320083e-54 0.0000000000000000e+00  5.1500160299101035e-55 4.6479582656498116e-54 0.0000000000000000e+00  1.9092200017707866e-56 5.7928747548246559e-54 0.0000000000000000e+00  3.0193369992991947e-55 6.1510311206287838e-54 0.0000000000000000e+00  -1.2624034011555842e-54 2.0441148841675731e-54 0.0000000000000000e+00  -6.4590755953792841e-55 1.4722901012274373e-53 0.0000000000000000e+00  4.4665180132138360e-54 7.4695041295304967e-54 0.0000000000000000e+00  -4.3499931387754743e-54 8.0953354846678906e-54 0.0000000000000000e+00  1.9231197007998928e-54 3.9571582507427238e-54 0.0000000000000000e+00  -7.3660515866458802e-55 9.4984576854031128e-54 0.0000000000000000e+00  1.3320816170520620e-54 9.3289636178840878e-54 0.0000000000000000e+00  -1.6860448226130344e-54 4.3959947565625950e-54 0.0000000000000000e+00  -9.2567230709409398e-55 2.4044480367807546e-54 0.0000000000000000e+00  3.3339302433256739e-55 1.2997059196297504e-54 0.0000000000000000e+00  2.6591761250888786e-55 2.5376726379026964e-54 0.0000000000000000e+00  -7.8335888998467908e-56 3.4897654537483180e-54 0.0000000000000000e+00  -7.1179226542901448e-55 1.4811856242604052e-54 0.0000000000000000e+00  2.3796087103845550e-55 4.4271457476695463e-55 0.0000000000000000e+00  -2.3113126396711443e-55 6.0222134420003540e-55 0.0000000000000000e+00  5.0373608163834461e-56 2.3982798991206188e-55 0.0000000000000000e+00  1.8678446306819550e-55 9.5251264203134219e-55 0.0000000000000000e+00  -3.3058667398873951e-55 5.2997769246880474e-55 0.0000000000000000e+00  -1.5918511255438421e-56 4.8209700117845910e-56 0.0000000000000000e+00  -1.1355476288015251e-57 1.1332084205584698e-56 0.0000000000000000e+00  6.7580524541471903e-57 2.3555995093746983e-56 0.0000000000000000e+00  -8.9978165849427082e-57 1.5013128782724472e-56 0.0000000000000000e+00  1.7427743269370618e-57 2.8884668608362318e-57 0.0000000000000000e+00  -1.2448618159842159e-57 2.7232696537499544e-57 0.0000000000000000e+00  5.1786891607717076e-57 7.8133710913359937e-57 0.0000000000000000e+00  -4.5347389009120216e-57 1.1246812976807530e-56 0.0000000000000000e+00  -1.8143711005364834e-58 9.3934126696142939e-58 0.0000000000000000e+00  -2.3928076376305661e-58 4.6503592789318837e-58 0.0000000000000000e+00  -7.8796012789427406e-61 8.8102686527739951e-59 0.0000000000000000e+00  -2.4463044615354584e-59 6.4207295262648623e-59 0.0000000000000000e+00  -7.1164783830304061e-60 2.4991585158195834e-59 0.0000000000000000e+00  -4.3850105907317383e-60 2.2383282981582680e-59 0.0000000000000000e+00  -3.0628624565468601e-60 7.1658283070795884e-60 0.0000000000000000e+00  -8.5233882606004485e-62 4.4345877990506617e-61 0.0000000000000000e+00  -1.0758167064405285e-61 2.2333615667934404e-61 0.0000000000000000e+00  -3.5870008578456694e-62 5.6723168054345557e-62 0.0000000000000000e+00  -3.9096246365110900e-64 6.6957511005171072e-64 0.0000000000000000e+00  -2.4310006644887461e-65 5.1696734794615594e-65 0.0000000000000000e+00  3.7078997830248998e-66 1.0388380107169254e-65 0.0000000000000000e+00  -4.8419172221725512e-66 9.2599543115918224e-66 0.0000000000000000e+00  -6.6991949153896936e-68 2.7708691232611136e-67 0.0000000000000000e+00  -7.8529022471573869e-68 1.2915567445968198e-67 0.0000000000000000e+00  -8.0605054948901851e-69 1.1730255960998857e-68 0.0000000000000000e+00  -5.6331299190984993e-70 9.5192301119352911e-70 0.0000000000000000e+00  -3.7793512217485787e-71 6.8180660611270261e-71 0.0000000000000000e+00  -1.8784039837780059e-72 3.2024895686771406e-72 0.0000000000000000e+00  -1.2177364208405847e-73 2.7266587048126265e-73 0.0000000000000000e+00  -4.4211139085540465e-75 1.2911336394573395e-74 0.0000000000000000e+00  -2.5481133771539102e-75 4.2411505581337726e-75 0.0000000000000000e+00  -9.7688139381900281e-76 3.5583928943094766e-76 0.0000000000000000e+00  -1.6211410493023302e-75 -2.3925730068841271e-76 0.0000000000000000e+00  -2.4488334454247424e-74 1.1591596913337546e-74 0.0000000000000000e+00  -3.6791203678390268e-74 1.5505188835528259e-75 0.0000000000000000e+00  -3.8828845399209901e-73 1.4336345893222004e-73 0.0000000000000000e+00  -1.0236382259346091e-71 6.2394822048007124e-72 0.0000000000000000e+00  -6.7399000874058749e-71 3.7092275755641019e-71 0.0000000000000000e+00  -1.0610280724219393e-70 3.9042862608550783e-72 0.0000000000000000e+00  -8.8995057814437275e-70 3.3100231933551676e-70 0.0000000000000000e+00  -2.1281448391802874e-68 1.2870081196535965e-68 0.0000000000000000e+00  -1.0235242727820233e-67 5.1127711765713115e-68 0.0000000000000000e+00  -1.0138467333697706e-67 -6.0296145844639797e-68 0.0000000000000000e+00  -3.1649158153569350e-66 1.7471267020915196e-66 0.0000000000000000e+00  -3.1842379349727626e-65 1.8329860966744512e-65 0.0000000000000000e+00  -5.3856200220297608e-65 5.0496987263719439e-66 0.0000000000000000e+00  -4.4357916577548515e-64 1.4475558812839731e-64 0.0000000000000000e+00  -6.9903773317774066e-63 4.3626557314739499e-63 0.0000000000000000e+00  -1.5062033928907021e-62 3.7518809843732800e-63 0.0000000000000000e+00  -8.4321216012199018e-62 1.9681732936773980e-62 0.0000000000000000e+00  -1.3543291467198981e-60 8.5264521428409315e-61 0.0000000000000000e+00  -2.4166570549411846e-60 3.3855140046900908e-61 0.0000000000000000e+00  -2.1164325735780643e-59 7.4052689505744606e-60 0.0000000000000000e+00  -2.4159191032927629e-58 1.4961692493074771e-58 0.0000000000000000e+00  -2.5883207118241279e-58 -9.4287722965498721e-59 0.0000000000000000e+00  -5.9759764773824044e-57 2.7847542559934231e-57 0.0000000000000000e+00  -2.4825807527387371e-56 1.2405492832129284e-56 0.0000000000000000e+00  -5.5640560326021501e-56 -8.6962047852087228e-57 0.0000000000000000e+00  -1.0108164776525714e-54 6.4871232564997427e-55 0.0000000000000000e+00  -1.1208436737878530e-54 -3.4678990823567112e-55 0.0000000000000000e+00  -2.4071048001255452e-53 1.2707086302424337e-53 0.0000000000000000e+00  -6.5912712786578217e-53 2.9922695333177125e-53 0.0000000000000000e+00  -4.3557680150580503e-52 1.2255945329413202e-52 0.0000000000000000e+00  -2.6648888355383921e-51 1.6646839481986345e-51 0.0000000000000000e+00  -7.6659132095435708e-51 -2.1459473667272094e-52 0.0000000000000000e+00  -7.1945950561292392e-50 4.6012003031117638e-50 0.0000000000000000e+00  -1.6172517685264303e-49 -1.4793316664161948e-50 0.0000000000000000e+00  -1.7291632334021439e-48 1.0109261104446704e-48 0.0000000000000000e+00  -4.3411779516092458e-48 -2.0421819764462228e-49 0.0000000000000000e+00  -2.0134582139176121e-47 1.1106129240861845e-47 0.0000000000000000e+00  -1.1026988254520916e-46 1.8970169042160602e-47 0.0000000000000000e+00  -1.0247131841426313e-46 2.4617564739488109e-47 0.0000000000000000e+00  -1.2406367611144522e-45 5.2562870880659620e-46 0.0000000000000000e+00  -8.7377393258761587e-46 -5.6821325949265171e-46 0.0000000000000000e+00  -1.3430345130623823e-44 8.0750166127348487e-45 0.0000000000000000e+00  -5.7958883983788615e-44 1.3744705286568260e-44 0.0000000000000000e+00  -3.6152915310025562e-44 -1.7522310566607338e-44 0.0000000000000000e+00  -1.1425792725616801e-43 6.5037097173776843e-44 0.0000000000000000e+00  -8.4132284026751044e-43 2.3171178603257440e-43 0.0000000000000000e+00  -1.9291426340179197e-42 1.9763461285327929e-43 0.0000000000000000e+00  -2.5117331801734230e-42 6.1072853362021908e-44 0.0000000000000000e+00  -2.0145178823627281e-42 -1.9488121559482032e-43 0.0000000000000000e+00  -8.6139178353306908e-43 -2.5068168923126454e-43 0.0000000000000000e+00  -1.1325437667516338e-43 -6.4498863773961335e-44 0.0000000000000000e+00  -3.8712564880840117e-44 1.8511763546192974e-44 0.0000000000000000e+00  -6.3167375168807317e-44 -1.0827087830386228e-44 0.0000000000000000e+00  -1.4990005602614264e-44 -7.8708529409024979e-45 0.0000000000000000e+00  -9.9880105913504590e-46 5.6747320055486670e-46 0.0000000000000000e+00  -1.4040085554122639e-45 -5.3884694724761173e-46 0.0000000000000000e+00  -1.1208632112882704e-46 -2.8564938821202378e-47 0.0000000000000000e+00  -1.0181624581266877e-46 -2.1428297632589959e-47 0.0000000000000000e+00  -1.8611232309061909e-47 -1.1976213128066742e-47 0.0000000000000000e+00  -4.0855982204646056e-48 2.0335206574957382e-49 0.0000000000000000e+00  -1.4869217941603064e-48 -9.3606321774061871e-49 0.0000000000000000e+00  -1.6331510469536695e-49 2.4556496266495992e-50 0.0000000000000000e+00  -7.4584844998023544e-50 -4.4204203408903725e-50 0.0000000000000000e+00  -8.2461381589275374e-51 6.4074439059936522e-52 0.0000000000000000e+00  -3.1457690823994232e-51 -1.7832755970982814e-51 0.0000000000000000e+00  -5.1030817780311580e-52 -1.1463209917975406e-52 0.0000000000000000e+00  -8.2065895189377884e-53 -3.5461760866989920e-53 0.0000000000000000e+00  -2.6620987306249734e-53 -1.3153278517438312e-53 0.0000000000000000e+00  -1.1971422888426341e-54 3.2385562902897931e-55 0.0000000000000000e+00  -1.0638034523736108e-54 -6.8031634815211818e-55 0.0000000000000000e+00  -5.1522752377584350e-56 8.3483432411492002e-57 0.0000000000000000e+00  -2.3367626337797503e-56 -1.3234638282078117e-56 0.0000000000000000e+00  -4.8241921933673442e-57 -2.5205944703258662e-57 0.0000000000000000e+00  -2.4585871103524887e-58 8.5437838363112614e-59 0.0000000000000000e+00  -2.1584513143989618e-58 -1.3281712842063189e-58 0.0000000000000000e+00  -1.9911348985175167e-59 -6.1444502537597776e-60 0.0000000000000000e+00  -2.3749570056385142e-60 -3.3950167801154638e-61 0.0000000000000000e+00  -1.2909346624399396e-60 -7.6065605123366630e-61 0.0000000000000000e+00  -7.6909861995515636e-62 -2.1432563994771037e-62 0.0000000000000000e+00  -1.3594077873957997e-62 -2.9297331283650545e-63 0.0000000000000000e+00  -6.6395249872650211e-63 -3.7875923655377219e-63 0.0000000000000000e+00  -4.7832159850757883e-64 -1.8192800257053884e-64 0.0000000000000000e+00  -4.3638525412237097e-65 9.5790122583354943e-67 0.0000000000000000e+00  -2.9482600288794068e-65 -1.6618434227467678e-65 0.0000000000000000e+00  -3.4133425142708903e-66 -1.9884630922784794e-66 0.0000000000000000e+00  -8.9951421758669988e-68 5.4800845765955723e-68 0.0000000000000000e+00  -8.6367797768341664e-68 -4.1771340622836185e-68 0.0000000000000000e+00  -2.0682437602426267e-68 -1.2848730450854274e-68 0.0000000000000000e+00  -1.1326610931404702e-69 -5.1332428585479894e-70 0.0000000000000000e+00  -8.7943667623515559e-71 1.3788484249706180e-71 0.0000000000000000e+00  -6.9082935260833821e-71 -3.6570064076809804e-71 0.0000000000000000e+00  -1.2479257059950284e-71 -7.6619817483087835e-72 0.0000000000000000e+00  -5.9819950291784669e-73 -2.7510087173973098e-73 0.0000000000000000e+00  -3.9237399644207750e-74 7.4233445657583431e-75 0.0000000000000000e+00  -3.1565616225588772e-74 -1.4789974617844909e-74 0.0000000000000000e+00  -6.5906505530153813e-75 -3.3570628310160125e-75 0.0000000000000000e+00  -7.1799045225103682e-76 -3.1071490495893631e-76 0.0000000000000000e+00  -8.5519226035719439e-76 -1.6228472226129057e-75 0.0000000000000000e+00  -4.7735472395962048e-75 -1.3945924233021386e-74 0.0000000000000000e+00  4.3670412324912127e-75 -8.3088133164907754e-75 0.0000000000000000e+00  -1.6294253315962931e-73 -3.4272188763213403e-73 0.0000000000000000e+00  -9.2855798122824292e-71 -1.0069473600975289e-70 0.0000000000000000e+00  -7.5067211707554021e-70 -1.3177058763029395e-69 0.0000000000000000e+00  -1.0984908200725269e-69 -3.6512165133423587e-69 0.0000000000000000e+00  -7.7614507615383971e-68 -1.7113906771323055e-67 0.0000000000000000e+00  -6.5314653859798305e-68 -3.2599254728889828e-67 0.0000000000000000e+00  -6.7902952064910668e-66 -1.3500356204241281e-65 0.0000000000000000e+00  -4.5202280972972926e-66 -2.1316067674185652e-65 0.0000000000000000e+00  -9.0704650028165369e-65 -1.5574999018304265e-64 0.0000000000000000e+00  1.7221852356049555e-65 -2.1035782801161093e-64 0.0000000000000000e+00  -4.2762664738169886e-62 -6.4020658604241805e-62 0.0000000000000000e+00  -6.9997559559506310e-62 -1.7206298584384202e-61 0.0000000000000000e+00  -2.3264422762534923e-62 -2.7286055862394591e-61 0.0000000000000000e+00  -5.7414679413552470e-60 -1.1361799238112600e-59 0.0000000000000000e+00  4.7692447951980038e-60 -1.5021170417986055e-59 0.0000000000000000e+00  -2.9017819669170722e-59 -4.7484122955856949e-59 0.0000000000000000e+00  8.8244312526812545e-60 -6.0862942946201234e-59 0.0000000000000000e+00  2.3264316647794077e-59 -3.9724195116533086e-59 0.0000000000000000e+00  -5.6404069451639099e-58 -8.9462567075084202e-58 0.0000000000000000e+00  -1.3809400859214295e-59 -1.2602352688875754e-57 0.0000000000000000e+00  -4.6362053466764503e-57 -1.1636566640820568e-56 0.0000000000000000e+00  5.7530063491570870e-57 -8.6757484377204542e-57 0.0000000000000000e+00  -5.3373350852738390e-57 -7.3366912776161698e-57 0.0000000000000000e+00  -1.7683863555860969e-56 -3.7729329039609396e-56 0.0000000000000000e+00  2.1635369895061219e-56 -4.0717785604669269e-56 0.0000000000000000e+00  -5.0066637188303149e-57 -9.1993175996493782e-57 0.0000000000000000e+00  -8.1252441196902410e-56 -2.0307993000606902e-55 0.0000000000000000e+00  6.3806136843559018e-56 -5.0771236189933443e-55 0.0000000000000000e+00  -4.2940451255132122e-55 -7.2567741187823273e-55 0.0000000000000000e+00  -4.8833140959520752e-56 -1.8357256418135619e-54 0.0000000000000000e+00  1.6621988662853654e-55 -5.7401702121157742e-55 0.0000000000000000e+00  -5.1883028414720474e-55 -1.6758373047408279e-54 0.0000000000000000e+00  -2.2564411670258992e-54 -7.0712584291403918e-54 0.0000000000000000e+00  2.5857343160432132e-54 -6.0771693074875809e-54 0.0000000000000000e+00  -6.7291955276183286e-55 -2.3895861866040082e-54 0.0000000000000000e+00  5.3328855301131859e-55 -2.8191584085919914e-54 0.0000000000000000e+00  1.2843195796251534e-55 -1.4248037980915533e-54 0.0000000000000000e+00  -2.1835097565920311e-54 -3.4663942868572079e-54 0.0000000000000000e+00  5.7218484569654096e-55 -8.2270280210295926e-54 0.0000000000000000e+00  -3.9365494978645821e-54 -1.3557337916749577e-53 0.0000000000000000e+00  4.6998117090902481e-54 -7.7149586923341922e-54 0.0000000000000000e+00  2.0350058744648109e-55 -6.5061344452260048e-55 0.0000000000000000e+00  -4.8091192505263479e-54 -8.0086380885833808e-54 0.0000000000000000e+00  4.8350849617970647e-54 -7.8698002717920455e-54 0.0000000000000000e+00  -1.6647341483871101e-56 -1.3349848658521823e-55 0.0000000000000000e+00  1.1172852382561534e-56 -2.7680239954129133e-55 0.0000000000000000e+00  2.2107044867617567e-56 -9.8796573077136836e-56 0.0000000000000000e+00  -5.2135783706107089e-54 -9.3537679051662490e-54 0.0000000000000000e+00  5.5607093766076857e-54 -9.4076395437346901e-54 0.0000000000000000e+00  5.6851154567822638e-56 -1.0518455162653284e-55 0.0000000000000000e+00  -1.4355439452305979e-56 -6.2047954815405409e-56 0.0000000000000000e+00  -5.0082672273884521e-55 -9.0468139839131211e-55 0.0000000000000000e+00  -5.8251413695455550e-54 -1.0046317580517214e-53 0.0000000000000000e+00  4.5117118379051608e-54 -1.0491361852901042e-53 0.0000000000000000e+00  -3.0578895991871619e-54 -7.9856792593349410e-54 0.0000000000000000e+00  2.4431637878499598e-54 -8.5495844557154509e-54 0.0000000000000000e+00  2.2503089283369991e-54 -3.3059243180885958e-54 0.0000000000000000e+00  -5.4463001068470848e-55 -1.4799212939106035e-54 0.0000000000000000e+00  8.3706675413496924e-55 -1.5737202073852808e-54 0.0000000000000000e+00  -4.9316992680988065e-55 -9.8331475313215270e-55 0.0000000000000000e+00  5.1330880698368310e-55 -8.8541625108206751e-55 0.0000000000000000e+00  -1.5690564397169825e-56 -2.6923218783885574e-56 0.0000000000000000e+00  -4.4837752347450235e-56 -1.7219005653953850e-55 0.0000000000000000e+00  4.1781799657846075e-56 -1.7467030821068985e-55 0.0000000000000000e+00  4.8077819873215002e-57 -6.9029231063253991e-56 0.0000000000000000e+00  -2.7522146523633292e-56 -6.5432807472346399e-56 0.0000000000000000e+00  3.2919644548687191e-56 -6.4129662580269159e-56 0.0000000000000000e+00  -2.8620014797043956e-57 -2.8734169766371266e-56 0.0000000000000000e+00  1.2973665400558018e-56 -3.0017325061574720e-56 0.0000000000000000e+00  1.0034048869973343e-57 -2.3988288793425622e-57 0.0000000000000000e+00  -4.3868450285305506e-57 -7.6401914154565359e-57 0.0000000000000000e+00  4.2534476127745944e-57 -1.1005858421608835e-56 0.0000000000000000e+00  3.1271429348779970e-58 -1.0212199352472704e-57 0.0000000000000000e+00  1.4390656587217554e-58 -5.025791