<?xml version="1.0"?>
<VTKFile type="UnstructuredGrid"  version="0.1"  >
<UnstructuredGrid>
<Piece  NumberOfPoints="11902" NumberOfCells="23402">
<Points>
<DataArray  type="Float64"  NumberOfComponents="3"  format="ascii">-5 -5 0  5 -5 0  5 5 0  -5 5 0  1.261126123029412 0.001323512349028628 0  -4.9 -5 0  -4.8 -5 0  -4.7 -5 0  -4.6 -5 0  -4.5 -5 0  -4.4 -5 0  -4.3 -5 0  -4.2 -5 0  -4.1 -5 0  -4 -5 0  -3.9 -5 0  -3.8 -5 0  -3.7 -5 0  -3.6 -5 0  -3.5 -5 0  -3.4 -5 0  -3.3 -5 0  -3.2 -5 0  -3.1 -5 0  -3 -5 0  -2.9 -5 0  -2.8 -5 0  -2.7 -5 0  -2.6 -5 0  -2.5 -5 0  -2.4 -5 0  -2.3 -5 0  -2.2 -5 0  -2.1 -5 0  -2 -5 0  -1.9 -5 0  -1.8 -5 0  -1.7 -5 0  -1.6 -5 0  -1.5 -5 0  -1.4 -5 0  -1.3 -5 0  -1.2 -5 0  -1.1 -5 0  -1 -5 0  -0.9000000000000004 -5 0  -0.7999999999999998 -5 0  -0.7000000000000002 -5 0  -0.5999999999999996 -5 0  -0.5 -5 0  -0.4000000000000004 -5 0  -0.2999999999999998 -5 0  -0.2000000000000002 -5 0  -0.09999999999999964 -5 0  0 -5 0  0.09999999999999964 -5 0  0.2000000000000002 -5 0  0.2999999999999998 -5 0  0.4000000000000004 -5 0  0.5 -5 0  0.5999999999999996 -5 0  0.7000000000000002 -5 0  0.7999999999999998 -5 0  0.9000000000000004 -5 0  1 -5 0  1.1 -5 0  1.2 -5 0  1.3 -5 0  1.4 -5 0  1.5 -5 0  1.6 -5 0  1.7 -5 0  1.8 -5 0  1.9 -5 0  2 -5 0  2.1 -5 0  2.2 -5 0  2.3 -5 0  2.4 -5 0  2.5 -5 0  2.6 -5 0  2.7 -5 0  2.8 -5 0  2.9 -5 0  3 -5 0  3.1 -5 0  3.199999999999999 -5 0  3.300000000000001 -5 0  3.4 -5 0  3.5 -5 0  3.6 -5 0  3.699999999999999 -5 0  3.800000000000001 -5 0  3.9 -5 0  4 -5 0  4.1 -5 0  4.199999999999999 -5 0  4.300000000000001 -5 0  4.4 -5 0  4.5 -5 0  4.6 -5 0  4.699999999999999 -5 0  4.800000000000001 -5 0  4.9 -5 0  5 -4.9 0  5 -4.8 0  5 -4.7 0  5 -4.6 0  5 -4.5 0  5 -4.4 0  5 -4.3 0  5 -4.2 0  5 -4.1 0  5 -4 0  5 -3.9 0  5 -3.8 0  5 -3.7 0  5 -3.6 0  5 -3.5 0  5 -3.4 0  5 -3.3 0  5 -3.2 0  5 -3.1 0  5 -3 0  5 -2.9 0  5 -2.8 0  5 -2.7 0  5 -2.6 0  5 -2.5 0  5 -2.4 0  5 -2.3 0  5 -2.2 0  5 -2.1 0  5 -2 0  5 -1.9 0  5 -1.8 0  5 -1.7 0  5 -1.6 0  5 -1.5 0  5 -1.4 0  5 -1.3 0  5 -1.2 0  5 -1.1 0  5 -1 0  5 -0.9000000000000004 0  5 -0.7999999999999998 0  5 -0.7000000000000002 0  5 -0.5999999999999996 0  5 -0.5 0  5 -0.4000000000000004 0  5 -0.2999999999999998 0  5 -0.2000000000000002 0  5 -0.09999999999999964 0  5 0 0  5 0.09999999999999964 0  5 0.2000000000000002 0  5 0.2999999999999998 0  5 0.4000000000000004 0  5 0.5 0  5 0.5999999999999996 0  5 0.7000000000000002 0  5 0.7999999999999998 0  5 0.9000000000000004 0  5 1 0  5 1.1 0  5 1.2 0  5 1.3 0  5 1.4 0  5 1.5 0  5 1.6 0  5 1.7 0  5 1.8 0  5 1.9 0  5 2 0  5 2.1 0  5 2.2 0  5 2.3 0  5 2.4 0  5 2.5 0  5 2.6 0  5 2.7 0  5 2.8 0  5 2.9 0  5 3 0  5 3.1 0  5 3.199999999999999 0  5 3.300000000000001 0  5 3.4 0  5 3.5 0  5 3.6 0  5 3.699999999999999 0  5 3.800000000000001 0  5 3.9 0  5 4 0  5 4.1 0  5 4.199999999999999 0  5 4.300000000000001 0  5 4.4 0  5 4.5 0  5 4.6 0  5 4.699999999999999 0  5 4.800000000000001 0  5 4.9 0  4.9 5 0  4.8 5 0  4.7 5 0  4.6 5 0  4.5 5 0  4.4 5 0  4.3 5 0  4.2 5 0  4.1 5 0  4 5 0  3.9 5 0  3.8 5 0  3.7 5 0  3.6 5 0  3.5 5 0  3.4 5 0  3.3 5 0  3.2 5 0  3.1 5 0  3 5 0  2.9 5 0  2.8 5 0  2.7 5 0  2.6 5 0  2.5 5 0  2.4 5 0  2.3 5 0  2.2 5 0  2.1 5 0  2 5 0  1.9 5 0  1.8 5 0  1.7 5 0  1.6 5 0  1.5 5 0  1.4 5 0  1.3 5 0  1.2 5 0  1.1 5 0  1 5 0  0.9000000000000004 5 0  0.7999999999999998 5 0  0.7000000000000002 5 0  0.5999999999999996 5 0  0.5 5 0  0.4000000000000004 5 0  0.2999999999999998 5 0  0.2000000000000002 5 0  0.09999999999999964 5 0  0 5 0  -0.09999999999999964 5 0  -0.2000000000000002 5 0  -0.2999999999999998 5 0  -0.4000000000000004 5 0  -0.5 5 0  -0.5999999999999996 5 0  -0.7000000000000002 5 0  -0.7999999999999998 5 0  -0.9000000000000004 5 0  -1 5 0  -1.1 5 0  -1.2 5 0  -1.3 5 0  -1.4 5 0  -1.5 5 0  -1.6 5 0  -1.7 5 0  -1.8 5 0  -1.9 5 0  -2 5 0  -2.1 5 0  -2.2 5 0  -2.3 5 0  -2.4 5 0  -2.5 5 0  -2.6 5 0  -2.7 5 0  -2.8 5 0  -2.9 5 0  -3 5 0  -3.1 5 0  -3.199999999999999 5 0  -3.300000000000001 5 0  -3.4 5 0  -3.5 5 0  -3.6 5 0  -3.699999999999999 5 0  -3.800000000000001 5 0  -3.9 5 0  -4 5 0  -4.1 5 0  -4.199999999999999 5 0  -4.300000000000001 5 0  -4.4 5 0  -4.5 5 0  -4.6 5 0  -4.699999999999999 5 0  -4.800000000000001 5 0  -4.9 5 0  -5 4.9 0  -5 4.8 0  -5 4.7 0  -5 4.6 0  -5 4.5 0  -5 4.4 0  -5 4.3 0  -5 4.2 0  -5 4.1 0  -5 4 0  -5 3.9 0  -5 3.8 0  -5 3.7 0  -5 3.6 0  -5 3.5 0  -5 3.4 0  -5 3.3 0  -5 3.2 0  -5 3.1 0  -5 3 0  -5 2.9 0  -5 2.8 0  -5 2.7 0  -5 2.6 0  -5 2.5 0  -5 2.4 0  -5 2.3 0  -5 2.2 0  -5 2.1 0  -5 2 0  -5 1.9 0  -5 1.8 0  -5 1.7 0  -5 1.6 0  -5 1.5 0  -5 1.4 0  -5 1.3 0  -5 1.2 0  -5 1.1 0  -5 1 0  -5 0.9000000000000004 0  -5 0.7999999999999998 0  -5 0.7000000000000002 0  -5 0.5999999999999996 0  -5 0.5 0  -5 0.4000000000000004 0  -5 0.2999999999999998 0  -5 0.2000000000000002 0  -5 0.09999999999999964 0  -5 0 0  -5 -0.09999999999999964 0  -5 -0.2000000000000002 0  -5 -0.2999999999999998 0  -5 -0.4000000000000004 0  -5 -0.5 0  -5 -0.5999999999999996 0  -5 -0.7000000000000002 0  -5 -0.7999999999999998 0  -5 -0.9000000000000004 0  -5 -1 0  -5 -1.1 0  -5 -1.2 0  -5 -1.3 0  -5 -1.4 0  -5 -1.5 0  -5 -1.6 0  -5 -1.7 0  -5 -1.8 0  -5 -1.9 0  -5 -2 0  -5 -2.1 0  -5 -2.2 0  -5 -2.3 0  -5 -2.4 0  -5 -2.5 0  -5 -2.6 0  -5 -2.7 0  -5 -2.8 0  -5 -2.9 0  -5 -3 0  -5 -3.1 0  -5 -3.199999999999999 0  -5 -3.300000000000001 0  -5 -3.4 0  -5 -3.5 0  -5 -3.6 0  -5 -3.699999999999999 0  -5 -3.800000000000001 0  -5 -3.9 0  -5 -4 0  -5 -4.1 0  -5 -4.199999999999999 0  -5 -4.300000000000001 0  -5 -4.4 0  -5 -4.5 0  -5 -4.6 0  -5 -4.699999999999999 0  -5 -4.800000000000001 0  -5 -4.9 0  1.252934333067434 0.09436468589033216 0  1.231056807380363 0.1920502904601975 0  1.197568067789126 0.2885768498993384 0  1.154733174776619 0.3771007664364522 0  1.096568456537401 0.4680051721661929 0  1.030576020693378 0.5520853557900666 0  0.9520766590643253 0.6322129236575882 0  0.8650669346180579 0.7069952367769972 0  0.7732449145836455 0.7724158759536602 0  0.6709153473458127 0.8297979862570403 0  0.5586010408917749 0.8820476947817255 0  0.445814761933677 0.9266848043904571 0  0.3337798644113968 0.958714985055601 0  0.2087510485892499 0.980453668259576 0  0.08862313829563588 0.9993776542902946 0  -0.02688466890783427 1.002736441470251 0  -0.1445631495328478 0.9889393371729818 0  -0.272537270878873 0.9697466315020015 0  -0.3920278997028512 0.9455935090118622 0  -0.5024425080532856 0.9097926799790839 0  -0.6120096767469786 0.8633162851575705 0  -0.7141362358251108 0.8085469635316443 0  -0.8088119642858516 0.743709383856719 0  -0.9000597991074512 0.6700654884766218 0  -0.9859633796636913 0.5901568844443957 0  -1.060508345146828 0.5089503331267293 0  -1.122387350328278 0.423853940996505 0  -1.176176564532628 0.3312210759804181 0  -1.214028652598134 0.2426767528266626 0  -1.23849006332172 0.1486011393325156 0  -1.249304116676221 0.05187145707517897 0  -1.249262520003767 -0.0496770289383329 0  -1.238469570081791 -0.1456581304291019 0  -1.213650192173372 -0.2376797783238464 0  -1.171986077792131 -0.3325272667990644 0  -1.122733267418147 -0.4244737988825177 0  -1.062301172349958 -0.5088226626343332 0  -0.9884401609046903 -0.5891523998611042 0  -0.9031693510412073 -0.6679781672463548 0  -0.8125198632131811 -0.7396379696910539 0  -0.7166890872256401 -0.8006201470891486 0  -0.6119435347694149 -0.8537535616514299 0  -0.4975656599871776 -0.9033350919659732 0  -0.3847662179701887 -0.9432139234577036 0  -0.2692105258611903 -0.9695035309097982 0  -0.1430049464232601 -0.9888413390280103 0  -0.02780427166602911 -1.001960400284798 0  0.08773341543033616 -0.9946243066655851 0  0.214527036520516 -0.9768787911335405 0  0.3364608008911131 -0.9570799516759536 0  0.4499788347031798 -0.9253630140671533 0  0.5610748549202508 -0.8812839791374246 0  0.6719652462947913 -0.8298034370256742 0  0.7731833952458542 -0.7735301549438939 0  0.8650021019801152 -0.7081441711697729 0  0.9508877909704037 -0.6324556096507774 0  1.027990094651551 -0.5509820693769333 0  1.097545453385918 -0.4668257826829075 0  1.155537311086526 -0.3775095581174499 0  1.19931075392883 -0.2866360048120995 0  1.2317546045364 -0.1912282049762655 0  1.253319038954047 -0.09417849533175096 0  -2.448544145552354 4.918083045304625 0  -2.448416694553063 -4.910458477511376 0  4.910381828082413 2.447868304561182 0  4.918511830690933 -2.449332316637558 0  2.446143376932409 -4.895683868206892 0  2.440577565021946 4.899447906841583 0  -4.910409055948368 -2.447894936877938 0  -4.910406319765467 2.447898943684635 0  -1.748497534374377 4.910957089251779 0  -1.744284850270762 -4.91440036678255 0  4.920548127102409 1.744045619096728 0  4.909069777626636 -1.747803279085471 0  -4.909364473223413 -1.747537806185493 0  -4.91018753777722 1.747283067814363 0  1.745769078787588 4.904809171172952 0  1.747179830418722 -4.892945984158957 0  -1.148812119876288 4.90872815670469 0  -1.129671381813134 -4.916651316743261 0  -4.909060438742186 -1.147871262031192 0  -4.90887848265234 1.147671808290496 0  1.143808567755098 -4.912831637153067 0  1.148822023107563 4.908714582078229 0  4.909199734000043 1.146146311360055 0  4.920047261028285 -1.151934993741293 0  -0.5466534699029971 -4.909910278625484 0  -0.5464377650126592 4.91860596068447 0  -4.907775564520991 -0.5486770367975485 0  -4.907799521732595 0.5472350616874233 0  4.907092720722457 -0.5489950630491249 0  4.918769974621126 0.545756404472389 0  0.542434399255675 -4.896770372295498 0  0.5511658663449259 4.915424364038199 0  -4.911850600627027 -3.04825777078575 0  4.918424518616362 3.046276277635069 0  4.911358015915778 -3.048233022834383 0  -4.912698689084411 3.045349708702537 0  3.05527228554702 -4.917346615092127 0  -3.048600941344879 -4.911279570791447 0  3.05216887899203 4.913358196408562 0  -3.048046835342687 4.912169796917279 0  -4.906877145318401 -0.04990458010366299 0  0.04511887632610743 -4.911859464928129 0  0.04956622846480994 4.91889635786721 0  4.913944178879702 -0.05128701274629315 0  3.545596818983193 -4.919001611998 0  -3.548875350936734 4.9118
[...]
<PointData  Vectors="f_5262"> 
<DataArray  type="Float64"  Name="f_5262"  NumberOfComponents="3" format="ascii">2.6559658580600310e-76 2.6559658580600310e-76 0.0000000000000000e+00  -2.8445085011138821e-76 2.8445085011138821e-76 0.0000000000000000e+00  -8.5659604779173472e-78 -8.5659604779173472e-78 0.0000000000000000e+00  3.0308186857311747e-76 -3.0308186857311747e-76 0.0000000000000000e+00  7.8781483089299253e-01 8.7870613448326716e-03 0.0000000000000000e+00  4.1659823922423753e-75 6.6061872569403214e-75 0.0000000000000000e+00  2.0823318850231799e-75 2.0880015325839263e-74 0.0000000000000000e+00  -3.4060259371476912e-75 6.7717121090177833e-75 0.0000000000000000e+00  4.0005082822689907e-72 6.6678031856132675e-72 0.0000000000000000e+00  5.3174596612400488e-71 1.3457769455726277e-70 0.0000000000000000e+00  -7.9211159901105354e-72 4.5553350106054006e-71 0.0000000000000000e+00  3.2348940269999579e-69 6.1619246141414398e-69 0.0000000000000000e+00  5.1624779594146300e-68 9.3980806707678805e-68 0.0000000000000000e+00  -3.0655999742761352e-68 1.5001166507979004e-67 0.0000000000000000e+00  1.2770987208082900e-67 3.9814830665642466e-67 0.0000000000000000e+00  1.2630035092356122e-68 8.7790815104557564e-67 0.0000000000000000e+00  5.4534769631966161e-64 8.8219398813020217e-64 0.0000000000000000e+00  4.7439954532936919e-65 2.4418658603123402e-63 0.0000000000000000e+00  1.3496867424198470e-62 2.1987058220172688e-62 0.0000000000000000e+00  8.0687757461474405e-63 8.3179600614788094e-62 0.0000000000000000e+00  6.9343282968211432e-61 1.1021307636497178e-60 0.0000000000000000e+00  4.0641660952784167e-60 7.0057103638588708e-60 0.0000000000000000e+00  -2.8483496761824127e-60 7.6997197764751793e-60 0.0000000000000000e+00  5.6649136269307501e-59 1.1366620478584460e-58 0.0000000000000000e+00  -1.7597142011510844e-59 1.1646843586878936e-58 0.0000000000000000e+00  -3.0048539338347623e-59 6.8391915742163288e-59 0.0000000000000000e+00  1.8031586110840492e-58 3.3038045436794447e-58 0.0000000000000000e+00  7.3022975455034607e-58 2.0892567002344484e-57 0.0000000000000000e+00  2.8620201066578354e-57 6.2322136014785944e-57 0.0000000000000000e+00  -3.4090260488827054e-57 5.7388871563427021e-57 0.0000000000000000e+00  -3.5242804796397868e-58 1.0978797362376304e-57 0.0000000000000000e+00  1.9095919815771925e-56 2.9315064987981564e-56 0.0000000000000000e+00  -1.4143168349380011e-56 3.5312289546312812e-56 0.0000000000000000e+00  1.1919944127418353e-56 2.8931324549473594e-56 0.0000000000000000e+00  8.7425033663265938e-56 2.0973348723076812e-55 0.0000000000000000e+00  -2.5128353094415431e-56 5.7434581299936635e-55 0.0000000000000000e+00  5.2133596708136582e-57 8.6111145133004400e-57 0.0000000000000000e+00  5.5478944935187411e-56 1.3815411109110067e-55 0.0000000000000000e+00  1.5498355813893807e-55 6.1690761716843791e-55 0.0000000000000000e+00  -2.2377035919473500e-55 3.5169321349551392e-55 0.0000000000000000e+00  9.8425286915317191e-55 1.7226477128442064e-54 0.0000000000000000e+00  -4.4237192948532577e-55 4.3615491741066529e-54 0.0000000000000000e+00  -2.2843829307270226e-55 2.6820497482503268e-54 0.0000000000000000e+00  -9.6251647471915608e-56 9.4398537143632131e-55 0.0000000000000000e+00  -1.1319112952632356e-55 1.8224023215716938e-55 0.0000000000000000e+00  2.7619371474923875e-54 5.2326742804263200e-54 0.0000000000000000e+00  -2.1615126286181008e-54 4.1394963942300304e-54 0.0000000000000000e+00  -7.1976534732941873e-55 8.0822407983133481e-55 0.0000000000000000e+00  -1.3215177306271254e-55 2.7133623754539818e-55 0.0000000000000000e+00  9.3105367723387406e-55 1.4449751946655101e-54 0.0000000000000000e+00  9.4624522320114802e-55 6.1542322856916977e-54 0.0000000000000000e+00  -1.1294623416464365e-54 5.8988460992501172e-54 0.0000000000000000e+00  5.1511740990720450e-55 4.6479415987840747e-54 0.0000000000000000e+00  1.9095291586266876e-56 5.7928608734837034e-54 0.0000000000000000e+00  3.0200297572034928e-55 6.1510167430246879e-54 0.0000000000000000e+00  -1.2626930404025862e-54 2.0441078041388724e-54 0.0000000000000000e+00  -6.4604686441029243e-55 1.4722839919785510e-53 0.0000000000000000e+00  4.4675358061630183e-54 7.4695680637411669e-54 0.0000000000000000e+00  -4.3509751798473094e-54 8.0952442087784953e-54 0.0000000000000000e+00  1.9235514294928448e-54 3.9572045594766165e-54 0.0000000000000000e+00  -7.3675574613770507e-55 9.4984132110979928e-54 0.0000000000000000e+00  1.3323861941248838e-54 9.3289899497692711e-54 0.0000000000000000e+00  -1.6864078308764492e-54 4.3959288309971608e-54 0.0000000000000000e+00  -9.2586488812509609e-55 2.4044043531501082e-54 0.0000000000000000e+00  3.3346473445805536e-55 1.2997193569107900e-54 0.0000000000000000e+00  2.6597668439090249e-55 2.5376821383461986e-54 0.0000000000000000e+00  -7.8343827047183575e-56 3.4897557957951226e-54 0.0000000000000000e+00  -7.1192852325292021e-55 1.4811437596995958e-54 0.0000000000000000e+00  2.3800641102963678e-55 4.4272856882918323e-55 0.0000000000000000e+00  -2.3117262758820857e-55 6.0220641141556869e-55 0.0000000000000000e+00  5.0383123406718293e-56 2.3983105139297418e-55 0.0000000000000000e+00  1.8681917385717576e-55 9.5252431561773116e-55 0.0000000000000000e+00  -3.3064129864037957e-55 5.2995505024385436e-55 0.0000000000000000e+00  -1.5920964368445127e-56 4.8208577119712405e-56 0.0000000000000000e+00  -1.1356942189433236e-57 1.1332000734074376e-56 0.0000000000000000e+00  6.7591191468559429e-57 2.3556469487290482e-56 0.0000000000000000e+00  -8.9990732242953929e-57 1.5012488100805423e-56 0.0000000000000000e+00  1.7430175635849051e-57 2.8885909426029145e-57 0.0000000000000000e+00  -1.2450232997658197e-57 2.7231815620406561e-57 0.0000000000000000e+00  5.1793422095387590e-57 7.8137358449127980e-57 0.0000000000000000e+00  -4.5352485086418417e-57 1.1246502980584304e-56 0.0000000000000000e+00  -1.8145745479029304e-58 9.3932889682258563e-58 0.0000000000000000e+00  -2.3930590775063804e-58 4.6502001295901577e-58 0.0000000000000000e+00  -7.8803900230694163e-61 8.8102635222546422e-59 0.0000000000000000e+00  -2.4465345963739938e-59 6.4205749689437671e-59 0.0000000000000000e+00  -7.1171068428100660e-60 2.4991150512980454e-59 0.0000000000000000e+00  -4.3853238526251315e-60 2.2383045922456427e-59 0.0000000000000000e+00  -3.0630870626390421e-60 7.1656612314666920e-60 0.0000000000000000e+00  -8.5240060966088564e-62 4.4345417377220420e-61 0.0000000000000000e+00  -1.0758883803120141e-61 2.2333067387119645e-61 0.0000000000000000e+00  -3.5872134922689165e-62 5.6721489825889408e-62 0.0000000000000000e+00  -3.9098432685209374e-64 6.6955764220016174e-64 0.0000000000000000e+00  -2.4311205036809812e-65 5.1695753016369153e-65 0.0000000000000000e+00  3.7080939034193655e-66 1.0388537557429544e-65 0.0000000000000000e+00  -4.8421097949982015e-66 9.2597914678783026e-66 0.0000000000000000e+00  -6.6994506380917330e-68 2.7708474193488786e-67 0.0000000000000000e+00  -7.8531604163532682e-68 1.2915345057846553e-67 0.0000000000000000e+00  -8.0607329007532676e-69 1.1730057786674155e-68 0.0000000000000000e+00  -5.6332648520578222e-70 9.5191114718011580e-70 0.0000000000000000e+00  -3.7794248665760756e-71 6.8180007789561040e-71 0.0000000000000000e+00  -1.8784327433161757e-72 3.2024639156166797e-72 0.0000000000000000e+00  -1.2177474556084696e-73 2.7266487815933621e-73 0.0000000000000000e+00  -4.4211490587382828e-75 1.2911304812386597e-74 0.0000000000000000e+00  -2.5481231514070639e-75 4.2411417563066648e-75 0.0000000000000000e+00  -9.7687973917635541e-76 3.5584078150052949e-76 0.0000000000000000e+00  -1.6211452061399248e-75 -2.3926107113701370e-76 0.0000000000000000e+00  -2.4488208931945533e-74 1.1591710574227996e-74 0.0000000000000000e+00  -3.6791178545206618e-74 1.5505417947663588e-75 0.0000000000000000e+00  -3.8828607423638159e-73 1.4336562411002706e-73 0.0000000000000000e+00  -1.0236237238927245e-71 6.2396159877892327e-72 0.0000000000000000e+00  -6.7397966962861428e-71 3.7093239846994999e-71 0.0000000000000000e+00  -1.0610267925212420e-70 3.9044072263384413e-72 0.0000000000000000e+00  -8.8993976094852232e-70 3.3101251211910401e-70 0.0000000000000000e+00  -2.1280940975551917e-68 1.2870571197731751e-68 0.0000000000000000e+00  -1.0235017832351832e-67 5.1129922437379865e-68 0.0000000000000000e+00  -1.0138766812111135e-67 -6.0299163775427557e-68 0.0000000000000000e+00  -3.1648280030680844e-66 1.7472153949061875e-66 0.0000000000000000e+00  -3.1841368371005098e-65 1.8330908613333209e-65 0.0000000000000000e+00  -5.3855898630837408e-65 5.0500196254430184e-66 0.0000000000000000e+00  -4.4357058020598631e-64 1.4476466749385714e-64 0.0000000000000000e+00  -6.9900905132177256e-63 4.3629731626869069e-63 0.0000000000000000e+00  -1.5061771705710926e-62 3.7521805775098658e-63 0.0000000000000000e+00  -8.4319880273882483e-62 1.9683220817730570e-62 0.0000000000000000e+00  -1.3542648497039141e-60 8.5272231581271581e-61 0.0000000000000000e+00  -2.4166302496118694e-60 3.3858485611051741e-61 0.0000000000000000e+00  -2.1163740289328544e-59 7.4059953038223057e-60 0.0000000000000000e+00  -2.4157940795131869e-58 1.4963341856120334e-58 0.0000000000000000e+00  -2.5884024052924021e-58 -9.4299059797885538e-59 0.0000000000000000e+00  -5.9757338317539081e-57 2.7850933749775996e-57 0.0000000000000000e+00  -2.4824695734927322e-56 1.2407139928751907e-56 0.0000000000000000e+00  -5.5641378873457189e-56 -8.6976235075690751e-57 0.0000000000000000e+00  -1.0107569623170776e-54 6.4880729967041568e-55 0.0000000000000000e+00  -1.1208757703119309e-54 -3.4684472692210270e-55 0.0000000000000000e+00  -2.4069870074059404e-53 1.2709117207903060e-53 0.0000000000000000e+00  -6.5909948795908836e-53 2.9927845800417470e-53 0.0000000000000000e+00  -4.3556539471873075e-52 1.2258015570796992e-52 0.0000000000000000e+00  -2.6647379062779120e-51 1.6649954689676476e-51 0.0000000000000000e+00  -7.6659254968146754e-51 -2.1466382334668404e-52 0.0000000000000000e+00  -7.1941942057297240e-50 4.6021321342980031e-50 0.0000000000000000e+00  -1.6172620744973608e-49 -1.4796984435276944e-50 0.0000000000000000e+00  -1.7290806717072549e-48 1.0111458655037233e-48 0.0000000000000000e+00  -4.3411866337139415e-48 -2.0427698539094656e-49 0.0000000000000000e+00  -2.0133763212088683e-47 1.1108708647296599e-47 0.0000000000000000e+00  -1.1026835533984338e-46 1.8974427361958677e-47 0.0000000000000000e+00  -1.0246978795883150e-46 2.4623653881079806e-47 0.0000000000000000e+00  -1.2406040330087915e-45 5.2575890472799503e-46 0.0000000000000000e+00  -8.7380132821523964e-46 -5.6836088432725922e-46 0.0000000000000000e+00  -1.3429960769206031e-44 8.0771187354465054e-45 0.0000000000000000e+00  -5.7958199460240496e-44 1.3748279451985352e-44 0.0000000000000000e+00  -3.6153356342308286e-44 -1.7527073708939155e-44 0.0000000000000000e+00  -1.1425623896845559e-43 6.5054751653226643e-44 0.0000000000000000e+00  -8.4131682558114075e-43 2.3177485089198162e-43 0.0000000000000000e+00  -1.9291349364592417e-42 1.9768843601161352e-43 0.0000000000000000e+00  -2.5117249462083246e-42 6.1089704054910588e-44 0.0000000000000000e+00  -2.0145100065301159e-42 -1.9493429366675123e-43 0.0000000000000000e+00  -8.6138537680494752e-43 -2.5074999079242824e-43 0.0000000000000000e+00  -1.1325266736532250e-43 -6.4516378291730942e-44 0.0000000000000000e+00  -3.8713044201666947e-44 1.8516795968693677e-44 0.0000000000000000e+00  -6.3166792550279087e-44 -1.0829885407975437e-44 0.0000000000000000e+00  -1.4989625298530153e-44 -7.8729020426334327e-45 0.0000000000000000e+00  -9.9882884071381071e-46 5.6762062886989439e-46 0.0000000000000000e+00  -1.4039747383235350e-45 -5.3898054348174431e-46 0.0000000000000000e+00  -1.1208451020496740e-46 -2.8571988962491675e-47 0.0000000000000000e+00  -1.0181456647055574e-46 -2.1433187044393267e-47 0.0000000000000000e+00  -1.8610344120447008e-47 -1.1979000714990548e-47 0.0000000000000000e+00  -4.0856065932418056e-48 2.0341131756204006e-49 0.0000000000000000e+00  -1.4868449097432909e-48 -9.3626714982040784e-49 0.0000000000000000e+00  -1.6331696246895029e-49 2.4562256761264668e-50 0.0000000000000000e+00  -7.4580969737316660e-50 -4.4213163634544345e-50 0.0000000000000000e+00  -8.2461887300152661e-51 6.4089698729558898e-52 0.0000000000000000e+00  -3.1456065584898384e-51 -1.7836100731347043e-51 0.0000000000000000e+00  -5.1029743343900588e-52 -1.1465132437492188e-52 0.0000000000000000e+00  -8.2062602480937249e-53 -3.5467870689828477e-53 0.0000000000000000e+00  -2.6619761983071132e-53 -1.3155386122770180e-53 0.0000000000000000e+00  -1.1971724080508526e-54 3.2390685399902887e-55 0.0000000000000000e+00  -1.0637407469610910e-54 -6.8041604665408312e-55 0.0000000000000000e+00  -5.1523541405903534e-56 8.3497021880169503e-57 0.0000000000000000e+00  -2.3366435220683683e-56 -1.3236396199767196e-56 0.0000000000000000e+00  -4.8239715626769161e-57 -2.5209020575963078e-57 0.0000000000000000e+00  -2.4586614942278924e-58 8.5448142368642393e-59 0.0000000000000000e+00  -2.1583397448914039e-58 -1.3283183917590636e-58 0.0000000000000000e+00  -1.9910862501065729e-59 -6.1450512110036728e-60 0.0000000000000000e+00  -2.3749300173414575e-60 -3.3953531090232753e-61 0.0000000000000000e+00  -1.2908770425675252e-60 -7.6072509107154579e-61 0.0000000000000000e+00  -7.6908377427109165e-62 -2.1434235728495038e-62 0.0000000000000000e+00  -1.3593871598166681e-62 -2.9299690266841245e-63 0.0000000000000000e+00  -6.6392744674872512e-63 -3.7878697475062111e-63 0.0000000000000000e+00  -4.7831059156915303e-64 -1.8193972208293251e-64 0.0000000000000000e+00  -4.3638582996486064e-65 9.5796252860970710e-67 0.0000000000000000e+00  -2.9481679175982603e-65 -1.6619388738270089e-65 0.0000000000000000e+00  -3.4132417997352042e-66 -1.9885649010456289e-66 0.0000000000000000e+00  -8.9954180460663292e-68 5.4803631066491310e-68 0.0000000000000000e+00  -8.6365951688312055e-68 -4.1773155525131557e-68 0.0000000000000000e+00  -2.0681928644308088e-68 -1.2849222052990095e-68 0.0000000000000000e+00  -1.1326438095826325e-69 -5.1334063537038385e-70 0.0000000000000000e+00  -8.7944124422099354e-71 1.3788916358990756e-71 0.0000000000000000e+00  -6.9081911531290799e-71 -3.6571019030770975e-71 0.0000000000000000e+00  -1.2479077844567807e-71 -7.6621471679706816e-72 0.0000000000000000e+00  -5.9819463875978706e-73 -2.7510531085735764e-73 0.0000000000000000e+00  -3.9237525722621143e-74 7.4234596592694856e-75 0.0000000000000000e+00  -3.1565441947214976e-74 -1.4790132688484998e-74 0.0000000000000000e+00  -6.5906266675596529e-75 -3.3570844115567225e-75 0.0000000000000000e+00  -7.1798978589202401e-76 -3.1071550531206990e-76 0.0000000000000000e+00  -8.5519489498135229e-76 -1.6228448480895268e-75 0.0000000000000000e+00  -4.7735643959966553e-75 -1.3945908694889563e-74 0.0000000000000000e+00  4.3671019825321112e-75 -8.3088676376444573e-75 0.0000000000000000e+00  -1.6294488815230134e-73 -3.4271978289814818e-73 0.0000000000000000e+00  -9.2857659406152556e-71 -1.0069308458742666e-70 0.0000000000000000e+00  -7.5069065543652641e-70 -1.3176895867399905e-69 0.0000000000000000e+00  -1.0985226002530922e-69 -3.6511888437291019e-69 0.0000000000000000e+00  -7.7617026905714935e-68 -1.7113689297071561e-67 0.0000000000000000e+00  -6.5317127389147639e-68 -3.2599044350654446e-67 0.0000000000000000e+00  -6.7905660073226842e-66 -1.3500126985254900e-65 0.0000000000000000e+00  -4.5204429328753985e-66 -2.1315890398325412e-65 0.0000000000000000e+00  -9.0709300878768426e-65 -1.5574620178641804e-64 0.0000000000000000e+00  1.7222844864441603e-65 -2.1035861750438262e-64 0.0000000000000000e+00  -4.2765222040956522e-62 -6.4018640089334237e-62 0.0000000000000000e+00  -7.0002259154723577e-62 -1.7205938890359818e-61 0.0000000000000000e+00  -2.3266117287466897e-62 -2.7285929338274571e-61 0.0000000000000000e+00  -5.7418965181714886e-60 -1.1361481529493148e-59 0.0000000000000000e+00  4.7696771694145324e-60 -1.5021468000080152e-59 0.0000000000000000e+00  -2.9020354882362104e-59 -4.7482353952074638e-59 0.0000000000000000e+00  8.8252733428500194e-60 -6.0863507079480736e-59 0.0000000000000000e+00  2.3266734182017483e-59 -3.9725743853836827e-59 0.0000000000000000e+00  -5.6409936003457953e-58 -8.9458810646309320e-58 0.0000000000000000e+00  -1.3810956496272344e-59 -1.2602343203333191e-57 0.0000000000000000e+00  -4.6367273035926657e-57 -1.1636247649831410e-56 0.0000000000000000e+00  5.7537399566957783e-57 -8.6761573981275241e-57 0.0000000000000000e+00  -5.3380225722466610e-57 -7.3363111570174329e-57 0.0000000000000000e+00  -1.7686271392373494e-56 -3.7728061651226377e-56 0.0000000000000000e+00  2.1638522539043273e-56 -4.0719336643764501e-56 0.0000000000000000e+00  -5.0073996078304770e-57 -9.1989589688662779e-57 0.0000000000000000e+00  -8.1264671291379577e-56 -2.0307412344313290e-55 0.0000000000000000e+00  6.3818080138620531e-56 -5.0771654117344132e-55 0.0000000000000000e+00  -4.2947578910970832e-55 -7.2564772173724583e-55 0.0000000000000000e+00  -4.8837410370960540e-56 -1.8357210971575476e-54 0.0000000000000000e+00  1.6624969338024075e-55 -5.7402787590365123e-55 0.0000000000000000e+00  -5.1892123356661399e-55 -1.6758024443331774e-54 0.0000000000000000e+00  -2.2568533248359275e-54 -7.0711132106451682e-54 0.0000000000000000e+00  2.5862499612124482e-54 -6.0773121019436169e-54 0.0000000000000000e+00  -6.7304906951979220e-55 -2.3895459292865672e-54 0.0000000000000000e+00  5.3340305949125167e-55 -2.8191813849369742e-54 0.0000000000000000e+00  1.2846141071030203e-55 -1.4248074595587192e-54 0.0000000000000000e+00  -2.1839717741154909e-54 -3.4662964506185031e-54 0.0000000000000000e+00  5.7232245911349385e-55 -8.2270329894189417e-54 0.0000000000000000e+00  -3.9373950481765280e-54 -1.3557172805683557e-53 0.0000000000000000e+00  4.7008592487917850e-54 -7.7150962676399044e-54 0.0000000000000000e+00  2.0354684940722324e-55 -6.5061748068638516e-55 0.0000000000000000e+00  -4.8102050008696669e-54 -8.0085269809796659e-54 0.0000000000000000e+00  4.8361906131335454e-54 -7.8698666904910296e-54 0.0000000000000000e+00  -1.6651156999232803e-56 -1.3349830548084182e-55 0.0000000000000000e+00  1.1175467898334919e-56 -2.7680187392287989e-55 0.0000000000000000e+00  2.2112130857003017e-56 -9.8796571814395576e-56 0.0000000000000000e+00  -5.2147775295847944e-54 -9.3537822116460411e-54 0.0000000000000000e+00  5.5619808434369795e-54 -9.4075701419502078e-54 0.0000000000000000e+00  5.6864087482515554e-56 -1.0518359686633886e-55 0.0000000000000000e+00  -1.4358730744989470e-56 -6.2048131227482359e-56 0.0000000000000000e+00  -5.0093938639272675e-55 -9.0469326920887890e-55 0.0000000000000000e+00  -5.8264364412191126e-54 -1.0046486823617857e-53 0.0000000000000000e+00  4.5126969857762248e-54 -1.0491202004094335e-53 0.0000000000000000e+00  -3.0585491413859135e-54 -7.9857984517366911e-54 0.0000000000000000e+00  2.4436813730407852e-54 -8.5494783979523011e-54 0.0000000000000000e+00  2.2507754017180174e-54 -3.3058164287794145e-54 0.0000000000000000e+00  -5.4474146533964371e-55 -1.4799486225392668e-54 0.0000000000000000e+00  8.3723060870751085e-55 -1.5736727923942085e-54 0.0000000000000000e+00  -4.9326737221176408e-55 -9.8334211538458796e-55 0.0000000000000000e+00  5.1340420251111265e-55 -8.8538444525960620e-55 0.0000000000000000e+00  -1.5693463394864454e-56 -2.6924197958640483e-56 0.0000000000000000e+00  -4.4846149539272565e-56 -1.7219282642798897e-55 0.0000000000000000e+00  4.1788558168742343e-56 -1.7466737998173833e-55 0.0000000000000000e+00  4.8084084679008291e-57 -6.9028861345742459e-56 0.0000000000000000e+00  -2.7526586800367528e-56 -6.5434722890688611e-56 0.0000000000000000e+00  3.2924684664909137e-56 -6.4127331028747341e-56 0.0000000000000000e+00  -2.8624268045550115e-57 -2.8734373638704076e-56 0.0000000000000000e+00  1.2975437156388890e-56 -3.0016396115412291e-56 0.0000000000000000e+00  1.0035361234567886e-57 -2.3987573516050682e-57 0.0000000000000000e+00  -4.3874250169789173e-57 -7.6405042175367088e-57 0.0000000000000000e+00  4.2539481991695119e-57 -1.1005561725796222e-56 0.0000000000000000e+00  3.1275091428128756e-58 -1.0211981962605687e-57 0.0000000000000000e+00  1.4392252788637421e-58 -5.025692