<?xml version="1.0"?>
<VTKFile type="UnstructuredGrid"  version="0.1"  >
<UnstructuredGrid>
<Piece  NumberOfPoints="11902" NumberOfCells="23402">
<Points>
<DataArray  type="Float64"  NumberOfComponents="3"  format="ascii">-5 -5 0  5 -5 0  5 5 0  -5 5 0  1.222952155949677 0.001367851683446856 0  -4.9 -5 0  -4.8 -5 0  -4.7 -5 0  -4.6 -5 0  -4.5 -5 0  -4.4 -5 0  -4.3 -5 0  -4.2 -5 0  -4.1 -5 0  -4 -5 0  -3.9 -5 0  -3.8 -5 0  -3.7 -5 0  -3.6 -5 0  -3.5 -5 0  -3.4 -5 0  -3.3 -5 0  -3.2 -5 0  -3.1 -5 0  -3 -5 0  -2.9 -5 0  -2.8 -5 0  -2.7 -5 0  -2.6 -5 0  -2.5 -5 0  -2.4 -5 0  -2.3 -5 0  -2.2 -5 0  -2.1 -5 0  -2 -5 0  -1.9 -5 0  -1.8 -5 0  -1.7 -5 0  -1.6 -5 0  -1.5 -5 0  -1.4 -5 0  -1.3 -5 0  -1.2 -5 0  -1.1 -5 0  -1 -5 0  -0.9000000000000004 -5 0  -0.7999999999999998 -5 0  -0.7000000000000002 -5 0  -0.5999999999999996 -5 0  -0.5 -5 0  -0.4000000000000004 -5 0  -0.2999999999999998 -5 0  -0.2000000000000002 -5 0  -0.09999999999999964 -5 0  0 -5 0  0.09999999999999964 -5 0  0.2000000000000002 -5 0  0.2999999999999998 -5 0  0.4000000000000004 -5 0  0.5 -5 0  0.5999999999999996 -5 0  0.7000000000000002 -5 0  0.7999999999999998 -5 0  0.9000000000000004 -5 0  1 -5 0  1.1 -5 0  1.2 -5 0  1.3 -5 0  1.4 -5 0  1.5 -5 0  1.6 -5 0  1.7 -5 0  1.8 -5 0  1.9 -5 0  2 -5 0  2.1 -5 0  2.2 -5 0  2.3 -5 0  2.4 -5 0  2.5 -5 0  2.6 -5 0  2.7 -5 0  2.8 -5 0  2.9 -5 0  3 -5 0  3.1 -5 0  3.199999999999999 -5 0  3.300000000000001 -5 0  3.4 -5 0  3.5 -5 0  3.6 -5 0  3.699999999999999 -5 0  3.800000000000001 -5 0  3.9 -5 0  4 -5 0  4.1 -5 0  4.199999999999999 -5 0  4.300000000000001 -5 0  4.4 -5 0  4.5 -5 0  4.6 -5 0  4.699999999999999 -5 0  4.800000000000001 -5 0  4.9 -5 0  5 -4.9 0  5 -4.8 0  5 -4.7 0  5 -4.6 0  5 -4.5 0  5 -4.4 0  5 -4.3 0  5 -4.2 0  5 -4.1 0  5 -4 0  5 -3.9 0  5 -3.8 0  5 -3.7 0  5 -3.6 0  5 -3.5 0  5 -3.4 0  5 -3.3 0  5 -3.2 0  5 -3.1 0  5 -3 0  5 -2.9 0  5 -2.8 0  5 -2.7 0  5 -2.6 0  5 -2.5 0  5 -2.4 0  5 -2.3 0  5 -2.2 0  5 -2.1 0  5 -2 0  5 -1.9 0  5 -1.8 0  5 -1.7 0  5 -1.6 0  5 -1.5 0  5 -1.4 0  5 -1.3 0  5 -1.2 0  5 -1.1 0  5 -1 0  5 -0.9000000000000004 0  5 -0.7999999999999998 0  5 -0.7000000000000002 0  5 -0.5999999999999996 0  5 -0.5 0  5 -0.4000000000000004 0  5 -0.2999999999999998 0  5 -0.2000000000000002 0  5 -0.09999999999999964 0  5 0 0  5 0.09999999999999964 0  5 0.2000000000000002 0  5 0.2999999999999998 0  5 0.4000000000000004 0  5 0.5 0  5 0.5999999999999996 0  5 0.7000000000000002 0  5 0.7999999999999998 0  5 0.9000000000000004 0  5 1 0  5 1.1 0  5 1.2 0  5 1.3 0  5 1.4 0  5 1.5 0  5 1.6 0  5 1.7 0  5 1.8 0  5 1.9 0  5 2 0  5 2.1 0  5 2.2 0  5 2.3 0  5 2.4 0  5 2.5 0  5 2.6 0  5 2.7 0  5 2.8 0  5 2.9 0  5 3 0  5 3.1 0  5 3.199999999999999 0  5 3.300000000000001 0  5 3.4 0  5 3.5 0  5 3.6 0  5 3.699999999999999 0  5 3.800000000000001 0  5 3.9 0  5 4 0  5 4.1 0  5 4.199999999999999 0  5 4.300000000000001 0  5 4.4 0  5 4.5 0  5 4.6 0  5 4.699999999999999 0  5 4.800000000000001 0  5 4.9 0  4.9 5 0  4.8 5 0  4.7 5 0  4.6 5 0  4.5 5 0  4.4 5 0  4.3 5 0  4.2 5 0  4.1 5 0  4 5 0  3.9 5 0  3.8 5 0  3.7 5 0  3.6 5 0  3.5 5 0  3.4 5 0  3.3 5 0  3.2 5 0  3.1 5 0  3 5 0  2.9 5 0  2.8 5 0  2.7 5 0  2.6 5 0  2.5 5 0  2.4 5 0  2.3 5 0  2.2 5 0  2.1 5 0  2 5 0  1.9 5 0  1.8 5 0  1.7 5 0  1.6 5 0  1.5 5 0  1.4 5 0  1.3 5 0  1.2 5 0  1.1 5 0  1 5 0  0.9000000000000004 5 0  0.7999999999999998 5 0  0.7000000000000002 5 0  0.5999999999999996 5 0  0.5 5 0  0.4000000000000004 5 0  0.2999999999999998 5 0  0.2000000000000002 5 0  0.09999999999999964 5 0  0 5 0  -0.09999999999999964 5 0  -0.2000000000000002 5 0  -0.2999999999999998 5 0  -0.4000000000000004 5 0  -0.5 5 0  -0.5999999999999996 5 0  -0.7000000000000002 5 0  -0.7999999999999998 5 0  -0.9000000000000004 5 0  -1 5 0  -1.1 5 0  -1.2 5 0  -1.3 5 0  -1.4 5 0  -1.5 5 0  -1.6 5 0  -1.7 5 0  -1.8 5 0  -1.9 5 0  -2 5 0  -2.1 5 0  -2.2 5 0  -2.3 5 0  -2.4 5 0  -2.5 5 0  -2.6 5 0  -2.7 5 0  -2.8 5 0  -2.9 5 0  -3 5 0  -3.1 5 0  -3.199999999999999 5 0  -3.300000000000001 5 0  -3.4 5 0  -3.5 5 0  -3.6 5 0  -3.699999999999999 5 0  -3.800000000000001 5 0  -3.9 5 0  -4 5 0  -4.1 5 0  -4.199999999999999 5 0  -4.300000000000001 5 0  -4.4 5 0  -4.5 5 0  -4.6 5 0  -4.699999999999999 5 0  -4.800000000000001 5 0  -4.9 5 0  -5 4.9 0  -5 4.8 0  -5 4.7 0  -5 4.6 0  -5 4.5 0  -5 4.4 0  -5 4.3 0  -5 4.2 0  -5 4.1 0  -5 4 0  -5 3.9 0  -5 3.8 0  -5 3.7 0  -5 3.6 0  -5 3.5 0  -5 3.4 0  -5 3.3 0  -5 3.2 0  -5 3.1 0  -5 3 0  -5 2.9 0  -5 2.8 0  -5 2.7 0  -5 2.6 0  -5 2.5 0  -5 2.4 0  -5 2.3 0  -5 2.2 0  -5 2.1 0  -5 2 0  -5 1.9 0  -5 1.8 0  -5 1.7 0  -5 1.6 0  -5 1.5 0  -5 1.4 0  -5 1.3 0  -5 1.2 0  -5 1.1 0  -5 1 0  -5 0.9000000000000004 0  -5 0.7999999999999998 0  -5 0.7000000000000002 0  -5 0.5999999999999996 0  -5 0.5 0  -5 0.4000000000000004 0  -5 0.2999999999999998 0  -5 0.2000000000000002 0  -5 0.09999999999999964 0  -5 0 0  -5 -0.09999999999999964 0  -5 -0.2000000000000002 0  -5 -0.2999999999999998 0  -5 -0.4000000000000004 0  -5 -0.5 0  -5 -0.5999999999999996 0  -5 -0.7000000000000002 0  -5 -0.7999999999999998 0  -5 -0.9000000000000004 0  -5 -1 0  -5 -1.1 0  -5 -1.2 0  -5 -1.3 0  -5 -1.4 0  -5 -1.5 0  -5 -1.6 0  -5 -1.7 0  -5 -1.8 0  -5 -1.9 0  -5 -2 0  -5 -2.1 0  -5 -2.2 0  -5 -2.3 0  -5 -2.4 0  -5 -2.5 0  -5 -2.6 0  -5 -2.7 0  -5 -2.8 0  -5 -2.9 0  -5 -3 0  -5 -3.1 0  -5 -3.199999999999999 0  -5 -3.300000000000001 0  -5 -3.4 0  -5 -3.5 0  -5 -3.6 0  -5 -3.699999999999999 0  -5 -3.800000000000001 0  -5 -3.9 0  -5 -4 0  -5 -4.1 0  -5 -4.199999999999999 0  -5 -4.300000000000001 0  -5 -4.4 0  -5 -4.5 0  -5 -4.6 0  -5 -4.699999999999999 0  -5 -4.800000000000001 0  -5 -4.9 0  1.216537821490589 0.09806343238861964 0  1.19697068008051 0.195649315310842 0  1.164677315510974 0.2925507420747037 0  1.12307824239109 0.3831939280891452 0  1.068619821709445 0.4737156882756589 0  1.005024045174555 0.558629812143752 0  0.9300882187233219 0.6384009068200016 0  0.846100350229493 0.7115150753853637 0  0.755383632650924 0.7769602270917439 0  0.6556157171547642 0.8351292388215037 0  0.5485297239043273 0.8866489252409142 0  0.438130750200047 0.9290473438125417 0  0.325751311820632 0.9619353393960876 0  0.2063203235151892 0.984096788930477 0  0.08922401373077385 1.000165524706554 0  -0.02770754706703851 1.00305629480887 0  -0.1450541852574732 0.991986590662389 0  -0.2659986784724107 0.9739733106236365 0  -0.3824592449988472 0.9483585875027576 0  -0.4928807462268245 0.9119510018638003 0  -0.5992852049872104 0.8660230725665026 0  -0.7003225332663677 0.8114093817639787 0  -0.7938780845025418 0.7478931603415103 0  -0.8817431016641416 0.6765663212726272 0  -0.9628224379489432 0.5981078575226468 0  -1.033093253318399 0.5161946012877038 0  -1.093282896028003 0.4296856023219741 0  -1.14232640872162 0.3379658815813846 0  -1.178926296372419 0.2449316628761953 0  -1.203232296724699 0.1492700357409114 0  -1.215431228590164 0.0507099448947735 0  -1.215403026725352 -0.04872924936098916 0  -1.203106107360128 -0.1468443994593058 0  -1.179278074059223 -0.2423827678692987 0  -1.141314739427872 -0.3377818441024467 0  -1.093564575277954 -0.4287555474830583 0  -1.034249011918985 -0.5155012895206866 0  -0.9646741014230136 -0.5968805044182128 0  -0.8840959551805878 -0.6740718520615827 0  -0.796097274698194 -0.7441105659828554 0  -0.7009771274982955 -0.8051971576017619 0  -0.5992227451682961 -0.859172357686288 0  -0.4895650086165363 -0.9069612043837686 0  -0.378115042942379 -0.9454004932845017 0  -0.262803840447745 -0.9729445424647187 0  -0.143682726679465 -0.9912760503418974 0  -0.02769715918890714 -1.0021289739109 0  0.08972431221792476 -0.9967507490452797 0  0.2099864736216075 -0.981488778820086 0  0.3277491978049826 -0.9602802260866615 0  0.4419207483051756 -0.927644886915258 0  0.5505006222549428 -0.8857234975934738 0  0.6564220362640255 -0.834936505808326 0  0.755494208491108 -0.7780789818695132 0  0.8461454909725845 -0.712361224525715 0  0.929530380475515 -0.637979949818957 0  1.003205826670268 -0.5579952150089688 0  1.068456609789501 -0.4730123784888485 0  1.124056572000064 -0.3832399430418409 0  1.166242346049504 -0.2908104284453951 0  1.197355066629286 -0.1947645367877497 0  1.216612407421991 -0.09760861127884106 0  -2.448687267729739 4.918344590318442 0  -2.448572742090832 -4.910743912631547 0  4.91067383550959 2.448071795283989 0  4.918776860266063 -2.449517248914288 0  2.44632486311431 -4.896018928240909 0  2.440753147467017 4.899772032764459 0  -4.910698965732776 -2.448096335137108 0  -4.910696734275115 2.448100194546412 0  -1.748646119536328 4.911335418517753 0  -1.744427214805558 -4.914763808586561 0  4.920917230399069 1.744229961923672 0  4.90949126926805 -1.74801441376917 0  -4.909781670695104 -1.747746079911927 0  -4.9106015109068 1.74748905940516 0  1.74592712958166 4.905215715417457 0  1.747356865224751 -4.893402436133843 0  -1.148930744059587 4.909187864687036 0  -1.129778236431346 -4.917071896227617 0  -4.909583024553728 -1.148042766225586 0  -4.909402581587759 1.147843037174147 0  1.14391973075217 -4.913271649260625 0  1.148939607663726 4.909175635267292 0  4.909726159274193 1.146319129939352 0  4.920509757892681 -1.152087650066859 0  -0.5467154967012535 -4.910411030919501 0  -0.5464935909553587 4.919059439534481 0  -4.908383004242729 -0.5487724297357282 0  -4.908407174729436 0.5473294276895092 0  4.907709828747332 -0.5490920493316139 0  4.919309795954987 0.5458406747711326 0  0.5425024593443059 -4.897345502025099 0  0.5512231240804403 4.915895967662252 0  -4.912046112675061 -3.048424125878983 0  4.918606814263996 3.046431831585148 0  4.911555574446041 -3.04840188558015 0  -4.912893103409808 3.045514629755966 0  3.055399556271407 -4.917537546914911 0  -3.048737835711167 -4.911483865020981 0  3.052302786594624 4.913558874719061 0  -3.048182741582337 4.912372372015509 0  -4.907516329503295 -0.04991408532069032 0  0.04512277366446829 -4.912364359534465 0  0.049570742305035 4.919361938820756 0  4.914539854826528 -0.05129577240413488 0  3.545697391034598 -4.919134923577039 0  -3.548984671258957 4.912043322365068 0 
[...]
<PointData  Vectors="f_2870"> 
<DataArray  type="Float64"  Name="f_2870"  NumberOfComponents="3" format="ascii">2.6559658580599905e-76 2.6559658580599905e-76 0.0000000000000000e+00  -2.8445085011138515e-76 2.8445085011138515e-76 0.0000000000000000e+00  -8.5659604779116068e-78 -8.5659604779116068e-78 0.0000000000000000e+00  3.0308186857310680e-76 -3.0308186857310680e-76 0.0000000000000000e+00  -3.1551962987964616e-01 -5.9277029061867836e-03 0.0000000000000000e+00  4.1655872943622533e-75 6.6065378229349951e-75 0.0000000000000000e+00  2.0827205544861364e-75 2.0879676247537000e-74 0.0000000000000000e+00  -3.4048762905867325e-75 6.7706993401171975e-75 0.0000000000000000e+00  3.9990554374743874e-72 6.6690819750587891e-72 0.0000000000000000e+00  5.3153812432559298e-71 1.3459608866706353e-70 0.0000000000000000e+00  -7.9159151487561054e-72 4.5548864972080202e-71 0.0000000000000000e+00  3.2326340469087629e-69 6.1638668973482631e-69 0.0000000000000000e+00  5.1582227585893014e-68 9.4016924969208037e-68 0.0000000000000000e+00  -3.0620557485425457e-68 1.4998261560301187e-67 0.0000000000000000e+00  1.2758616955144584e-67 3.9825180279003778e-67 0.0000000000000000e+00  1.2665974752353453e-68 8.7788579672647967e-67 0.0000000000000000e+00  5.4465976485983373e-64 8.8274741118453623e-64 0.0000000000000000e+00  4.7503445521149352e-65 2.4418392883300839e-63 0.0000000000000000e+00  1.3476294451850716e-62 2.2002956198154428e-62 0.0000000000000000e+00  8.0598258177174850e-63 8.3187350317568522e-62 0.0000000000000000e+00  6.9219988238901852e-61 1.1030436414878173e-60 0.0000000000000000e+00  4.0563228293426892e-60 7.0113601777080457e-60 0.0000000000000000e+00  -2.8423669371929496e-60 7.6955477440323498e-60 0.0000000000000000e+00  5.6528397572136429e-59 1.1374997636794310e-58 0.0000000000000000e+00  -1.7554954295034832e-59 1.1644072982920783e-58 0.0000000000000000e+00  -2.9972100876337094e-59 6.8343257748636340e-59 0.0000000000000000e+00  1.7984245529560762e-58 3.3067643613210834e-58 0.0000000000000000e+00  7.2830424854398441e-58 2.0904609094968409e-57 0.0000000000000000e+00  2.8536428950774395e-57 6.2370988265260122e-57 0.0000000000000000e+00  -3.3983523723534720e-57 5.7329694056690265e-57 0.0000000000000000e+00  -3.5127265617889997e-58 1.0972630419859327e-57 0.0000000000000000e+00  1.9031754570737543e-56 2.9348566318037043e-56 0.0000000000000000e+00  -1.4091211935847161e-56 3.5287495604563967e-56 0.0000000000000000e+00  1.1876833066884831e-56 2.8952252850466535e-56 0.0000000000000000e+00  8.7099592839383935e-56 2.0988672597180271e-55 0.0000000000000000e+00  -2.4976486384966249e-56 5.7431246911896577e-55 0.0000000000000000e+00  5.1918091513889598e-57 8.6199249929925318e-57 0.0000000000000000e+00  5.5247048530484191e-56 1.3824746001212998e-55 0.0000000000000000e+00  1.5433000133075302e-55 6.1716834167498946e-55 0.0000000000000000e+00  -2.2273281399532515e-55 3.5135224661329449e-55 0.0000000000000000e+00  9.7968225845366408e-55 1.7241453347230175e-54 0.0000000000000000e+00  -4.3993338214128981e-55 4.3610976370037923e-54 0.0000000000000000e+00  -2.2716458592182416e-55 2.6818433583490980e-54 0.0000000000000000e+00  -9.5729973096514188e-56 9.4389118806232607e-55 0.0000000000000000e+00  -1.1260019940419757e-55 1.8211192692938855e-55 0.0000000000000000e+00  2.7475091973025777e-54 5.2357978600561197e-54 0.0000000000000000e+00  -2.1498976131554625e-54 4.1374060851263647e-54 0.0000000000000000e+00  -7.1584045362738842e-55 8.0759971944337751e-55 0.0000000000000000e+00  -1.3141533200968381e-55 2.7124853611449295e-55 0.0000000000000000e+00  9.2587407442334559e-55 1.4456067340381686e-54 0.0000000000000000e+00  9.4103632174709797e-55 6.1550489665806471e-54 0.0000000000000000e+00  -1.1229619101373442e-54 5.8987323043369505e-54 0.0000000000000000e+00  5.1222875467370306e-55 4.6483447411831398e-54 0.0000000000000000e+00  1.9018166013999282e-56 5.7931983781429598e-54 0.0000000000000000e+00  3.0027590363236608e-55 6.1513649778118371e-54 0.0000000000000000e+00  -1.2554690516513467e-54 2.0442857891151605e-54 0.0000000000000000e+00  -6.4256531455766219e-55 1.4724329147055952e-53 0.0000000000000000e+00  4.4421454661872206e-54 7.4679919601933647e-54 0.0000000000000000e+00  -4.3264708606801460e-54 8.0974853931714026e-54 0.0000000000000000e+00  1.9127773048127572e-54 3.9560685661730900e-54 0.0000000000000000e+00  -7.3298945449970512e-55 9.4995003883799248e-54 0.0000000000000000e+00  1.3247879244099161e-54 9.3283436880694238e-54 0.0000000000000000e+00  -1.6773403133700882e-54 4.3975427717620102e-54 0.0000000000000000e+00  -9.2105104490481160e-55 2.4054736750772503e-54 0.0000000000000000e+00  3.3167341097211935e-55 1.2993904554650311e-54 0.0000000000000000e+00  2.6450184308442570e-55 2.5374497868535266e-54 0.0000000000000000e+00  -7.8141746646671527e-56 3.4899929102781040e-54 0.0000000000000000e+00  -7.0851739134393085e-55 1.4821695771737112e-54 0.0000000000000000e+00  2.3686634526573683e-55 4.4238565930308277e-55 0.0000000000000000e+00  -2.3013596260444180e-55 6.0257266997396029e-55 0.0000000000000000e+00  5.0144849087239331e-56 2.3975602585239172e-55 0.0000000000000000e+00  1.8594970175306025e-55 9.5223817907738796e-55 0.0000000000000000e+00  -3.2927068236272436e-55 5.3051106395620732e-55 0.0000000000000000e+00  -1.5859352494709421e-56 4.8236180689263460e-56 0.0000000000000000e+00  -1.1320033387151101e-57 1.1334056717679667e-56 0.0000000000000000e+00  6.7323362320525332e-57 2.3544812498166417e-56 0.0000000000000000e+00  -8.9674749151267390e-57 1.5028256702905546e-56 0.0000000000000000e+00  1.7369013125646384e-57 2.8855369586475037e-57 0.0000000000000000e+00  -1.2409595577088578e-57 2.7253515655561058e-57 0.0000000000000000e+00  5.1629035168856510e-57 7.8047476423531985e-57 0.0000000000000000e+00  -4.5224064417909827e-57 1.1254151048103487e-56 0.0000000000000000e+00  -1.8094477323799263e-58 9.3963409030855969e-58 0.0000000000000000e+00  -2.3867194451746624e-58 4.6541290059297127e-58 0.0000000000000000e+00  -7.8604946968461034e-61 8.8103901992563915e-59 0.0000000000000000e+00  -2.4407274345215003e-59 6.4243939882438487e-59 0.0000000000000000e+00  -7.1012418043436472e-60 2.5001895417493913e-59 0.0000000000000000e+00  -4.3774053740257851e-60 2.2388914639600444e-59 0.0000000000000000e+00  -3.0574110219917618e-60 7.1697964519410594e-60 0.0000000000000000e+00  -8.5083922036639475e-62 4.4356818340036690e-61 0.0000000000000000e+00  -1.0740763438994392e-61 2.2346644194884549e-61 0.0000000000000000e+00  -3.5818352390876154e-62 5.6763068785191443e-62 0.0000000000000000e+00  -3.9043122202160833e-64 6.6999051360076098e-64 0.0000000000000000e+00  -2.4280875532534585e-65 5.1720093303616459e-65 0.0000000000000000e+00  3.7031817750749518e-66 1.0384634738101502e-65 0.0000000000000000e+00  -4.8372336032073884e-66 9.2638309850290912e-66 0.0000000000000000e+00  -6.6929750032676120e-68 2.7713858472805889e-67 0.0000000000000000e+00  -7.8466211816500085e-68 1.2920863578589729e-67 0.0000000000000000e+00  -8.0549717442398932e-69 1.1734976523122450e-68 0.0000000000000000e+00  -5.6298458516543333e-70 9.5220566939855827e-70 0.0000000000000000e+00  -3.7775585143768504e-71 6.8196216846615108e-71 0.0000000000000000e+00  -1.8777038087461339e-72 3.2031009496382470e-72 0.0000000000000000e+00  -1.2174677168615849e-73 2.7268952521514591e-73 0.0000000000000000e+00  -4.4202579890601815e-75 1.2912089232632077e-74 0.0000000000000000e+00  -2.5478753501518758e-75 4.2413603899578846e-75 0.0000000000000000e+00  -9.7692168857043902e-76 3.5580371889687657e-76 0.0000000000000000e+00  -1.6210398190655739e-75 -2.3916741256890252e-76 0.0000000000000000e+00  -2.4491391232721220e-74 1.1588887253680287e-74 0.0000000000000000e+00  -3.6791815740623853e-74 1.5499726700388033e-75 0.0000000000000000e+00  -3.8834640685123382e-73 1.4331184100459695e-73 0.0000000000000000e+00  -1.0239914152332782e-71 6.2362924640737169e-72 0.0000000000000000e+00  -6.7424183211769873e-71 3.7069286976499488e-71 0.0000000000000000e+00  -1.0610592495741829e-70 3.9014014493455234e-72 0.0000000000000000e+00  -8.9021406725995863e-70 3.3075924825571435e-70 0.0000000000000000e+00  -2.1293810880913201e-68 1.2858392891926939e-68 0.0000000000000000e+00  -1.0240722872815563e-67 5.1074969078314687e-68 0.0000000000000000e+00  -1.0131168105552699e-67 -6.0224123715405197e-68 0.0000000000000000e+00  -3.1670561213854353e-66 1.7450100199820229e-66 0.0000000000000000e+00  -3.1867026606185989e-65 1.8304851340237691e-65 0.0000000000000000e+00  -5.3863554703005798e-65 5.0420359010066271e-66 0.0000000000000000e+00  -4.4378852042272771e-64 1.4453879448706752e-64 0.0000000000000000e+00  -6.9973742354941279e-63 4.3550724296930350e-63 0.0000000000000000e+00  -1.5068432774783693e-62 3.7447213188745086e-63 0.0000000000000000e+00  -8.4353803878183631e-62 1.9646185577976221e-62 0.0000000000000000e+00  -1.3558988570480188e-60 8.5080168917228302e-61 0.0000000000000000e+00  -2.4173117087046231e-60 3.3775112688830944e-61 0.0000000000000000e+00  -2.1178623171748106e-59 7.3878953486391104e-60 0.0000000000000000e+00  -2.4189740400351399e-58 1.4922216959698173e-58 0.0000000000000000e+00  -2.5863236453306931e-58 -9.4016254841061863e-59 0.0000000000000000e+00  -5.9819085489927792e-57 2.7766332747746577e-57 0.0000000000000000e+00  -2.4853001474608859e-56 1.2366028423819150e-56 0.0000000000000000e+00  -5.5620512224249943e-56 -8.6621687970850179e-57 0.0000000000000000e+00  -1.0122730884487422e-54 6.4643531668407423e-55 0.0000000000000000e+00  -1.1200577062575945e-54 -3.4547492492577458e-55 0.0000000000000000e+00  -2.4099894925629698e-53 1.2658365714811802e-53 0.0000000000000000e+00  -6.5980440779529444e-53 2.9799069843682476e-53 0.0000000000000000e+00  -4.3585626677017731e-52 1.2206262299070796e-52 0.0000000000000000e+00  -2.6685898658991125e-51 1.6572017874172825e-51 0.0000000000000000e+00  -7.6656086570917645e-51 -2.1292950234786265e-52 0.0000000000000000e+00  -7.2044324961255071e-50 4.5788052002481465e-50 0.0000000000000000e+00  -1.6169980475247951e-49 -1.4705024597688404e-50 0.0000000000000000e+00  -1.7311911989756419e-48 1.0056415050123077e-48 0.0000000000000000e+00  -4.3409627979753413e-48 -2.0280136122460521e-49 0.0000000000000000e+00  -2.0154719131236488e-47 1.1044064991407350e-47 0.0000000000000000e+00  -1.1030741182888910e-46 1.8867741377918525e-47 0.0000000000000000e+00  -1.0250901004494052e-46 2.4470969910519379e-47 0.0000000000000000e+00  -1.2414427974990580e-45 5.2249424313666053e-46 0.0000000000000000e+00  -8.7309768452126533e-46 -5.6465764854670941e-46 0.0000000000000000e+00  -1.3439834136126160e-44 8.0243851326229266e-45 0.0000000000000000e+00  -5.7975777903476501e-44 1.3658619679431209e-44 0.0000000000000000e+00  -3.6141941739569825e-44 -1.7407540399102439e-44 0.0000000000000000e+00  -1.1429991356185978e-43 6.4611709579589882e-44 0.0000000000000000e+00  -8.4147243092396013e-43 2.3019218987106836e-43 0.0000000000000000e+00  -1.9293331380142208e-42 1.9633768659946476e-43 0.0000000000000000e+00  -2.5119355253868051e-42 6.0666751199910150e-44 0.0000000000000000e+00  -2.0147089790881449e-42 -1.9360229604935521e-43 0.0000000000000000e+00  -8.6154634112751792e-43 -2.4903593987295254e-43 0.0000000000000000e+00  -1.1329563578789312e-43 -6.4076859458965424e-44 0.0000000000000000e+00  -3.8700999215942676e-44 1.8390508287946507e-44 0.0000000000000000e+00  -6.3181546341051881e-44 -1.0759715292484849e-44 0.0000000000000000e+00  -1.4999247882554549e-44 -7.8215015405811583e-45 0.0000000000000000e+00  -9.9812583329700023e-46 5.6392254876419954e-46 0.0000000000000000e+00  -1.4048318519781499e-45 -5.3563091022784054e-46 0.0000000000000000e+00  -1.1213041107422572e-46 -2.8395229312987725e-47 0.0000000000000000e+00  -1.0185717239705164e-46 -2.1310692058261228e-47 0.0000000000000000e+00  -1.8632872517034592e-47 -1.1909149006268665e-47 0.0000000000000000e+00  -4.0853947576205968e-48 2.0192392959109749e-49 0.0000000000000000e+00  -1.4887956027514689e-48 -9.3116005667049895e-49 0.0000000000000000e+00  -1.6326983283494961e-49 2.4417906783356237e-50 0.0000000000000000e+00  -7.4679298296473936e-50 -4.3988914381254009e-50 0.0000000000000000e+00  -8.2449053826103368e-51 6.3707314930676823e-52 0.0000000000000000e+00  -3.1497300607348370e-51 -1.7752446483525534e-51 0.0000000000000000e+00  -5.1056998415202955e-52 -1.1417095382788981e-52 0.0000000000000000e+00  -8.2146130607493804e-53 -3.5315168320084886e-53 0.0000000000000000e+00  -2.6650840168432749e-53 -1.3102741896811127e-53 0.0000000000000000e+00  -1.1964085153176521e-54 3.2262746830838115e-55 0.0000000000000000e+00  -1.0653307729924495e-54 -6.7792745924218498e-55 0.0000000000000000e+00  -5.1503527735045571e-56 8.3157574611348279e-57 0.0000000000000000e+00  -2.3396630077974838e-56 -1.3192547730727906e-56 0.0000000000000000e+00  -4.8295632183273796e-57 -2.5132342818680841e-57 0.0000000000000000e+00  -2.4567763740951920e-58 8.5191293638601957e-59 0.0000000000000000e+00  -2.1611666058065110e-58 -1.3246534165927232e-58 0.0000000000000000e+00  -1.9923184660400290e-59 -6.1300905003411472e-60 0.0000000000000000e+00  -2.3756136284492750e-60 -3.3869794073972530e-61 0.0000000000000000e+00  -1.2923362347762139e-60 -7.5900700456581874e-61 0.0000000000000000e+00  -7.6945960110755982e-62 -2.1392666966044016e-62 0.0000000000000000e+00  -1.3599094018953348e-62 -2.9241020517337899e-63 0.0000000000000000e+00  -6.6456158454335672e-63 -3.7809739111098279e-63 0.0000000000000000e+00  -4.7858914378380326e-64 -1.8164852121596577e-64 0.0000000000000000e+00  -4.3637125718958025e-65 9.5643930834443882e-67 0.0000000000000000e+00  -2.9504985804557034e-65 -1.6595680199159667e-65 0.0000000000000000e+00  -3.4157897568570909e-66 -1.9860369942026254e-66 0.0000000000000000e+00  -8.9884389108530481e-68 5.4734473300021948e-68 0.0000000000000000e+00  -8.6412647536816662e-68 -4.1728108615164578e-68 0.0000000000000000e+00  -2.0694801211200550e-68 -1.2837023132428806e-68 0.0000000000000000e+00  -1.1330808948505827e-69 -5.1293504178302469e-70 0.0000000000000000e+00  -8.7932572384261294e-71 1.3778196699750488e-71 0.0000000000000000e+00  -6.9107798962727531e-71 -3.6547333041632125e-71 0.0000000000000000e+00  -1.2483609525083442e-71 -7.6580447510038623e-72 0.0000000000000000e+00  -5.9831763067663940e-73 -2.7499523438227724e-73 0.0000000000000000e+00  -3.9234337774404725e-74 7.4206056764610733e-75 0.0000000000000000e+00  -3.1569848643517254e-74 -1.4786213211844917e-74 0.0000000000000000e+00  -6.5912306295845553e-75 -3.3565493152433916e-75 0.0000000000000000e+00  -7.1800663619990100e-76 -3.1070061890992363e-76 0.0000000000000000e+00  -8.5512827479205907e-76 -1.6229037254570522e-75 0.0000000000000000e+00  -4.7731305335262573e-75 -1.3946294018863203e-74 0.0000000000000000e+00  4.3655661561890750e-75 -8.3075210911092214e-75 0.0000000000000000e+00  -1.6288535201633853e-73 -3.4277195560599371e-73 0.0000000000000000e+00  -9.2810612196317702e-71 -1.0073401148639979e-70 0.0000000000000000e+00  -7.5022212957905184e-70 -1.3180932008119318e-69 0.0000000000000000e+00  -1.0977195258195305e-69 -3.6518742753580036e-69 0.0000000000000000e+00  -7.7553372983322680e-68 -1.7119075531882120e-67 0.0000000000000000e+00  -6.5254643744256854e-68 -3.2604253022752032e-67 0.0000000000000000e+00  -6.7837257872133093e-66 -1.3505801506833070e-65 0.0000000000000000e+00  -4.5150182392532434e-66 -2.1320276552021454e-65 0.0000000000000000e+00  -9.0591885317323642e-65 -1.5583990740139651e-64 0.0000000000000000e+00  1.7197795886605324e-65 -2.1033909965654624e-64 0.0000000000000000e+00  -4.2700687353197431e-62 -6.4068533219734506e-62 0.0000000000000000e+00  -6.9883708511394593e-62 -1.7214823868852480e-61 0.0000000000000000e+00  -2.3223385025497058e-62 -2.7289053005449008e-61 0.0000000000000000e+00  -5.7310896999545644e-60 -1.1369323977289585e-59 0.0000000000000000e+00  4.7587844722047642e-60 -1.5014134100939156e-59 0.0000000000000000e+00  -2.8956475491666677e-59 -4.7525964251391414e-59 0.0000000000000000e+00  8.8040657596655542e-60 -6.0849611887272428e-59 0.0000000000000000e+00  2.3205881389799817e-59 -3.9687632930280618e-59 0.0000000000000000e+00  -5.6262267316427066e-58 -8.9551246856633095e-58 0.0000000000000000e+00  -1.3771820850976879e-59 -1.2602576377497808e-57 0.0000000000000000e+00  -4.6235958606295171e-57 -1.1644089423019447e-56 0.0000000000000000e+00  5.7353022184462031e-57 -8.6661227501603692e-57 0.0000000000000000e+00  -5.3207454381210434e-57 -7.3456365349680903e-57 0.0000000000000000e+00  -1.7625789974464068e-56 -3.7759123602519075e-56 0.0000000000000000e+00  2.1559383867879300e-56 -4.0681373232622117e-56 0.0000000000000000e+00  -4.9889287364605192e-57 -9.2077349817703087e-57 0.0000000000000000e+00  -8.0957766173752627e-56 -2.0321614448660508e-55 0.0000000000000000e+00  6.3519065289559696e-56 -5.0761494791957050e-55 0.0000000000000000e+00  -4.2768909477639719e-55 -7.2637213224761093e-55 0.0000000000000000e+00  -4.8729170795396395e-56 -1.8358330906965161e-54 0.0000000000000000e+00  1.6550323418054759e-55 -5.7376366315406547e-55 0.0000000000000000e+00  -5.1664284215804146e-55 -1.6766516296210272e-54 0.0000000000000000e+00  -2.2465337719529517e-54 -7.0746456008939662e-54 0.0000000000000000e+00  2.5733550119361536e-54 -6.0738524060833736e-54 0.0000000000000000e+00  -6.6980852959430083e-55 -2.3905230672559207e-54 0.0000000000000000e+00  5.3054261926747869e-55 -2.8186278305073762e-54 0.0000000000000000e+00  1.2772636113198156e-55 -1.4247202333255531e-54 0.0000000000000000e+00  -2.1724280990612110e-54 -3.4686566282132458e-54 0.0000000000000000e+00  5.6889054237354491e-55 -8.2269219361870529e-54 0.0000000000000000e+00  -3.9162734110604064e-54 -1.3561149854687304e-53 0.0000000000000000e+00  4.6747067482105768e-54 -7.7118065698940871e-54 0.0000000000000000e+00  2.0239222441539951e-55 -6.5052197273682693e-55 0.0000000000000000e+00  -4.7831036596356501e-54 -8.0111682756567508e-54 0.0000000000000000e+00  4.8085971825647441e-54 -7.8683157279660736e-54 0.0000000000000000e+00  -1.6555936751265538e-56 -1.3350248505757108e-55 0.0000000000000000e+00  1.1110192926360590e-56 -2.7681481930648074e-55 0.0000000000000000e+00  2.1985203101531458e-56 -9.8796902551519168e-56 0.0000000000000000e+00  -5.1848500593646287e-54 -9.3533630984372386e-54 0.0000000000000000e+00  5.5302428296273000e-54 -9.4093336182173986e-54 0.0000000000000000e+00  5.6541216997965847e-56 -1.0520758586386613e-55 0.0000000000000000e+00  -1.4276578557856416e-56 -6.2043645394155223e-56 0.0000000000000000e+00  -4.9812599058436480e-55 -9.0439780260099794e-55 0.0000000000000000e+00  -5.7940879105103519e-54 -1.0042292087198664e-53 0.0000000000000000e+00  4.4880803468069063e-54 -1.0495150920343930e-53 0.0000000000000000e+00  -3.0420645116398971e-54 -7.9828577317312742e-54 0.0000000000000000e+00  2.4307402088729351e-54 -8.5520917790329123e-54 0.0000000000000000e+00  2.2391073056574628e-54 -3.3084724250284421e-54 0.0000000000000000e+00  -5.4195293573751973e-55 -1.4792760739511539e-54 0.0000000000000000e+00  8.3312779146784415e-55 -1.5748387926347416e-54 0.0000000000000000e+00  -4.9082779763969499e-55 -9.8266917155147697e-55 0.0000000000000000e+00  5.1101349504936699e-55 -8.8616646595798754e-55 0.0000000000000000e+00  -1.5620803831866432e-56 -2.6900117204167789e-56 0.0000000000000000e+00  -4.4635726017503040e-56 -1.7212472342205134e-55 0.0000000000000000e+00  4.1618826524084385e-56 -1.7473941758261552e-55 0.0000000000000000e+00  4.7926216655754549e-57 -6.9037967590747325e-56 0.0000000000000000e+00  -2.7415078240160596e-56 -6.5387595231169708e-56 0.0000000000000000e+00  3.2798027711329180e-56 -6.4184717724257627e-56 0.0000000000000000e+00  -2.8517353719762821e-57 -2.8729352967076341e-56 0.0000000000000000e+00  1.2930852807201438e-56 -3.0039282822871287e-56 0.0000000000000000e+00  1.0002322014067725e-57 -2.4005202544704733e-57 0.0000000000000000e+00  -4.3728254363217383e-57 -7.6327954036151550e-57 0.0000000000000000e+00  4.2413328799136658e-57 -1.1012880531925409e-56 0.0000000000000000e+00  3.1182801494909902e-58 -1.0217344678956534e-57 0.0000000000000000e+00  1.4352007277035052e-58 -5.0281