<?xml version="1.0"?>
<VTKFile type="UnstructuredGrid"  version="0.1"  >
<UnstructuredGrid>
<Piece  NumberOfPoints="11902" NumberOfCells="23402">
<Points>
<DataArray  type="Float64"  NumberOfComponents="3"  format="ascii">-5 -5 0  5 -5 0  5 5 0  -5 5 0  1.256579332779437 0.001349686648796464 0  -4.9 -5 0  -4.8 -5 0  -4.7 -5 0  -4.6 -5 0  -4.5 -5 0  -4.4 -5 0  -4.3 -5 0  -4.2 -5 0  -4.1 -5 0  -4 -5 0  -3.9 -5 0  -3.8 -5 0  -3.7 -5 0  -3.6 -5 0  -3.5 -5 0  -3.4 -5 0  -3.3 -5 0  -3.2 -5 0  -3.1 -5 0  -3 -5 0  -2.9 -5 0  -2.8 -5 0  -2.7 -5 0  -2.6 -5 0  -2.5 -5 0  -2.4 -5 0  -2.3 -5 0  -2.2 -5 0  -2.1 -5 0  -2 -5 0  -1.9 -5 0  -1.8 -5 0  -1.7 -5 0  -1.6 -5 0  -1.5 -5 0  -1.4 -5 0  -1.3 -5 0  -1.2 -5 0  -1.1 -5 0  -1 -5 0  -0.9000000000000004 -5 0  -0.7999999999999998 -5 0  -0.7000000000000002 -5 0  -0.5999999999999996 -5 0  -0.5 -5 0  -0.4000000000000004 -5 0  -0.2999999999999998 -5 0  -0.2000000000000002 -5 0  -0.09999999999999964 -5 0  0 -5 0  0.09999999999999964 -5 0  0.2000000000000002 -5 0  0.2999999999999998 -5 0  0.4000000000000004 -5 0  0.5 -5 0  0.5999999999999996 -5 0  0.7000000000000002 -5 0  0.7999999999999998 -5 0  0.9000000000000004 -5 0  1 -5 0  1.1 -5 0  1.2 -5 0  1.3 -5 0  1.4 -5 0  1.5 -5 0  1.6 -5 0  1.7 -5 0  1.8 -5 0  1.9 -5 0  2 -5 0  2.1 -5 0  2.2 -5 0  2.3 -5 0  2.4 -5 0  2.5 -5 0  2.6 -5 0  2.7 -5 0  2.8 -5 0  2.9 -5 0  3 -5 0  3.1 -5 0  3.199999999999999 -5 0  3.300000000000001 -5 0  3.4 -5 0  3.5 -5 0  3.6 -5 0  3.699999999999999 -5 0  3.800000000000001 -5 0  3.9 -5 0  4 -5 0  4.1 -5 0  4.199999999999999 -5 0  4.300000000000001 -5 0  4.4 -5 0  4.5 -5 0  4.6 -5 0  4.699999999999999 -5 0  4.800000000000001 -5 0  4.9 -5 0  5 -4.9 0  5 -4.8 0  5 -4.7 0  5 -4.6 0  5 -4.5 0  5 -4.4 0  5 -4.3 0  5 -4.2 0  5 -4.1 0  5 -4 0  5 -3.9 0  5 -3.8 0  5 -3.7 0  5 -3.6 0  5 -3.5 0  5 -3.4 0  5 -3.3 0  5 -3.2 0  5 -3.1 0  5 -3 0  5 -2.9 0  5 -2.8 0  5 -2.7 0  5 -2.6 0  5 -2.5 0  5 -2.4 0  5 -2.3 0  5 -2.2 0  5 -2.1 0  5 -2 0  5 -1.9 0  5 -1.8 0  5 -1.7 0  5 -1.6 0  5 -1.5 0  5 -1.4 0  5 -1.3 0  5 -1.2 0  5 -1.1 0  5 -1 0  5 -0.9000000000000004 0  5 -0.7999999999999998 0  5 -0.7000000000000002 0  5 -0.5999999999999996 0  5 -0.5 0  5 -0.4000000000000004 0  5 -0.2999999999999998 0  5 -0.2000000000000002 0  5 -0.09999999999999964 0  5 0 0  5 0.09999999999999964 0  5 0.2000000000000002 0  5 0.2999999999999998 0  5 0.4000000000000004 0  5 0.5 0  5 0.5999999999999996 0  5 0.7000000000000002 0  5 0.7999999999999998 0  5 0.9000000000000004 0  5 1 0  5 1.1 0  5 1.2 0  5 1.3 0  5 1.4 0  5 1.5 0  5 1.6 0  5 1.7 0  5 1.8 0  5 1.9 0  5 2 0  5 2.1 0  5 2.2 0  5 2.3 0  5 2.4 0  5 2.5 0  5 2.6 0  5 2.7 0  5 2.8 0  5 2.9 0  5 3 0  5 3.1 0  5 3.199999999999999 0  5 3.300000000000001 0  5 3.4 0  5 3.5 0  5 3.6 0  5 3.699999999999999 0  5 3.800000000000001 0  5 3.9 0  5 4 0  5 4.1 0  5 4.199999999999999 0  5 4.300000000000001 0  5 4.4 0  5 4.5 0  5 4.6 0  5 4.699999999999999 0  5 4.800000000000001 0  5 4.9 0  4.9 5 0  4.8 5 0  4.7 5 0  4.6 5 0  4.5 5 0  4.4 5 0  4.3 5 0  4.2 5 0  4.1 5 0  4 5 0  3.9 5 0  3.8 5 0  3.7 5 0  3.6 5 0  3.5 5 0  3.4 5 0  3.3 5 0  3.2 5 0  3.1 5 0  3 5 0  2.9 5 0  2.8 5 0  2.7 5 0  2.6 5 0  2.5 5 0  2.4 5 0  2.3 5 0  2.2 5 0  2.1 5 0  2 5 0  1.9 5 0  1.8 5 0  1.7 5 0  1.6 5 0  1.5 5 0  1.4 5 0  1.3 5 0  1.2 5 0  1.1 5 0  1 5 0  0.9000000000000004 5 0  0.7999999999999998 5 0  0.7000000000000002 5 0  0.5999999999999996 5 0  0.5 5 0  0.4000000000000004 5 0  0.2999999999999998 5 0  0.2000000000000002 5 0  0.09999999999999964 5 0  0 5 0  -0.09999999999999964 5 0  -0.2000000000000002 5 0  -0.2999999999999998 5 0  -0.4000000000000004 5 0  -0.5 5 0  -0.5999999999999996 5 0  -0.7000000000000002 5 0  -0.7999999999999998 5 0  -0.9000000000000004 5 0  -1 5 0  -1.1 5 0  -1.2 5 0  -1.3 5 0  -1.4 5 0  -1.5 5 0  -1.6 5 0  -1.7 5 0  -1.8 5 0  -1.9 5 0  -2 5 0  -2.1 5 0  -2.2 5 0  -2.3 5 0  -2.4 5 0  -2.5 5 0  -2.6 5 0  -2.7 5 0  -2.8 5 0  -2.9 5 0  -3 5 0  -3.1 5 0  -3.199999999999999 5 0  -3.300000000000001 5 0  -3.4 5 0  -3.5 5 0  -3.6 5 0  -3.699999999999999 5 0  -3.800000000000001 5 0  -3.9 5 0  -4 5 0  -4.1 5 0  -4.199999999999999 5 0  -4.300000000000001 5 0  -4.4 5 0  -4.5 5 0  -4.6 5 0  -4.699999999999999 5 0  -4.800000000000001 5 0  -4.9 5 0  -5 4.9 0  -5 4.8 0  -5 4.7 0  -5 4.6 0  -5 4.5 0  -5 4.4 0  -5 4.3 0  -5 4.2 0  -5 4.1 0  -5 4 0  -5 3.9 0  -5 3.8 0  -5 3.7 0  -5 3.6 0  -5 3.5 0  -5 3.4 0  -5 3.3 0  -5 3.2 0  -5 3.1 0  -5 3 0  -5 2.9 0  -5 2.8 0  -5 2.7 0  -5 2.6 0  -5 2.5 0  -5 2.4 0  -5 2.3 0  -5 2.2 0  -5 2.1 0  -5 2 0  -5 1.9 0  -5 1.8 0  -5 1.7 0  -5 1.6 0  -5 1.5 0  -5 1.4 0  -5 1.3 0  -5 1.2 0  -5 1.1 0  -5 1 0  -5 0.9000000000000004 0  -5 0.7999999999999998 0  -5 0.7000000000000002 0  -5 0.5999999999999996 0  -5 0.5 0  -5 0.4000000000000004 0  -5 0.2999999999999998 0  -5 0.2000000000000002 0  -5 0.09999999999999964 0  -5 0 0  -5 -0.09999999999999964 0  -5 -0.2000000000000002 0  -5 -0.2999999999999998 0  -5 -0.4000000000000004 0  -5 -0.5 0  -5 -0.5999999999999996 0  -5 -0.7000000000000002 0  -5 -0.7999999999999998 0  -5 -0.9000000000000004 0  -5 -1 0  -5 -1.1 0  -5 -1.2 0  -5 -1.3 0  -5 -1.4 0  -5 -1.5 0  -5 -1.6 0  -5 -1.7 0  -5 -1.8 0  -5 -1.9 0  -5 -2 0  -5 -2.1 0  -5 -2.2 0  -5 -2.3 0  -5 -2.4 0  -5 -2.5 0  -5 -2.6 0  -5 -2.7 0  -5 -2.8 0  -5 -2.9 0  -5 -3 0  -5 -3.1 0  -5 -3.199999999999999 0  -5 -3.300000000000001 0  -5 -3.4 0  -5 -3.5 0  -5 -3.6 0  -5 -3.699999999999999 0  -5 -3.800000000000001 0  -5 -3.9 0  -5 -4 0  -5 -4.1 0  -5 -4.199999999999999 0  -5 -4.300000000000001 0  -5 -4.4 0  -5 -4.5 0  -5 -4.6 0  -5 -4.699999999999999 0  -5 -4.800000000000001 0  -5 -4.9 0  1.248595792802613 0.0951337222894187 0  1.227107964856496 0.1926246634815305 0  1.193730733723957 0.2891252793225094 0  1.150909585746839 0.3780108102077177 0  1.093235108983507 0.4687789999864024 0  1.027678675628163 0.5531796942902311 0  0.9495814251854253 0.6330779641920289 0  0.8630142889395133 0.7075640316625234 0  0.7712916649402779 0.7729805981684359 0  0.6689911527703305 0.8303559978243163 0  0.5575825007846491 0.8826461480655858 0  0.4452892755806503 0.9268508808529836 0  0.3327250408872612 0.9591695191826691 0  0.2086342625138724 0.980721612206559 0  0.08912081430386076 0.999531727538379 0  -0.02721296741698046 1.002786030772613 0  -0.1449543882721689 0.9891747982862655 0  -0.2715940115468847 0.9703657614646009 0  -0.3906656980283487 0.9460314898911493 0  -0.5014488886348053 0.9099126357549681 0  -0.6106106319405554 0.8634728819058743 0  -0.7127786535977487 0.8089088589707348 0  -0.8073937493676844 0.7440932394551163 0  -0.8981474610925195 0.6708240371724912 0  -0.9833486259691209 0.5912409352204105 0  -1.057303215024247 0.5101570284579534 0  -1.118998849664459 0.4246488512382563 0  -1.171795853594634 0.3325542426791702 0  -1.20977185477421 0.2428244875175162 0  -1.234267125650028 0.1485361957219103 0  -1.245532415869198 0.05139080242059244 0  -1.245482138006438 -0.04929741188216285 0  -1.234231174334905 -0.1457001791526324 0  -1.209457498801676 -0.238491419701334 0  -1.168406359173029 -0.3332958352086237 0  -1.119319301995377 -0.424907160907304 0  -1.058914743288604 -0.50995756141242 0  -0.9857351758362104 -0.5902133807268117 0  -0.9011603584164867 -0.6686495609455904 0  -0.8108541564716716 -0.7401954623513518 0  -0.7148992526273756 -0.8012101633714241 0  -0.6103025544604678 -0.8543223687403821 0  -0.4969349948455513 -0.9037428583658691 0  -0.3841043140887543 -0.9434227048426794 0  -0.268323838584018 -0.969999672154889 0  -0.1435207959756738 -0.9889251862654683 0  -0.02794012270714932 -1.0019844912072 0  0.08861316337512211 -0.9948319414017913 0  0.2138317410307639 -0.9774427286591083 0  0.3352040948684977 -0.9576023813113967 0  0.4494215116777313 -0.9255244369143842 0  0.5599374183424081 -0.8818261337363617 0  0.6699157634552568 -0.8304207345482323 0  0.7712596389428857 -0.7741069142369762 0  0.8631201866280568 -0.7085633958606006 0  0.9487699143134328 -0.6331490285267779 0  1.025074856387053 -0.5522311124427486 0  1.093869652120166 -0.4677138555518611 0  1.151772327385682 -0.3782885273156661 0  1.19548042498633 -0.2871135217653724 0  1.227761687091228 -0.1917528640779118 0  1.248918170669232 -0.09487043134289116 0  -2.448563504256104 4.918117857689361 0  -2.448437878074723 -4.910496533587937 0  4.910420947697915 2.447895233261477 0  4.918547309060286 -2.449356710131256 0  2.446167927157037 -4.8957284713344 0  2.44060140743999 4.899491106259029 0  -4.910447947635619 -2.447921584184177 0  -4.910445235267433 2.447925494413838 0  -1.748517675182745 4.911007588818731 0  -1.744304254958267 -4.914448947365218 0  4.920597466265721 1.744069996771271 0  4.909126096415977 -1.747831076384182 0  -4.909420323811901 -1.747565336469838 0  -4.910242911828719 1.747310197635001 0  1.745790651410921 4.904863488277062 0  1.747203852036788 -4.893006923240434 0  -1.148828202568678 4.908789657602408 0  -1.129686002787647 -4.916707647703404 0  -4.909130288440751 -1.147893926471417 0  -4.908948496796096 1.147694321567766 0  1.143823679620753 -4.912890519222844 0  1.148838163156458 4.90877630075582 0  4.909269993445744 1.146169168773613 0  4.920108974867834 -1.151955051711703 0  -0.5466619994124535 -4.909977431499431 0  -0.5464452874931471 4.918666727778278 0  -4.907856667815077 -0.548689666007701 0  -4.90788063214018 0.5472474301524465 0  4.907174991627037 -0.5490077535195907 0  4.918841947914141 0.5457675830796338 0  0.5424436390080428 -4.89684746830758 0  0.5511738063162427 4.915487577794673 0  -4.911876873547619 -3.048279802110661 0  4.918448985240169 3.046296878764669 0  4.911384502432481 -3.048255326826428 0  -4.912724777685534 3.045371494083154 0  3.055289457988584 -4.91737197418851 0  -3.04861947016566 -4.911306754511266 0  3.052186997596406 4.91338489051765 0  -3.048065179366377 4.912196701400681 0  -4.90696245174404 -0.04990589672363903 0  0.04511935641793358 -4.91192719062841 0  0.04956696110126593 4.918958785808542 0  4.914023572164314 -0.05128808290819392 0  3.545610366002323 -4.919019291663539 0  -3.548890083800462 4.911
[...]
<PointData  Vectors="f_4638"> 
<DataArray  type="Float64"  Name="f_4638"  NumberOfComponents="3" format="ascii">2.6559658580600279e-76 2.6559658580600279e-76 0.0000000000000000e+00  -2.8445085011138809e-76 2.8445085011138809e-76 0.0000000000000000e+00  -8.5659604779171669e-78 -8.5659604779171669e-78 0.0000000000000000e+00  3.0308186857311686e-76 -3.0308186857311686e-76 0.0000000000000000e+00  7.4927257850161311e-01 1.4611344403990052e-02 0.0000000000000000e+00  4.1659299972001989e-75 6.6062344850523261e-75 0.0000000000000000e+00  2.0823834453535418e-75 2.0879969625943555e-74 0.0000000000000000e+00  -3.4058734534412286e-75 6.7715756417309196e-75 0.0000000000000000e+00  4.0003155802733619e-72 6.6679755020819371e-72 0.0000000000000000e+00  5.3171839925867341e-71 1.3458017303349902e-70 0.0000000000000000e+00  -7.9204259554728391e-72 4.5552745498933747e-71 0.0000000000000000e+00  3.2345941639492686e-69 6.1621864554864161e-69 0.0000000000000000e+00  5.1619132682330344e-68 9.3985676935989265e-68 0.0000000000000000e+00  -3.0651294363950779e-68 1.5000774572206148e-67 0.0000000000000000e+00  1.2769345318599975e-67 3.9816226555473379e-67 0.0000000000000000e+00  1.2634820167563954e-68 8.7790511950785449e-67 0.0000000000000000e+00  5.4525634326224852e-64 8.8226867996546644e-64 0.0000000000000000e+00  4.7448433085214709e-65 2.4418622223980824e-63 0.0000000000000000e+00  1.3494134197212198e-62 2.1989205255075707e-62 0.0000000000000000e+00  8.0675883458255264e-63 8.3180645494845055e-62 0.0000000000000000e+00  6.9326894752269940e-61 1.1022541323296307e-60 0.0000000000000000e+00  4.0631232596473388e-60 7.0064742236926467e-60 0.0000000000000000e+00  -2.8475539361618272e-60 7.6991554307800525e-60 0.0000000000000000e+00  5.6633076492002389e-59 1.1367753737520105e-58 0.0000000000000000e+00  -1.7591527250312238e-59 1.1646468468501913e-58 0.0000000000000000e+00  -3.0038362963745935e-59 6.8385324773789160e-59 0.0000000000000000e+00  1.8025282464011895e-58 3.3042055717808851e-58 0.0000000000000000e+00  7.2997336085743762e-58 2.0894198630458702e-57 0.0000000000000000e+00  2.8609038742266751e-57 6.2328761736772962e-57 0.0000000000000000e+00  -3.4076031432874991e-57 5.7380839781326514e-57 0.0000000000000000e+00  -3.5227396317465403e-58 1.0977960077970119e-57 0.0000000000000000e+00  1.9087361381715563e-56 2.9319615635235770e-56 0.0000000000000000e+00  -1.4136233222520197e-56 3.5308917767593972e-56 0.0000000000000000e+00  1.1914190515487396e-56 2.8934170115756282e-56 0.0000000000000000e+00  8.7381588694318958e-56 2.0975433054053495e-55 0.0000000000000000e+00  -2.5107997170596642e-56 5.7434122462914818e-55 0.0000000000000000e+00  5.2104798573578172e-57 8.6123148539985332e-57 0.0000000000000000e+00  5.5447953141683959e-56 1.3816683138139777e-55 0.0000000000000000e+00  1.5489620757543171e-55 6.1694315122629777e-55 0.0000000000000000e+00  -2.2363153673393117e-55 3.5164665850156657e-55 0.0000000000000000e+00  9.8364131641113268e-55 1.7228522034982613e-54 0.0000000000000000e+00  -4.4204499624738125e-55 4.3614871674684589e-54 0.0000000000000000e+00  -2.2826749814691190e-55 2.6820213784215696e-54 0.0000000000000000e+00  -9.6181714574419535e-56 9.4397244692714292e-55 0.0000000000000000e+00  -1.1311194784415733e-55 1.8222265619613042e-55 0.0000000000000000e+00  2.7600038590796036e-54 5.2331021764538773e-54 0.0000000000000000e+00  -2.1599556881628569e-54 4.1392096888471663e-54 0.0000000000000000e+00  -7.1923913076781808e-55 8.0813837374737968e-55 0.0000000000000000e+00  -1.3205301082504721e-55 2.7132417629961899e-55 0.0000000000000000e+00  9.3035906454549899e-55 1.4450620502252000e-54 0.0000000000000000e+00  9.4554676289005956e-55 6.1543444475307963e-54 0.0000000000000000e+00  -1.1285902782049382e-54 5.8988298469189124e-54 0.0000000000000000e+00  5.1472996590208535e-55 4.6479970228731431e-54 0.0000000000000000e+00  1.9084937162189666e-56 5.7929070441675536e-54 0.0000000000000000e+00  3.0177122481303004e-55 6.1510645572699346e-54 0.0000000000000000e+00  -1.2617240795951764e-54 2.0441313885272294e-54 0.0000000000000000e+00  -6.4558070864395373e-55 1.4723043163692776e-53 0.0000000000000000e+00  4.4641307812618641e-54 7.4693552624061177e-54 0.0000000000000000e+00  -4.3476896456959263e-54 8.0955479749471084e-54 0.0000000000000000e+00  1.9221070002485892e-54 3.9570504461000015e-54 0.0000000000000000e+00  -7.3625175117748003e-55 9.4985612254158257e-54 0.0000000000000000e+00  1.3313672344444997e-54 9.3289023322171608e-54 0.0000000000000000e+00  -1.6851931382963496e-54 4.3961482424337883e-54 0.0000000000000000e+00  -9.2522040146418201e-55 2.4045497542620854e-54 0.0000000000000000e+00  3.3322477734274655e-55 1.2996746361097667e-54 0.0000000000000000e+00  2.6577903510617336e-55 2.5376505269069095e-54 0.0000000000000000e+00  -7.8317178914260735e-56 3.4897879700758872e-54 0.0000000000000000e+00  -7.1147240977729924e-55 1.4812831455418923e-54 0.0000000000000000e+00  2.3785396907702616e-55 4.4268197621539164e-55 0.0000000000000000e+00  -2.3103413949164422e-55 6.0225613973462704e-55 0.0000000000000000e+00  5.0351270302072515e-56 2.3982085800261143e-55 0.0000000000000000e+00  1.8670297046572191e-55 9.5248544579133139e-55 0.0000000000000000e+00  -3.3045837501376439e-55 5.3003046958037258e-55 0.0000000000000000e+00  -1.5912748170542456e-56 4.8212318411197613e-56 0.0000000000000000e+00  -1.1352030338543423e-57 1.1332278929160805e-56 0.0000000000000000e+00  6.7555466594738311e-57 2.3554889131034039e-56 0.0000000000000000e+00  -8.9948635180312931e-57 1.5014623044527295e-56 0.0000000000000000e+00  1.7422027268297092e-57 2.8881774646771051e-57 0.0000000000000000e+00  -1.2444822592526732e-57 2.7234751562173678e-57 0.0000000000000000e+00  5.1771541042001122e-57 7.8125201181492813e-57 0.0000000000000000e+00  -4.5335406919044873e-57 1.1247536418922403e-56 0.0000000000000000e+00  -1.8138927482710598e-58 9.3937013537807934e-58 0.0000000000000000e+00  -2.3922163649487577e-58 4.6507307443106252e-58 0.0000000000000000e+00  -7.8777463206995070e-61 8.8102806283187362e-59 0.0000000000000000e+00  -2.4457631796281629e-59 6.4210903553555777e-59 0.0000000000000000e+00  -7.1150000798463912e-60 2.4992599997350662e-59 0.0000000000000000e+00  -4.3842734752409490e-60 2.2383836677007880e-59 0.0000000000000000e+00  -3.0623339852166410e-60 7.1662185203290878e-60 0.0000000000000000e+00  -8.5219345548500616e-62 4.4346953786823126e-61 0.0000000000000000e+00  -1.0756480490047364e-61 2.2334896353756003e-61 0.0000000000000000e+00  -3.5865004451637116e-62 5.6727088596895356e-62 0.0000000000000000e+00  -3.9091100847582092e-64 6.6961591919897009e-64 0.0000000000000000e+00  -2.4307185950110706e-65 5.1699028710578358e-65 0.0000000000000000e+00  3.7074428928268195e-66 1.0388012241719137e-65 0.0000000000000000e+00  -4.8414639015895370e-66 9.2603348458290959e-66 0.0000000000000000e+00  -6.6985929297706451e-68 2.7709198419428839e-67 0.0000000000000000e+00  -7.8522944661216745e-68 1.2916087166454957e-67 0.0000000000000000e+00  -8.0599701118161676e-69 1.1730719117522736e-68 0.0000000000000000e+00  -5.6328122334421184e-70 9.5195073992729665e-70 0.0000000000000000e+00  -3.7791778263966766e-71 6.8182186454520301e-71 0.0000000000000000e+00  -1.8783362680919061e-72 3.2025495295119319e-72 0.0000000000000000e+00  -1.2177104379219865e-73 2.7266819000944334e-73 0.0000000000000000e+00  -4.4210311427464758e-75 1.2911410216910216e-74 0.0000000000000000e+00  -2.5480903620201140e-75 4.2411711324466119e-75 0.0000000000000000e+00  -9.7688528996612795e-76 3.5583580169974739e-76 0.0000000000000000e+00  -1.6211312611917572e-75 -2.3924848710486807e-76 0.0000000000000000e+00  -2.4488630020545246e-74 1.1591331227436475e-74 0.0000000000000000e+00  -3.6791262860045807e-74 1.5504653270570784e-75 0.0000000000000000e+00  -3.8829405762714931e-73 1.4335839771324355e-73 0.0000000000000000e+00  -1.0236723752135304e-71 6.2391694676364552e-72 0.0000000000000000e+00  -6.7401435588828381e-71 3.7090021979216496e-71 0.0000000000000000e+00  -1.0610310865196956e-70 3.9040034655174075e-72 0.0000000000000000e+00  -8.8997605184249871e-70 3.3097849070244456e-70 0.0000000000000000e+00  -2.1282643403351632e-68 1.2868935584532578e-68 0.0000000000000000e+00  -1.0235772404413673e-67 5.1122542969643836e-68 0.0000000000000000e+00  -1.0137761947072168e-67 -6.0289089022346649e-68 0.0000000000000000e+00  -3.1651226483983238e-66 1.7469193103520050e-66 0.0000000000000000e+00  -3.1844760789152658e-65 1.8327411035266123e-65 0.0000000000000000e+00  -5.3856910693325835e-65 5.0489482370514388e-66 0.0000000000000000e+00  -4.4359939100233357e-64 1.4473435456744280e-64 0.0000000000000000e+00  -6.9910530864561968e-63 4.3619132596445268e-63 0.0000000000000000e+00  -1.5062651793757856e-62 3.7511801654739395e-63 0.0000000000000000e+00  -8.4324363136582077e-62 1.9678252716119859e-62 0.0000000000000000e+00  -1.3544806682497320e-60 8.5246482874595416e-61 0.0000000000000000e+00  -2.4167202312909843e-60 3.3847311870346306e-61 0.0000000000000000e+00  -2.1165705530351274e-59 7.4035694114100630e-60 0.0000000000000000e+00  -2.4162138126512362e-58 1.4957832578586548e-58 0.0000000000000000e+00  -2.5881281149459658e-58 -9.4261188203365953e-59 0.0000000000000000e+00  -5.9765485396175774e-57 2.7839605055116784e-57 0.0000000000000000e+00  -2.4828429099137493e-56 1.2401636998338808e-56 0.0000000000000000e+00  -5.5638629403546793e-56 -8.6928823233975165e-57 0.0000000000000000e+00  -1.0109568400209558e-54 6.4848995135841534e-55 0.0000000000000000e+00  -1.1207679637945100e-54 -3.4666153429366512e-55 0.0000000000000000e+00  -2.4073826591778993e-53 1.2702330244132757e-53 0.0000000000000000e+00  -6.5919233912355497e-53 2.9910631779212925e-53 0.0000000000000000e+00  -4.3560371236945914e-52 1.2251096609577785e-52 0.0000000000000000e+00  -2.6652450088781528e-51 1.6639541555723297e-51 0.0000000000000000e+00  -7.6658841118990692e-51 -2.1443271349054089e-52 0.0000000000000000e+00  -7.1955412579441490e-50 4.5990169016377262e-50 0.0000000000000000e+00  -1.6172274163188704e-49 -1.4784718320892519e-50 0.0000000000000000e+00  -1.7293581751580508e-48 1.0104111017308171e-48 0.0000000000000000e+00  -4.3411573918302002e-48 -2.0408032966671232e-49 0.0000000000000000e+00  -2.0136516444934829e-47 1.1100083171752166e-47 0.0000000000000000e+00  -1.1027348904443325e-46 1.8960188693073939e-47 0.0000000000000000e+00  -1.0247493520232398e-46 2.4603289395783488e-47 0.0000000000000000e+00  -1.2407141050262087e-45 5.2532347756556884e-46 0.0000000000000000e+00  -8.7370914158850612e-46 -5.6786711839244512e-46 0.0000000000000000e+00  -1.3431254189076502e-44 8.0700876632385584e-45 0.0000000000000000e+00  -5.7960502786499272e-44 1.3736324820028331e-44 0.0000000000000000e+00  -3.6151869502590616e-44 -1.7511140647635060e-44 0.0000000000000000e+00  -1.1426192998062329e-43 6.4995696307194337e-44 0.0000000000000000e+00  -8.4133710069417015e-43 2.3156389386668296e-43 0.0000000000000000e+00  -1.9291608545639502e-42 1.9750839417748553e-43 0.0000000000000000e+00  -2.5117526249311429e-42 6.1033338669596627e-44 0.0000000000000000e+00  -2.0145364037361111e-42 -1.9475673718539342e-43 0.0000000000000000e+00  -8.6140682171564972e-43 -2.5052151027819595e-43 0.0000000000000000e+00  -1.1325838958850127e-43 -6.4457789568780599e-44 0.0000000000000000e+00  -3.8711439719525536e-44 1.8499961719159939e-44 0.0000000000000000e+00  -6.3168746398342674e-44 -1.0820527883076071e-44 0.0000000000000000e+00  -1.4990900420057996e-44 -7.8660479804020845e-45 0.0000000000000000e+00  -9.9873568968846018e-46 5.6712749613308302e-46 0.0000000000000000e+00  -1.4040881700820052e-45 -5.3853371498456905e-46 0.0000000000000000e+00  -1.1209058459984208e-46 -2.8548409111293432e-47 0.0000000000000000e+00  -1.0182020078419409e-46 -2.1416836289332305e-47 0.0000000000000000e+00  -1.8613323882202735e-47 -1.1969678346603504e-47 0.0000000000000000e+00  -4.0855785211809483e-48 2.0321309669418921e-49 0.0000000000000000e+00  -1.4871028659110852e-48 -9.3558523038258904e-49 0.0000000000000000e+00  -1.6331072961821666e-49 2.4542992193987283e-50 0.0000000000000000e+00  -7.4593971937514036e-50 -4.4183205621913556e-50 0.0000000000000000e+00  -8.2460190509214300e-51 6.4038666565077105e-52 0.0000000000000000e+00  -3.1461518490875872e-51 -1.7824919149850906e-51 0.0000000000000000e+00  -5.1033348090632881e-52 -1.1458706616282384e-52 0.0000000000000000e+00  -8.2073649619923066e-53 -3.5447448232269215e-53 0.0000000000000000e+00  -2.6623872833202483e-53 -1.3148342117036910e-53 0.0000000000000000e+00  -1.1970713615787529e-54 3.2373565382416451e-55 0.0000000000000000e+00  -1.0639511072814496e-54 -6.8008287935871805e-55 0.0000000000000000e+00  -5.1520894248362331e-56 8.3451603193649204e-57 0.0000000000000000e+00  -2.3370430874656741e-56 -1.3230522477241087e-56 0.0000000000000000e+00  -4.8247116406284268e-57 -2.5198744324982016e-57 0.0000000000000000e+00  -2.4584119845784428e-58 8.5413717937621779e-59 0.0000000000000000e+00  -2.1587139698643982e-58 -1.3278269740002524e-58 0.0000000000000000e+00  -1.9912494148135240e-59 -6.1430439818706939e-60 0.0000000000000000e+00  -2.3750205356374787e-60 -3.3942297303424388e-61 0.0000000000000000e+00  -1.2910702899778023e-60 -7.6049451071261561e-61 0.0000000000000000e+00  -7.6913356057243228e-62 -2.1428653285223337e-62 0.0000000000000000e+00  -1.3594563373908657e-62 -2.9291812577080479e-63 0.0000000000000000e+00  -6.6401145884199342e-63 -3.7869435198119280e-63 0.0000000000000000e+00  -4.7834750164844851e-64 -1.8190059242297390e-64 0.0000000000000000e+00  -4.3638389896680160e-65 9.5775784806131795e-67 0.0000000000000000e+00  -2.9484767876598302e-65 -1.6616201995471724e-65 0.0000000000000000e+00  -3.4135795075216254e-66 -1.9882250230528434e-66 0.0000000000000000e+00  -8.9944930220223117e-68 5.4794332659126538e-68 0.0000000000000000e+00  -8.6372141590087763e-68 -4.1767097106099244e-68 0.0000000000000000e+00  -2.0683635140836016e-68 -1.2847581087332105e-68 0.0000000000000000e+00  -1.1327017584677414e-69 -5.1328606377976887e-70 0.0000000000000000e+00  -8.7942592852490030e-71 1.3787474059507437e-71 0.0000000000000000e+00  -6.9085343867883239e-71 -3.6567831690536203e-71 0.0000000000000000e+00  -1.2479678706441073e-71 -7.6615950633737103e-72 0.0000000000000000e+00  -5.9821094680739833e-73 -2.7509049527307923e-73 0.0000000000000000e+00  -3.9237103019680971e-74 7.4230755335387147e-75 0.0000000000000000e+00  -3.1566026247217629e-74 -1.4789605133655923e-74 0.0000000000000000e+00  -6.5907067477910446e-75 -3.3570123878139362e-75 0.0000000000000000e+00  -7.1799201998599725e-76 -3.1071350167186752e-76 0.0000000000000000e+00  -8.5518606193009765e-76 -1.6228527728940168e-75 0.0000000000000000e+00  -4.7735068753771349e-75 -1.3945960553298035e-74 0.0000000000000000e+00  4.3668983124294302e-75 -8.3086863514465589e-75 0.0000000000000000e+00  -1.6293699283334157e-73 -3.4272680702049408e-73 0.0000000000000000e+00  -9.2851419421266519e-71 -1.0069859570052984e-70 0.0000000000000000e+00  -7.5062850652067042e-70 -1.3177439462591600e-69 0.0000000000000000e+00  -1.0984160610220592e-69 -3.6512811761747666e-69 0.0000000000000000e+00  -7.7608581440214169e-68 -1.7114414978012260e-67 0.0000000000000000e+00  -6.5308835600695768e-68 -3.2599746314624916e-67 0.0000000000000000e+00  -6.7896582353085712e-66 -1.3500891801296011e-65 0.0000000000000000e+00  -4.5197228040784683e-66 -2.1316481846046617e-65 0.0000000000000000e+00  -9.0693711641144395e-65 -1.5575884047434335e-64 0.0000000000000000e+00  1.7219518224809451e-65 -2.1035598385691855e-64 0.0000000000000000e+00  -4.2756650736337802e-62 -6.4025373408181184e-62 0.0000000000000000e+00  -6.9986508479662251e-62 -1.7207138618658435e-61 0.0000000000000000e+00  -2.3260438367822652e-62 -2.7286351311032260e-61 0.0000000000000000e+00  -5.7404602337621990e-60 -1.1362541097023043e-59 0.0000000000000000e+00  4.7682283626535580e-60 -1.5020475821852667e-59 0.0000000000000000e+00  -2.9011859632946048e-59 -4.7488252347341658e-59 0.0000000000000000e+00  8.8224517969366468e-60 -6.0861626364410491e-59 0.0000000000000000e+00  2.3258634533692088e-59 -3.9720581487627307e-59 0.0000000000000000e+00  -5.6390280866863211e-58 -8.9471331829437229e-58 0.0000000000000000e+00  -1.3805744983493701e-59 -1.2602374815545350e-57 0.0000000000000000e+00  -4.6349786960354228e-57 -1.1637310751202878e-56 0.0000000000000000e+00  5.7512826784211277e-57 -8.6747949017589038e-57 0.0000000000000000e+00  -5.3357198087505435e-57 -7.3375775324827371e-57 0.0000000000000000e+00  -1.7678206866305541e-56 -3.7732283233427953e-56 0.0000000000000000e+00  2.1627964494779333e-56 -4.0714171467903084e-56 0.0000000000000000e+00  -5.0049351866932049e-57 -9.2001532157226286e-57 0.0000000000000000e+00  -8.1223715354074782e-56 -2.0309345764289088e-55 0.0000000000000000e+00  6.3778098743990822e-56 -5.0770264114679587e-55 0.0000000000000000e+00  -4.2923713879748286e-55 -7.2574653698383123e-55 0.0000000000000000e+00  -4.8823090716244606e-56 -1.8357362515712372e-54 0.0000000000000000e+00  1.6614990775849152e-55 -5.7399176551536967e-55 0.0000000000000000e+00  -5.1861674309307627e-55 -1.6759184323329016e-54 0.0000000000000000e+00  -2.2554735678293684e-54 -7.0715962494432310e-54 0.0000000000000000e+00  2.5845240734741550e-54 -6.0768375050777539e-54 0.0000000000000000e+00  -6.7261553896642125e-55 -2.3896797798609641e-54 0.0000000000000000e+00  5.3301985938961981e-55 -2.8191051107534953e-54 0.0000000000000000e+00  1.2836285885657482e-55 -1.4247953341330276e-54 0.0000000000000000e+00  -2.1824255720052030e-54 -3.4666213215852055e-54 0.0000000000000000e+00  5.7186203093450641e-55 -8.2270167629655688e-54 0.0000000000000000e+00  -3.9345653927513254e-54 -1.3557720887531234e-53 0.0000000000000000e+00  4.6973538751425256e-54 -7.7146403503395117e-54 0.0000000000000000e+00  2.0339204817069057e-55 -6.5060413732659945e-55 0.0000000000000000e+00  -4.8065718359903090e-54 -8.0088946869838537e-54 0.0000000000000000e+00  4.8324908968018976e-54 -7.8696477900067325e-54 0.0000000000000000e+00  -1.6638389578332977e-56 -1.3349890076263078e-55 0.0000000000000000e+00  1.1166714967021433e-56 -2.7680362819888387e-55 0.0000000000000000e+00  2.2095111817124441e-56 -9.8796585844400521e-56 0.0000000000000000e+00  -5.2107647940375295e-54 -9.3537322869491718e-54 0.0000000000000000e+00  5.5577259386260915e-54 -9.4078035251125601e-54 0.0000000000000000e+00  5.6820806799390727e-56 -1.0518679863330044e-55 0.0000000000000000e+00  -1.4347716685611505e-56 -6.2047537889135487e-56 0.0000000000000000e+00  -5.0056233019552549e-55 -9.0465355370372542e-55 0.0000000000000000e+00  -5.8221019382882063e-54 -1.0045921196458002e-53 0.0000000000000000e+00  4.5093995228821213e-54 -1.0491735784846060e-53 0.0000000000000000e+00  -3.0563414299214037e-54 -7.9854005722527745e-54 0.0000000000000000e+00  2.4419487213004672e-54 -8.5498323094302203e-54 0.0000000000000000e+00  2.2492137261770016e-54 -3.3061763508289391e-54 0.0000000000000000e+00  -5.4436831695898870e-55 -1.4798574636297270e-54 0.0000000000000000e+00  8.3668194496197435e-55 -1.5738309096627030e-54 0.0000000000000000e+00  -4.9294108801849216e-55 -9.8325086519168224e-55 0.0000000000000000e+00  5.1308472193712178e-55 -8.8549049434349819e-55 0.0000000000000000e+00  -1.5683754450574336e-56 -2.6920933084616777e-56 0.0000000000000000e+00  -4.4818027688427035e-56 -1.7218359087104530e-55 0.0000000000000000e+00  4.1765915252019989e-56 -1.7467714250702982e-55 0.0000000000000000e+00  4.8063083019631001e-57 -6.9030093977657616e-56 0.0000000000000000e+00  -2.7511710713691885e-56 -6.5428336875388821e-56 0.0000000000000000e+00  3.2907796922756189e-56 -6.4135104569173971e-56 0.0000000000000000e+00  -2.8610015967917239e-57 -2.8733693892176836e-56 0.0000000000000000e+00  1.2969499169111742e-56 -3.0019493528907369e-56 0.0000000000000000e+00  1.0030962532200256e-57 -2.3989958577585424e-57 0.0000000000000000e+00  -4.3854810905608332e-57 -7.6394612009036460e-57 0.0000000000000000e+00  4.2522700627274974e-57 -1.1006551140194414e-56 0.0000000000000000e+00  3.1262814852450422e-58 -1.0212706913328433e-57 0.0000000000000000e+00  1.4386901322878517e-58 -5.026020