<?xml version="1.0"?>
<VTKFile type="UnstructuredGrid"  version="0.1"  >
<UnstructuredGrid>
<Piece  NumberOfPoints="11902" NumberOfCells="23402">
<Points>
<DataArray  type="Float64"  NumberOfComponents="3"  format="ascii">-5 -5 0  5 -5 0  5 5 0  -5 5 0  1.258363902379314 0.001344523330501971 0  -4.9 -5 0  -4.8 -5 0  -4.7 -5 0  -4.6 -5 0  -4.5 -5 0  -4.4 -5 0  -4.3 -5 0  -4.2 -5 0  -4.1 -5 0  -4 -5 0  -3.9 -5 0  -3.8 -5 0  -3.7 -5 0  -3.6 -5 0  -3.5 -5 0  -3.4 -5 0  -3.3 -5 0  -3.2 -5 0  -3.1 -5 0  -3 -5 0  -2.9 -5 0  -2.8 -5 0  -2.7 -5 0  -2.6 -5 0  -2.5 -5 0  -2.4 -5 0  -2.3 -5 0  -2.2 -5 0  -2.1 -5 0  -2 -5 0  -1.9 -5 0  -1.8 -5 0  -1.7 -5 0  -1.6 -5 0  -1.5 -5 0  -1.4 -5 0  -1.3 -5 0  -1.2 -5 0  -1.1 -5 0  -1 -5 0  -0.9000000000000004 -5 0  -0.7999999999999998 -5 0  -0.7000000000000002 -5 0  -0.5999999999999996 -5 0  -0.5 -5 0  -0.4000000000000004 -5 0  -0.2999999999999998 -5 0  -0.2000000000000002 -5 0  -0.09999999999999964 -5 0  0 -5 0  0.09999999999999964 -5 0  0.2000000000000002 -5 0  0.2999999999999998 -5 0  0.4000000000000004 -5 0  0.5 -5 0  0.5999999999999996 -5 0  0.7000000000000002 -5 0  0.7999999999999998 -5 0  0.9000000000000004 -5 0  1 -5 0  1.1 -5 0  1.2 -5 0  1.3 -5 0  1.4 -5 0  1.5 -5 0  1.6 -5 0  1.7 -5 0  1.8 -5 0  1.9 -5 0  2 -5 0  2.1 -5 0  2.2 -5 0  2.3 -5 0  2.4 -5 0  2.5 -5 0  2.6 -5 0  2.7 -5 0  2.8 -5 0  2.9 -5 0  3 -5 0  3.1 -5 0  3.199999999999999 -5 0  3.300000000000001 -5 0  3.4 -5 0  3.5 -5 0  3.6 -5 0  3.699999999999999 -5 0  3.800000000000001 -5 0  3.9 -5 0  4 -5 0  4.1 -5 0  4.199999999999999 -5 0  4.300000000000001 -5 0  4.4 -5 0  4.5 -5 0  4.6 -5 0  4.699999999999999 -5 0  4.800000000000001 -5 0  4.9 -5 0  5 -4.9 0  5 -4.8 0  5 -4.7 0  5 -4.6 0  5 -4.5 0  5 -4.4 0  5 -4.3 0  5 -4.2 0  5 -4.1 0  5 -4 0  5 -3.9 0  5 -3.8 0  5 -3.7 0  5 -3.6 0  5 -3.5 0  5 -3.4 0  5 -3.3 0  5 -3.2 0  5 -3.1 0  5 -3 0  5 -2.9 0  5 -2.8 0  5 -2.7 0  5 -2.6 0  5 -2.5 0  5 -2.4 0  5 -2.3 0  5 -2.2 0  5 -2.1 0  5 -2 0  5 -1.9 0  5 -1.8 0  5 -1.7 0  5 -1.6 0  5 -1.5 0  5 -1.4 0  5 -1.3 0  5 -1.2 0  5 -1.1 0  5 -1 0  5 -0.9000000000000004 0  5 -0.7999999999999998 0  5 -0.7000000000000002 0  5 -0.5999999999999996 0  5 -0.5 0  5 -0.4000000000000004 0  5 -0.2999999999999998 0  5 -0.2000000000000002 0  5 -0.09999999999999964 0  5 0 0  5 0.09999999999999964 0  5 0.2000000000000002 0  5 0.2999999999999998 0  5 0.4000000000000004 0  5 0.5 0  5 0.5999999999999996 0  5 0.7000000000000002 0  5 0.7999999999999998 0  5 0.9000000000000004 0  5 1 0  5 1.1 0  5 1.2 0  5 1.3 0  5 1.4 0  5 1.5 0  5 1.6 0  5 1.7 0  5 1.8 0  5 1.9 0  5 2 0  5 2.1 0  5 2.2 0  5 2.3 0  5 2.4 0  5 2.5 0  5 2.6 0  5 2.7 0  5 2.8 0  5 2.9 0  5 3 0  5 3.1 0  5 3.199999999999999 0  5 3.300000000000001 0  5 3.4 0  5 3.5 0  5 3.6 0  5 3.699999999999999 0  5 3.800000000000001 0  5 3.9 0  5 4 0  5 4.1 0  5 4.199999999999999 0  5 4.300000000000001 0  5 4.4 0  5 4.5 0  5 4.6 0  5 4.699999999999999 0  5 4.800000000000001 0  5 4.9 0  4.9 5 0  4.8 5 0  4.7 5 0  4.6 5 0  4.5 5 0  4.4 5 0  4.3 5 0  4.2 5 0  4.1 5 0  4 5 0  3.9 5 0  3.8 5 0  3.7 5 0  3.6 5 0  3.5 5 0  3.4 5 0  3.3 5 0  3.2 5 0  3.1 5 0  3 5 0  2.9 5 0  2.8 5 0  2.7 5 0  2.6 5 0  2.5 5 0  2.4 5 0  2.3 5 0  2.2 5 0  2.1 5 0  2 5 0  1.9 5 0  1.8 5 0  1.7 5 0  1.6 5 0  1.5 5 0  1.4 5 0  1.3 5 0  1.2 5 0  1.1 5 0  1 5 0  0.9000000000000004 5 0  0.7999999999999998 5 0  0.7000000000000002 5 0  0.5999999999999996 5 0  0.5 5 0  0.4000000000000004 5 0  0.2999999999999998 5 0  0.2000000000000002 5 0  0.09999999999999964 5 0  0 5 0  -0.09999999999999964 5 0  -0.2000000000000002 5 0  -0.2999999999999998 5 0  -0.4000000000000004 5 0  -0.5 5 0  -0.5999999999999996 5 0  -0.7000000000000002 5 0  -0.7999999999999998 5 0  -0.9000000000000004 5 0  -1 5 0  -1.1 5 0  -1.2 5 0  -1.3 5 0  -1.4 5 0  -1.5 5 0  -1.6 5 0  -1.7 5 0  -1.8 5 0  -1.9 5 0  -2 5 0  -2.1 5 0  -2.2 5 0  -2.3 5 0  -2.4 5 0  -2.5 5 0  -2.6 5 0  -2.7 5 0  -2.8 5 0  -2.9 5 0  -3 5 0  -3.1 5 0  -3.199999999999999 5 0  -3.300000000000001 5 0  -3.4 5 0  -3.5 5 0  -3.6 5 0  -3.699999999999999 5 0  -3.800000000000001 5 0  -3.9 5 0  -4 5 0  -4.1 5 0  -4.199999999999999 5 0  -4.300000000000001 5 0  -4.4 5 0  -4.5 5 0  -4.6 5 0  -4.699999999999999 5 0  -4.800000000000001 5 0  -4.9 5 0  -5 4.9 0  -5 4.8 0  -5 4.7 0  -5 4.6 0  -5 4.5 0  -5 4.4 0  -5 4.3 0  -5 4.2 0  -5 4.1 0  -5 4 0  -5 3.9 0  -5 3.8 0  -5 3.7 0  -5 3.6 0  -5 3.5 0  -5 3.4 0  -5 3.3 0  -5 3.2 0  -5 3.1 0  -5 3 0  -5 2.9 0  -5 2.8 0  -5 2.7 0  -5 2.6 0  -5 2.5 0  -5 2.4 0  -5 2.3 0  -5 2.2 0  -5 2.1 0  -5 2 0  -5 1.9 0  -5 1.8 0  -5 1.7 0  -5 1.6 0  -5 1.5 0  -5 1.4 0  -5 1.3 0  -5 1.2 0  -5 1.1 0  -5 1 0  -5 0.9000000000000004 0  -5 0.7999999999999998 0  -5 0.7000000000000002 0  -5 0.5999999999999996 0  -5 0.5 0  -5 0.4000000000000004 0  -5 0.2999999999999998 0  -5 0.2000000000000002 0  -5 0.09999999999999964 0  -5 0 0  -5 -0.09999999999999964 0  -5 -0.2000000000000002 0  -5 -0.2999999999999998 0  -5 -0.4000000000000004 0  -5 -0.5 0  -5 -0.5999999999999996 0  -5 -0.7000000000000002 0  -5 -0.7999999999999998 0  -5 -0.9000000000000004 0  -5 -1 0  -5 -1.1 0  -5 -1.2 0  -5 -1.3 0  -5 -1.4 0  -5 -1.5 0  -5 -1.6 0  -5 -1.7 0  -5 -1.8 0  -5 -1.9 0  -5 -2 0  -5 -2.1 0  -5 -2.2 0  -5 -2.3 0  -5 -2.4 0  -5 -2.5 0  -5 -2.6 0  -5 -2.7 0  -5 -2.8 0  -5 -2.9 0  -5 -3 0  -5 -3.1 0  -5 -3.199999999999999 0  -5 -3.300000000000001 0  -5 -3.4 0  -5 -3.5 0  -5 -3.6 0  -5 -3.699999999999999 0  -5 -3.800000000000001 0  -5 -3.9 0  -5 -4 0  -5 -4.1 0  -5 -4.199999999999999 0  -5 -4.300000000000001 0  -5 -4.4 0  -5 -4.5 0  -5 -4.6 0  -5 -4.699999999999999 0  -5 -4.800000000000001 0  -5 -4.9 0  1.250280683742022 0.09486402097433527 0  1.228644382600522 0.192425659224202 0  1.195229681632563 0.2889250401224872 0  1.152391055062966 0.3776720790381458 0  1.094525480578751 0.468487107978113 0  1.028812849834951 0.5527962692709146 0  0.9505453654945526 0.6327651037616114 0  0.8638159684925087 0.7073613733996758 0  0.7720558290125566 0.7727869087607849 0  0.6697154199660562 0.8301504121114013 0  0.5579858928060464 0.8824261415727004 0  0.4455293608342196 0.9267999999701253 0  0.3331174070627027 0.9590190609373758 0  0.2086985765660748 0.9806092645428258 0  0.08897703529707222 0.9994979367468119 0  -0.02711224107511371 1.002788377322118 0  -0.1448324064247923 0.9890829732138878 0  -0.2719285313513221 0.9701520040708426 0  -0.3911480333683406 0.9458951568054865 0  -0.5018429007144058 0.9098674721498936 0  -0.6111695975486519 0.8634094995639179 0  -0.7133286499042704 0.8087843558665242 0  -0.8079773235928328 0.7439375492125579 0  -0.8989145422828015 0.6705229052920899 0  -0.9843716433744433 0.5908312758838627 0  -1.058553046801483 0.5097339209934517 0  -1.120310056660291 0.4243602271907241 0  -1.173460105469426 0.332098230618359 0  -1.211422019947775 0.2427624264071067 0  -1.235906825658678 0.1485545446302256 0  -1.247014890637855 0.05154257427949606 0  -1.246967397442792 -0.04943314106693077 0  -1.235881630175214 -0.1456768976185065 0  -1.211086012883027 -0.238207750355978 0  -1.169789495123104 -0.3330062324014808 0  -1.120655991110258 -0.424734994327793 0  -1.060225980866533 -0.5095604206373947 0  -0.9867982569315635 -0.5898065182259246 0  -0.9019720824980919 -0.6683770907592883 0  -0.8115199049916498 -0.7399922343340057 0  -0.7155839914281569 -0.8010150958884686 0  -0.6109169616348646 -0.8541109829228493 0  -0.4972107958748453 -0.9035946754965569 0  -0.3843662085703702 -0.9433627435852627 0  -0.2686421357174839 -0.9698320191515327 0  -0.1433603632571545 -0.9888892583655635 0  -0.02790809738577733 -1.001997684406083 0  0.08834004643610616 -0.994768198433611 0  0.2140868312333378 -0.977237664781832 0  0.3356590212364151 -0.9574367287574191 0  0.4496731336126852 -0.9254765870252062 0  0.5603711368491747 -0.8816307638709058 0  0.6706731218770136 -0.8302087545409977 0  0.772015377306313 -0.7739030927073099 0  0.8638919035870131 -0.7083944578584308 0  0.9496427541381562 -0.6328794871638241 0  1.02620525823803 -0.5517920787177777 0  1.095269852604041 -0.4673972482484384 0  1.153230416328833 -0.3780028765763107 0  1.19697871226789 -0.2869351929933419 0  1.229316164624743 -0.1915631353801413 0  1.250627544694462 -0.09462064732745779 0  -2.448556359093972 4.918104953453765 0  -2.448430068613242 -4.910482433700955 0  4.910406484455472 2.447885246440787 0  4.918534192667868 -2.449347653716779 0  2.446158868359147 -4.89571194351982 0  2.440592615477827 4.899475103390129 0  -4.910433576937601 -2.447911694624409 0  -4.910430849474302 2.447915636020267 0  -1.748510242646127 4.910988879244826 0  -1.744297106420455 -4.914430957059051 0  4.920579216293453 1.744060955151202 0  4.909105266385879 -1.747820750898937 0  -4.909399676445489 -1.747555115930641 0  -4.910222433950929 1.747300120663076 0  1.745782704740548 4.904843374113233 0  1.747194992515207 -4.892984353974788 0  -1.148822265730092 4.90876688178302 0  -1.129680620379944 -4.916686795509325 0  -4.909104455632192 -1.147885510726085 0  -4.908922597399749 1.147685956775985 0  1.143818107446391 -4.912868720947869 0  1.148832225263064 4.908753451828202 0  4.909243996881595 1.146160692288957 0  4.920086141863882 -1.151947596521415 0  -0.5466588627768162 -4.909952579636435 0  -0.5464425049197345 4.918644231110704 0  -4.90782666435826 -0.5486849768813588 0  -4.907850622751103 0.5472428327498249 0  4.907144545651431 -0.5490030301641713 0  4.918815311727799 0.5457634419934936 0  0.542440230352696 -4.896818935737313 0  0.5511708930302679 4.915464179084249 0  -4.91186716933973 -3.048271627894191 0  4.918439942949244 3.046289239688384 0  4.911374713621207 -3.048247049075784 0  -4.912715136464109 3.045363407298819 0  3.055283118890624 -4.917362573404481 0  -3.048612635837645 -4.911296679006456 0  3.052180311785531 4.913374999062844 0  -3.048058406847967 4.912186724614703 0  -4.906930889475283 -0.04990541014792293 0  0.04511917481193593 -4.911902128538315 0  0.04956670333547214 4.918935678089438 0  4.913994188563368 -0.05128767480805975 0  3.545605363807109 -4.919012735907383 0  -3.54888464329
[...]
<PointData  Vectors="f_4846"> 
<DataArray  type="Float64"  Name="f_4846"  NumberOfComponents="3" format="ascii">2.6559658580600291e-76 2.6559658580600291e-76 0.0000000000000000e+00  -2.8445085011138821e-76 2.8445085011138821e-76 0.0000000000000000e+00  -8.5659604779172647e-78 -8.5659604779172647e-78 0.0000000000000000e+00  3.0308186857311711e-76 -3.0308186857311711e-76 0.0000000000000000e+00  7.5747756790148379e-01 1.3141285744685330e-02 0.0000000000000000e+00  4.1659494291048240e-75 6.6062170510739769e-75 0.0000000000000000e+00  2.0823643239896152e-75 2.0879986494738349e-74 0.0000000000000000e+00  -3.4059300041804445e-75 6.7716260163893234e-75 0.0000000000000000e+00  4.0003870463460576e-72 6.6679118944892890e-72 0.0000000000000000e+00  5.3172862288218834e-71 1.3457925813709259e-70 0.0000000000000000e+00  -7.9206818510343711e-72 4.5552968664826933e-71 0.0000000000000000e+00  3.2347053655976399e-69 6.1620898085231620e-69 0.0000000000000000e+00  5.1621226730248265e-68 9.3983879377000981e-68 0.0000000000000000e+00  -3.0653039128398458e-68 1.5000919217716703e-67 0.0000000000000000e+00  1.2769954162335239e-67 3.9815711366046723e-67 0.0000000000000000e+00  1.2633046790709697e-68 8.7790623731651666e-67 0.0000000000000000e+00  5.4529021571612582e-64 8.8224111613308896e-64 0.0000000000000000e+00  4.7445292651533128e-65 2.4418635615796676e-63 0.0000000000000000e+00  1.3495147552434963e-62 2.1988413015542525e-62 0.0000000000000000e+00  8.0680286947944766e-63 8.3180259830510262e-62 0.0000000000000000e+00  6.9332970201222794e-61 1.1022086156380604e-60 0.0000000000000000e+00  4.0635098380823549e-60 7.0061924200417848e-60 0.0000000000000000e+00  -2.8478488967354846e-60 7.6993636111897025e-60 0.0000000000000000e+00  5.6639029384224703e-59 1.1367335697747186e-58 0.0000000000000000e+00  -1.7593608248137342e-59 1.1646606822998979e-58 0.0000000000000000e+00  -3.0042134402813401e-59 6.8387755514669494e-59 0.0000000000000000e+00  1.8027618561247067e-58 3.3040576800186748e-58 0.0000000000000000e+00  7.3006837893453973e-58 2.0893596918073783e-57 0.0000000000000000e+00  2.8613174895497414e-57 6.2326318726573287e-57 0.0000000000000000e+00  -3.4081303468202219e-57 5.7383800859915677e-57 0.0000000000000000e+00  -3.5233104935556014e-58 1.0978268737004983e-57 0.0000000000000000e+00  1.9090532055624915e-56 2.9317938188803411e-56 0.0000000000000000e+00  -1.4138802134308640e-56 3.5310160408008464e-56 0.0000000000000000e+00  1.1916321827831549e-56 2.8933121367927627e-56 0.0000000000000000e+00  8.7397681238139990e-56 2.0974664916678208e-55 0.0000000000000000e+00  -2.5115531269712249e-56 5.7434291210015012e-55 0.0000000000000000e+00  5.2115463643524791e-57 8.6118726208557388e-57 0.0000000000000000e+00  5.5459430374236850e-56 1.3816214509605449e-55 0.0000000000000000e+00  1.5492855580326356e-55 6.1693006050649299e-55 0.0000000000000000e+00  -2.2368293547571270e-55 3.5166380363998824e-55 0.0000000000000000e+00  9.8386774190635009e-55 1.7227768947826372e-54 0.0000000000000000e+00  -4.4216599473061735e-55 4.3615099785490911e-54 0.0000000000000000e+00  -2.2833070705238738e-55 2.6820318130760992e-54 0.0000000000000000e+00  -9.6207597261335553e-56 9.4397720213515737e-55 0.0000000000000000e+00  -1.1314125620213318e-55 1.8222912497033178e-55 0.0000000000000000e+00  2.7607194465658601e-54 5.2329446915037812e-54 0.0000000000000000e+00  -2.1605319312016698e-54 4.1393151820315738e-54 0.0000000000000000e+00  -7.1943388246607689e-55 8.0816990366846338e-55 0.0000000000000000e+00  -1.3208956042135483e-55 2.7132861147455475e-55 0.0000000000000000e+00  9.3061612547040650e-55 1.4450301108893821e-54 0.0000000000000000e+00  9.4580525488991357e-55 6.1543031882589501e-54 0.0000000000000000e+00  -1.1289129818641542e-54 5.8988357697433643e-54 0.0000000000000000e+00  5.1487334671887343e-55 4.6479766390996442e-54 0.0000000000000000e+00  1.9088771077454649e-56 5.7928900420629685e-54 0.0000000000000000e+00  3.0185698227313334e-55 6.1510469656571231e-54 0.0000000000000000e+00  -1.2620826488097748e-54 2.0441226344025351e-54 0.0000000000000000e+00  -6.4575325738262706e-55 1.4722968278561397e-53 0.0000000000000000e+00  4.4653908630956759e-54 7.4694338765390402e-54 0.0000000000000000e+00  -4.3489055480759114e-54 8.0954358640319758e-54 0.0000000000000000e+00  1.9226415611439026e-54 3.9571073105436591e-54 0.0000000000000000e+00  -7.3643833030270315e-55 9.4985066635289990e-54 0.0000000000000000e+00  1.3317443161274150e-54 9.3289346690593642e-54 0.0000000000000000e+00  -1.6856427367253053e-54 4.3960673314998343e-54 0.0000000000000000e+00  -9.2545897205318297e-55 2.4044961409440005e-54 0.0000000000000000e+00  3.3331359412446608e-55 1.2996911268047009e-54 0.0000000000000000e+00  2.6585218653621038e-55 2.5376621830386188e-54 0.0000000000000000e+00  -7.8327070138000614e-56 3.4897761049430966e-54 0.0000000000000000e+00  -7.1164128775067448e-55 1.4812317477286329e-54 0.0000000000000000e+00  2.3791041137649286e-55 4.4269915703812901e-55 0.0000000000000000e+00  -2.3108542379104876e-55 6.0223780086160162e-55 0.0000000000000000e+00  5.0363064536297312e-56 2.3982461677988381e-55 0.0000000000000000e+00  1.8674599897887306e-55 9.5249977917918836e-55 0.0000000000000000e+00  -3.3052612632093709e-55 5.3000265242724542e-55 0.0000000000000000e+00  -1.5915791728243407e-56 4.8210938333503265e-56 0.0000000000000000e+00  -1.1353850534766042e-57 1.1332176281979987e-56 0.0000000000000000e+00  6.7568699714841399e-57 2.3555472064049753e-56 0.0000000000000000e+00  -8.9964232096180222e-57 1.5013835380999859e-56 0.0000000000000000e+00  1.7425046232343470e-57 2.8883300127462991e-57 0.0000000000000000e+00  -1.2446827381159742e-57 2.7233668252740781e-57 0.0000000000000000e+00  5.1779649269854548e-57 7.8129687175806641e-57 0.0000000000000000e+00  -4.5341736439179822e-57 1.1247155021992821e-56 0.0000000000000000e+00  -1.8141454369606612e-58 9.3935491600546693e-58 0.0000000000000000e+00  -2.3925287166020415e-58 4.6505349013570327e-58 0.0000000000000000e+00  -7.8787262695675710e-61 8.8102743145095448e-59 0.0000000000000000e+00  -2.4460491405912099e-59 6.4209001092893165e-59 0.0000000000000000e+00  -7.1157810973383318e-60 2.4992064910634076e-59 0.0000000000000000e+00  -4.3846629479983144e-60 2.2383544707803977e-59 0.0000000000000000e+00  -3.0626132101853785e-60 7.1660127599344550e-60 0.0000000000000000e+00  -8.5227026418146807e-62 4.4346386515156581e-61 0.0000000000000000e+00  -1.0757371643135996e-61 2.2334221024136366e-61 0.0000000000000000e+00  -3.5867648630405559e-62 5.6725021151052407e-62 0.0000000000000000e+00  -3.9093819777637207e-64 6.6959439873148792e-64 0.0000000000000000e+00  -2.4308676471550223e-65 5.1697818992551544e-65 0.0000000000000000e+00  3.7076843214605416e-66 1.0388206236762414e-65 0.0000000000000000e+00  -4.8417034560725868e-66 9.2601341601514719e-66 0.0000000000000000e+00  -6.6989110468592797e-68 2.7708930938641730e-67 0.0000000000000000e+00  -7.8526156518144851e-68 1.2915813070712258e-67 0.0000000000000000e+00  -8.0602530425162172e-69 1.1730474849638545e-68 0.0000000000000000e+00  -5.6329801209154947e-70 9.5193611567490696e-70 0.0000000000000000e+00  -3.7792694617582402e-71 6.8181381709434965e-71 0.0000000000000000e+00  -1.8783720545563486e-72 3.2025179052927711e-72 0.0000000000000000e+00  -1.2177241695798706e-73 2.7266696664139006e-73 0.0000000000000000e+00  -4.4210748834300170e-75 1.2911371281489796e-74 0.0000000000000000e+00  -2.5481025252868048e-75 4.2411602810786995e-75 0.0000000000000000e+00  -9.7688323088982801e-76 3.5583764121117479e-76 0.0000000000000000e+00  -1.6211364341307291e-75 -2.3925313560951637e-76 0.0000000000000000e+00  -2.4488473816293684e-74 1.1591471356669197e-74 0.0000000000000000e+00  -3.6791231582928087e-74 1.5504935741598220e-75 0.0000000000000000e+00  -3.8829109614719362e-73 1.4336106712917634e-73 0.0000000000000000e+00  -1.0236543273800473e-71 6.2393344148163431e-72 0.0000000000000000e+00  -6.7400148834962055e-71 3.7091210699956133e-71 0.0000000000000000e+00  -1.0610294935417936e-70 3.9041526233168852e-72 0.0000000000000000e+00  -8.8996258879921421e-70 3.3099105886136183e-70 0.0000000000000000e+00  -2.1282011816880683e-68 1.2869539837881245e-68 0.0000000000000000e+00  -1.0235492455704204e-67 5.1125269293627314e-68 0.0000000000000000e+00  -1.0138134771875127e-67 -6.0292811280728665e-68 0.0000000000000000e+00  -3.1650133287042372e-66 1.7470287033734197e-66 0.0000000000000000e+00  -3.1843502071409690e-65 1.8328703330736432e-65 0.0000000000000000e+00  -5.3856535161214965e-65 5.0493441159794309e-66 0.0000000000000000e+00  -4.4358870068444196e-64 1.4474555509100042e-64 0.0000000000000000e+00  -6.9906958922181367e-63 4.3623049227051336e-63 0.0000000000000000e+00  -1.5062325189579495e-62 3.7515498662655860e-63 0.0000000000000000e+00  -8.4322699598998648e-62 1.9680088584770517e-62 0.0000000000000000e+00  -1.3544005701767943e-60 8.5255999087024257e-61 0.0000000000000000e+00  -2.4166868334625947e-60 3.3851441751801464e-61 0.0000000000000000e+00  -2.1164976112949533e-59 7.4044660262332883e-60 0.0000000000000000e+00  -2.4160580083164067e-58 1.4959869030686267e-58 0.0000000000000000e+00  -2.5882299399841306e-58 -9.4275188238234160e-59 0.0000000000000000e+00  -5.9762460910679419e-57 2.7843792993473224e-57 0.0000000000000000e+00  -2.4827043006955053e-56 1.2403671478932072e-56 0.0000000000000000e+00  -5.5639650475278510e-56 -8.6946355638985401e-57 0.0000000000000000e+00  -1.0108826220668401e-54 6.4860729042107665e-55 0.0000000000000000e+00  -1.1208079984765664e-54 -3.4672927573234867e-55 0.0000000000000000e+00  -2.4072357288649913e-53 1.2704839975997773e-53 0.0000000000000000e+00  -6.5915785357647271e-53 2.9916997913628372e-53 0.0000000000000000e+00  -4.3558948140691153e-52 1.2253655319853577e-52 0.0000000000000000e+00  -2.6650566387234541e-51 1.6643393004328390e-51 0.0000000000000000e+00  -7.6658995205535438e-51 -2.1451824729990951e-52 0.0000000000000000e+00  -7.1950407902701459e-50 4.6001692465578865e-50 0.0000000000000000e+00  -1.6172403018409980e-49 -1.4789256969908773e-50 0.0000000000000000e+00  -1.7292550547373412e-48 1.0106829249452817e-48 0.0000000000000000e+00  -4.3411682802604548e-48 -2.0415311157635800e-49 0.0000000000000000e+00  -2.0135493090327527e-47 1.1103274472891622e-47 0.0000000000000000e+00  -1.1027158117907838e-46 1.8965456463598763e-47 0.0000000000000000e+00  -1.0247302131071830e-46 2.4610824755593925e-47 0.0000000000000000e+00  -1.2406731769632792e-45 5.2548459654797687e-46 0.0000000000000000e+00  -8.7374343844924954e-46 -5.6804983979007430e-46 0.0000000000000000e+00  -1.3430772973456757e-44 8.0726895678417244e-45 0.0000000000000000e+00  -5.7959645907577888e-44 1.3740748709960880e-44 0.0000000000000000e+00  -3.6152423764010796e-44 -1.7517037296012215e-44 0.0000000000000000e+00  -1.1425980876064574e-43 6.5017551973381434e-44 0.0000000000000000e+00  -8.4132954339996292e-43 2.3164196684231931e-43 0.0000000000000000e+00  -1.9291512059425206e-42 1.9757502541805996e-43 0.0000000000000000e+00  -2.5117423391975710e-42 6.1054198304695474e-44 0.0000000000000000e+00  -2.0145266255058766e-42 -1.9482245109779647e-43 0.0000000000000000e+00  -8.6139888938262614e-43 -2.5060607070962308e-43 0.0000000000000000e+00  -1.1325627267146943e-43 -6.4479473088101866e-44 0.0000000000000000e+00  -3.8712033238866426e-44 1.8506192036776617e-44 0.0000000000000000e+00  -6.3168022180317339e-44 -1.0823990828352110e-44 0.0000000000000000e+00  -1.4990427882033745e-44 -7.8685844951705774e-45 0.0000000000000000e+00  -9.9877021076316756e-46 5.6730999149459226e-46 0.0000000000000000e+00  -1.4040461146813792e-45 -5.3869906259239703e-46 0.0000000000000000e+00  -1.1208833245676122e-46 -2.8557134708712503e-47 0.0000000000000000e+00  -1.0181811123085755e-46 -2.1422886056086963e-47 0.0000000000000000e+00  -1.8612218877188285e-47 -1.1973127729004754e-47 0.0000000000000000e+00  -4.0855889222861898e-48 2.0328646253299857e-49 0.0000000000000000e+00  -1.4870071964472547e-48 -9.3583752306059906e-49 0.0000000000000000e+00  -1.6331304107189328e-49 2.4550120329256712e-50 0.0000000000000000e+00  -7.4589149522221970e-50 -4.4194288131668383e-50 0.0000000000000000e+00  -8.2460819806813124e-51 6.4057549108303478e-52 0.0000000000000000e+00  -3.1459496022466092e-51 -1.7829055141365781e-51 0.0000000000000000e+00  -5.1032011108069517e-52 -1.1461083099150567e-52 0.0000000000000000e+00  -8.2069552297150565e-53 -3.5455001464794439e-53 0.0000000000000000e+00  -2.6622348166655805e-53 -1.3150947079751884e-53 0.0000000000000000e+00  -1.1971088383714506e-54 3.2379896480288378e-55 0.0000000000000000e+00  -1.0638730893682914e-54 -6.8020607467191923e-55 0.0000000000000000e+00  -5.1521876059429770e-56 8.3468399662071593e-57 0.0000000000000000e+00  -2.3368949030777600e-56 -1.3232694144125046e-56 0.0000000000000000e+00  -4.8244371815055543e-57 -2.5202543343825725e-57 0.0000000000000000e+00  -2.4585045152020104e-58 8.5426444130023657e-59 0.0000000000000000e+00  -2.1585751932145343e-58 -1.3280086270669673e-58 0.0000000000000000e+00  -1.9911889100934282e-59 -6.1437858610626935e-60 0.0000000000000000e+00  -2.3749869694790522e-60 -3.3946449425005919e-61 0.0000000000000000e+00  -1.2909986319018024e-60 -7.6057972864811350e-61 0.0000000000000000e+00  -7.6911510027906259e-62 -2.1430716168378204e-62 0.0000000000000000e+00  -1.3594306866830003e-62 -2.9294723724511505e-63 0.0000000000000000e+00  -6.6398030846069691e-63 -3.7872857767143423e-63 0.0000000000000000e+00  -4.7833381645185081e-64 -1.8191505021542375e-64 0.0000000000000000e+00  -4.3638461492498259e-65 9.5783347427977222e-67 0.0000000000000000e+00  -2.9483622704985707e-65 -1.6617379372791380e-65 0.0000000000000000e+00  -3.4134543014124122e-66 -1.9883505873810748e-66 0.0000000000000000e+00  -8.9948359768854556e-68 5.4797767847668595e-68 0.0000000000000000e+00  -8.6369846727308690e-68 -4.1769335177512635e-68 0.0000000000000000e+00  -2.0683002479705330e-68 -1.2848187259278571e-68 0.0000000000000000e+00  -1.1326802750932637e-69 -5.1330622149646770e-70 0.0000000000000000e+00  -8.7943160650945856e-71 1.3788006817882165e-71 0.0000000000000000e+00  -6.9084071414090763e-71 -3.6569008995495261e-71 0.0000000000000000e+00  -1.2479455953710905e-71 -7.6617989887700584e-72 0.0000000000000000e+00  -5.9820490110393213e-73 -2.7509596742090104e-73 0.0000000000000000e+00  -3.9237259723771124e-74 7.4232174108090181e-75 0.0000000000000000e+00  -3.1565809636662816e-74 -1.4789799984127869e-74 0.0000000000000000e+00  -6.5906770606171740e-75 -3.3570389893560491e-75 0.0000000000000000e+00  -7.1799119176456959e-76 -3.1071424170385420e-76 0.0000000000000000e+00  -8.5518933650382781e-76 -1.6228498459221568e-75 0.0000000000000000e+00  -4.7735281995349380e-75 -1.3945941399423291e-74 0.0000000000000000e+00  4.3669738150140398e-75 -8.3087533059785576e-75 0.0000000000000000e+00  -1.6293991970536192e-73 -3.4272421280235469e-73 0.0000000000000000e+00  -9.2853732604915996e-71 -1.0069656033974227e-70 0.0000000000000000e+00  -7.5065154496173678e-70 -1.3177238708619690e-69 0.0000000000000000e+00  -1.0984555541761936e-69 -3.6512470781356401e-69 0.0000000000000000e+00  -7.7611712054784778e-68 -1.7114146994113635e-67 0.0000000000000000e+00  -6.5311909168425304e-68 -3.2599487101937892e-67 0.0000000000000000e+00  -6.7899947219952255e-66 -1.3500609383836096e-65 0.0000000000000000e+00  -4.5199897252711220e-66 -2.1316263464929173e-65 0.0000000000000000e+00  -9.0699489788171269e-65 -1.5575417406930953e-64 0.0000000000000000e+00  1.7220751195554782e-65 -2.1035695616644804e-64 0.0000000000000000e+00  -4.2759827526424438e-62 -6.4022887615046213e-62 0.0000000000000000e+00  -6.9992345887369341e-62 -1.7206695749282188e-61 0.0000000000000000e+00  -2.3262542969288548e-62 -2.7286195555963578e-61 0.0000000000000000e+00  -5.7409925133557273e-60 -1.1362150007624897e-59 0.0000000000000000e+00  4.7687652227056731e-60 -1.5020841948353302e-59 0.0000000000000000e+00  -2.9015007638669674e-59 -4.7486075662729395e-59 0.0000000000000000e+00  8.8234972872990082e-60 -6.0862320311961544e-59 0.0000000000000000e+00  2.3261635569103246e-59 -3.9722486021167042e-59 0.0000000000000000e+00  -5.6397563370734967e-58 -8.9466712441582218e-58 0.0000000000000000e+00  -1.3807675788292688e-59 -1.2602363154874940e-57 0.0000000000000000e+00  -4.6356265373886061e-57 -1.1636918606403487e-56 0.0000000000000000e+00  5.7521929623264593e-57 -8.6752973342244547e-57 0.0000000000000000e+00  -5.3365728446373349e-57 -7.3371105582616199e-57 0.0000000000000000e+00  -1.7681194108281944e-56 -3.7730726777451218e-56 0.0000000000000000e+00  2.1631875066918462e-56 -4.0716075405083919e-56 0.0000000000000000e+00  -5.0058479684959571e-57 -9.1997130186684010e-57 0.0000000000000000e+00  -8.1238884337290475e-56 -2.0308633168526711e-55 0.0000000000000000e+00  6.3792902589716659e-56 -5.0770775894401164e-55 0.0000000000000000e+00  -4.2932551676710632e-55 -7.2571013184664000e-55 0.0000000000000000e+00  -4.8828400949188264e-56 -1.8357306587539257e-54 0.0000000000000000e+00  1.6618685654871754e-55 -5.7400506365971775e-55 0.0000000000000000e+00  -5.1872949459586503e-55 -1.6758757122567355e-54 0.0000000000000000e+00  -2.2559844531848963e-54 -7.0714183842485214e-54 0.0000000000000000e+00  2.5851630300923313e-54 -6.0770121345163244e-54 0.0000000000000000e+00  -6.7277604975332277e-55 -2.3896305123553309e-54 0.0000000000000000e+00  5.3316171020050664e-55 -2.8191331455915641e-54 0.0000000000000000e+00  1.2839933644874112e-55 -1.4247997809702395e-54 0.0000000000000000e+00  -2.1829979491824351e-54 -3.4665018853237834e-54 0.0000000000000000e+00  5.7203244056773857e-55 -8.2270226374226982e-54 0.0000000000000000e+00  -3.9356128557289003e-54 -1.3557519449669733e-53 0.0000000000000000e+00  4.6986514009092475e-54 -7.7148076595086725e-54 0.0000000000000000e+00  2.0344934703969771e-55 -6.5060902311445264e-55 0.0000000000000000e+00  -4.8079166440176675e-54 -8.0087599166656891e-54 0.0000000000000000e+00  4.8338603291337153e-54 -7.8697277141597099e-54 0.0000000000000000e+00  -1.6643115379869458e-56 -1.3349868395843751e-55 0.0000000000000000e+00  1.1169955152648486e-56 -2.7680298025004509e-55 0.0000000000000000e+00  2.2101411466207613e-56 -9.8796577384784133e-56 0.0000000000000000e+00  -5.2122501331218294e-54 -9.3537514549580752e-54 0.0000000000000000e+00  5.5593009849042995e-54 -9.4077167364416994e-54 0.0000000000000000e+00  5.6836828503108056e-56 -1.0518561093506626e-55 0.0000000000000000e+00  -1.4351793750590294e-56 -6.2047758571025073e-56 0.0000000000000000e+00  -5.0070191614263358e-55 -9.0466825536434269e-55 0.0000000000000000e+00  -5.8237066414668072e-54 -1.0046130377972051e-53 0.0000000000000000e+00  4.5106203757484899e-54 -1.0491538529909907e-53 0.0000000000000000e+00  -3.0571588469606560e-54 -7.9855475602281897e-54 0.0000000000000000e+00  2.4425902819912629e-54 -8.5497016049732865e-54 0.0000000000000000e+00  2.2497920170797624e-54 -3.3060434597913062e-54 0.0000000000000000e+00  -5.4450649959445936e-55 -1.4798911181675774e-54 0.0000000000000000e+00  8.3688514896464364e-55 -1.5737725489798020e-54 0.0000000000000000e+00  -4.9306192811985539e-55 -9.8328454665679434e-55 0.0000000000000000e+00  5.1320306099663196e-55 -8.8545135673989405e-55 0.0000000000000000e+00  -1.5687350802776232e-56 -2.6922138014837176e-56 0.0000000000000000e+00  -4.4828444191949681e-56 -1.7218699927462833e-55 0.0000000000000000e+00  4.1774305100471704e-56 -1.7467353989504299e-55 0.0000000000000000e+00  4.8070868699324476e-57 -6.9029639092407483e-56 0.0000000000000000e+00  -2.7517222700339593e-56 -6.5430693518360956e-56 0.0000000000000000e+00  3.2914054911565724e-56 -6.4132235828145719e-56 0.0000000000000000e+00  -2.8615297536694155e-57 -2.8733944754222012e-56 0.0000000000000000e+00  1.2971700014943546e-56 -3.0018350368907978e-56 0.0000000000000000e+00  1.0032592968772781e-57 -2.3989078292521532e-57 0.0000000000000000e+00  -4.3862016190364422e-57 -7.6398461573296643e-57 0.0000000000000000e+00  4.2528921793791912e-57 -1.1006185930691381e-56 0.0000000000000000e+00  3.1267366020416785e-58 -1.0212439320450697e-57 0.0000000000000000e+00  1.4388885351919577e-58 -5.025899