<?xml version="1.0"?>
<VTKFile type="UnstructuredGrid"  version="0.1"  >
<UnstructuredGrid>
<Piece  NumberOfPoints="11902" NumberOfCells="23402">
<Points>
<DataArray  type="Float64"  NumberOfComponents="3"  format="ascii">-5 -5 0  5 -5 0  5 5 0  -5 5 0  1.186036810345479 0.001221421096662017 0  -4.9 -5 0  -4.8 -5 0  -4.7 -5 0  -4.6 -5 0  -4.5 -5 0  -4.4 -5 0  -4.3 -5 0  -4.2 -5 0  -4.1 -5 0  -4 -5 0  -3.9 -5 0  -3.8 -5 0  -3.7 -5 0  -3.6 -5 0  -3.5 -5 0  -3.4 -5 0  -3.3 -5 0  -3.2 -5 0  -3.1 -5 0  -3 -5 0  -2.9 -5 0  -2.8 -5 0  -2.7 -5 0  -2.6 -5 0  -2.5 -5 0  -2.4 -5 0  -2.3 -5 0  -2.2 -5 0  -2.1 -5 0  -2 -5 0  -1.9 -5 0  -1.8 -5 0  -1.7 -5 0  -1.6 -5 0  -1.5 -5 0  -1.4 -5 0  -1.3 -5 0  -1.2 -5 0  -1.1 -5 0  -1 -5 0  -0.9000000000000004 -5 0  -0.7999999999999998 -5 0  -0.7000000000000002 -5 0  -0.5999999999999996 -5 0  -0.5 -5 0  -0.4000000000000004 -5 0  -0.2999999999999998 -5 0  -0.2000000000000002 -5 0  -0.09999999999999964 -5 0  0 -5 0  0.09999999999999964 -5 0  0.2000000000000002 -5 0  0.2999999999999998 -5 0  0.4000000000000004 -5 0  0.5 -5 0  0.5999999999999996 -5 0  0.7000000000000002 -5 0  0.7999999999999998 -5 0  0.9000000000000004 -5 0  1 -5 0  1.1 -5 0  1.2 -5 0  1.3 -5 0  1.4 -5 0  1.5 -5 0  1.6 -5 0  1.7 -5 0  1.8 -5 0  1.9 -5 0  2 -5 0  2.1 -5 0  2.2 -5 0  2.3 -5 0  2.4 -5 0  2.5 -5 0  2.6 -5 0  2.7 -5 0  2.8 -5 0  2.9 -5 0  3 -5 0  3.1 -5 0  3.199999999999999 -5 0  3.300000000000001 -5 0  3.4 -5 0  3.5 -5 0  3.6 -5 0  3.699999999999999 -5 0  3.800000000000001 -5 0  3.9 -5 0  4 -5 0  4.1 -5 0  4.199999999999999 -5 0  4.300000000000001 -5 0  4.4 -5 0  4.5 -5 0  4.6 -5 0  4.699999999999999 -5 0  4.800000000000001 -5 0  4.9 -5 0  5 -4.9 0  5 -4.8 0  5 -4.7 0  5 -4.6 0  5 -4.5 0  5 -4.4 0  5 -4.3 0  5 -4.2 0  5 -4.1 0  5 -4 0  5 -3.9 0  5 -3.8 0  5 -3.7 0  5 -3.6 0  5 -3.5 0  5 -3.4 0  5 -3.3 0  5 -3.2 0  5 -3.1 0  5 -3 0  5 -2.9 0  5 -2.8 0  5 -2.7 0  5 -2.6 0  5 -2.5 0  5 -2.4 0  5 -2.3 0  5 -2.2 0  5 -2.1 0  5 -2 0  5 -1.9 0  5 -1.8 0  5 -1.7 0  5 -1.6 0  5 -1.5 0  5 -1.4 0  5 -1.3 0  5 -1.2 0  5 -1.1 0  5 -1 0  5 -0.9000000000000004 0  5 -0.7999999999999998 0  5 -0.7000000000000002 0  5 -0.5999999999999996 0  5 -0.5 0  5 -0.4000000000000004 0  5 -0.2999999999999998 0  5 -0.2000000000000002 0  5 -0.09999999999999964 0  5 0 0  5 0.09999999999999964 0  5 0.2000000000000002 0  5 0.2999999999999998 0  5 0.4000000000000004 0  5 0.5 0  5 0.5999999999999996 0  5 0.7000000000000002 0  5 0.7999999999999998 0  5 0.9000000000000004 0  5 1 0  5 1.1 0  5 1.2 0  5 1.3 0  5 1.4 0  5 1.5 0  5 1.6 0  5 1.7 0  5 1.8 0  5 1.9 0  5 2 0  5 2.1 0  5 2.2 0  5 2.3 0  5 2.4 0  5 2.5 0  5 2.6 0  5 2.7 0  5 2.8 0  5 2.9 0  5 3 0  5 3.1 0  5 3.199999999999999 0  5 3.300000000000001 0  5 3.4 0  5 3.5 0  5 3.6 0  5 3.699999999999999 0  5 3.800000000000001 0  5 3.9 0  5 4 0  5 4.1 0  5 4.199999999999999 0  5 4.300000000000001 0  5 4.4 0  5 4.5 0  5 4.6 0  5 4.699999999999999 0  5 4.800000000000001 0  5 4.9 0  4.9 5 0  4.8 5 0  4.7 5 0  4.6 5 0  4.5 5 0  4.4 5 0  4.3 5 0  4.2 5 0  4.1 5 0  4 5 0  3.9 5 0  3.8 5 0  3.7 5 0  3.6 5 0  3.5 5 0  3.4 5 0  3.3 5 0  3.2 5 0  3.1 5 0  3 5 0  2.9 5 0  2.8 5 0  2.7 5 0  2.6 5 0  2.5 5 0  2.4 5 0  2.3 5 0  2.2 5 0  2.1 5 0  2 5 0  1.9 5 0  1.8 5 0  1.7 5 0  1.6 5 0  1.5 5 0  1.4 5 0  1.3 5 0  1.2 5 0  1.1 5 0  1 5 0  0.9000000000000004 5 0  0.7999999999999998 5 0  0.7000000000000002 5 0  0.5999999999999996 5 0  0.5 5 0  0.4000000000000004 5 0  0.2999999999999998 5 0  0.2000000000000002 5 0  0.09999999999999964 5 0  0 5 0  -0.09999999999999964 5 0  -0.2000000000000002 5 0  -0.2999999999999998 5 0  -0.4000000000000004 5 0  -0.5 5 0  -0.5999999999999996 5 0  -0.7000000000000002 5 0  -0.7999999999999998 5 0  -0.9000000000000004 5 0  -1 5 0  -1.1 5 0  -1.2 5 0  -1.3 5 0  -1.4 5 0  -1.5 5 0  -1.6 5 0  -1.7 5 0  -1.8 5 0  -1.9 5 0  -2 5 0  -2.1 5 0  -2.2 5 0  -2.3 5 0  -2.4 5 0  -2.5 5 0  -2.6 5 0  -2.7 5 0  -2.8 5 0  -2.9 5 0  -3 5 0  -3.1 5 0  -3.199999999999999 5 0  -3.300000000000001 5 0  -3.4 5 0  -3.5 5 0  -3.6 5 0  -3.699999999999999 5 0  -3.800000000000001 5 0  -3.9 5 0  -4 5 0  -4.1 5 0  -4.199999999999999 5 0  -4.300000000000001 5 0  -4.4 5 0  -4.5 5 0  -4.6 5 0  -4.699999999999999 5 0  -4.800000000000001 5 0  -4.9 5 0  -5 4.9 0  -5 4.8 0  -5 4.7 0  -5 4.6 0  -5 4.5 0  -5 4.4 0  -5 4.3 0  -5 4.2 0  -5 4.1 0  -5 4 0  -5 3.9 0  -5 3.8 0  -5 3.7 0  -5 3.6 0  -5 3.5 0  -5 3.4 0  -5 3.3 0  -5 3.2 0  -5 3.1 0  -5 3 0  -5 2.9 0  -5 2.8 0  -5 2.7 0  -5 2.6 0  -5 2.5 0  -5 2.4 0  -5 2.3 0  -5 2.2 0  -5 2.1 0  -5 2 0  -5 1.9 0  -5 1.8 0  -5 1.7 0  -5 1.6 0  -5 1.5 0  -5 1.4 0  -5 1.3 0  -5 1.2 0  -5 1.1 0  -5 1 0  -5 0.9000000000000004 0  -5 0.7999999999999998 0  -5 0.7000000000000002 0  -5 0.5999999999999996 0  -5 0.5 0  -5 0.4000000000000004 0  -5 0.2999999999999998 0  -5 0.2000000000000002 0  -5 0.09999999999999964 0  -5 0 0  -5 -0.09999999999999964 0  -5 -0.2000000000000002 0  -5 -0.2999999999999998 0  -5 -0.4000000000000004 0  -5 -0.5 0  -5 -0.5999999999999996 0  -5 -0.7000000000000002 0  -5 -0.7999999999999998 0  -5 -0.9000000000000004 0  -5 -1 0  -5 -1.1 0  -5 -1.2 0  -5 -1.3 0  -5 -1.4 0  -5 -1.5 0  -5 -1.6 0  -5 -1.7 0  -5 -1.8 0  -5 -1.9 0  -5 -2 0  -5 -2.1 0  -5 -2.2 0  -5 -2.3 0  -5 -2.4 0  -5 -2.5 0  -5 -2.6 0  -5 -2.7 0  -5 -2.8 0  -5 -2.9 0  -5 -3 0  -5 -3.1 0  -5 -3.199999999999999 0  -5 -3.300000000000001 0  -5 -3.4 0  -5 -3.5 0  -5 -3.6 0  -5 -3.699999999999999 0  -5 -3.800000000000001 0  -5 -3.9 0  -5 -4 0  -5 -4.1 0  -5 -4.199999999999999 0  -5 -4.300000000000001 0  -5 -4.4 0  -5 -4.5 0  -5 -4.6 0  -5 -4.699999999999999 0  -5 -4.800000000000001 0  -5 -4.9 0  1.18019974590992 0.09945931021490913 0  1.161814300825984 0.1979004261635025 0  1.130951395911354 0.2953017008847283 0  1.090909557534426 0.3871889784343926 0  1.038961713341912 0.4779471827715416 0  0.9776321747489727 0.5631711476254044 0  0.9055589508067807 0.6429380775767959 0  0.8241651841834251 0.7157373727394608 0  0.7357159177687695 0.7815434565595195 0  0.6394024362077342 0.8401654153591869 0  0.536043473661824 0.8907706059655616 0  0.4282521597562655 0.9325250868119901 0  0.3180092326037936 0.9652927446535313 0  0.2026624828383171 0.9876965763232813 0  0.08796006282742845 1.001826132691001 0  -0.02764978286022347 1.004554218652198 0  -0.1433338246105217 0.9952604403892208 0  -0.2596477844969989 0.9777282710608306 0  -0.3729913740685849 0.9513618126085706 0  -0.4815358610490702 0.9147910658311214 0  -0.5852050330814103 0.8693148664127833 0  -0.6838076870097431 0.8145901664578462 0  -0.7754276282976652 0.7518416358642146 0  -0.8602958876266363 0.6815519145288818 0  -0.9376745267633627 0.6035744840303513 0  -1.004892486481247 0.5209714345901345 0  -1.062784826752252 0.4338520312176337 0  -1.109441701821306 0.3415632248507608 0  -1.144463952047856 0.2471234042234088 0  -1.168086796524625 0.1501992626600649 0  -1.180084144107912 0.05082474192189702 0  -1.180089656519675 -0.04918730031282036 0  -1.168055438852614 -0.148266333899368 0  -1.14545041145438 -0.2452002477908369 0  -1.10905113302678 -0.341143774808299 0  -1.063158617653906 -0.4325927754122839 0  -1.005813223174443 -0.5200080819724794 0  -0.939044439738425 -0.602193065493676 0  -0.8618995538517746 -0.6790676113652008 0  -0.7765636003156441 -0.7485034490748197 0  -0.6837859512901308 -0.8098788170125414 0  -0.5854824846197599 -0.8643248070346877 0  -0.4790631156424894 -0.9108066716966451 0  -0.3701125233567813 -0.9486950754002307 0  -0.2570010757137243 -0.9762895810903374 0  -0.1419432630005415 -0.9942845129594151 0  -0.02711450724382512 -1.003735876567338 0  0.08857248716184811 -0.9996568668168335 0  0.2052258008854986 -0.9855743816731614 0  0.3194435356426722 -0.9636462944295359 0  0.4314152567126291 -0.9311142818819345 0  0.5375612021637958 -0.8897940146863937 0  0.6400840480927897 -0.839669890691618 0  0.7359102640016707 -0.7824356897286444 0  0.8242527021012716 -0.7163876902362173 0  0.9050869561178829 -0.6423610838220891 0  0.9763387260128514 -0.5624875667870309 0  1.038869288107683 -0.4774193402118279 0  1.091968407619023 -0.3872749446931634 0  1.132304364965947 -0.2939978753316122 0  1.16202952044131 -0.1971086932236259 0  1.180213080908594 -0.09901055115512244 0  -2.448838701180024 4.918623895019787 0  -2.448737626908249 -4.911048485918931 0  4.910985520698997 2.448290677876363 0  4.919059724886708 -2.449716287866677 0  2.446516733926133 -4.896376785207464 0  2.44093874769001 4.900118193450818 0  -4.911008079107465 -2.448312811937172 0  -4.911006619267829 2.448316637603226 0  -1.748802809699663 4.911738186787822 0  -1.744577097925195 -4.915150421546977 0  4.92131146292921 1.744428266672484 0  4.909941404678252 -1.748241743873334 0  -4.910226788767874 -1.74797001375331 0  -4.911043447942008 1.747710636121622 0  1.746093512294131 4.905648556878653 0  1.747543295756271 -4.893888364276942 0  -1.149055556788257 4.909676084061702 0  -1.129890423766673 -4.917518209712207 0  -4.910140804642117 -1.148227193172629 0  -4.909962205059244 1.148027215578578 0  1.144036409582426 -4.913738866502865 0  1.149062939407005 4.909665317211504 0  4.910288608792523 1.146505000855605 0  4.92100386796594 -1.152252071160418 0  -0.5467805301022759 -4.91094160769798 0  -0.546552327338349 4.919540231121876 0  -4.909031510231249 -0.5488750224843113 0  -4.909056040187341 0.5474309131323458 0  4.908369235660679 -0.5491965979373616 0  4.919886646415804 0.5459312298129625 0  0.5425736978075277 -4.897955050423957 0  0.5512829297073515 4.916395997066028 0  -4.912254452655374 -3.048602881629093 0  4.918801276616709 3.046599118064853 0  4.911766297769773 -3.048583563628463 0  -4.913100454157219 3.045691960746324 0  3.0555345217358 -4.91774200016546 0  -3.048882895492152 -4.91170239093785 0  3.052444782379812 4.91377373466059 0  -3.048326929391243 4.912589228680217 0  -4.908198810716354 -0.04992431866094602 0  0.04512678955638453 -4.912899113583411 0  0.04957524686799315 4.919855303658776 0  4.915176399796903 -0.05130535919950475 0  3.545804259561829 -4.91927792516061 0  -3.549100874073341 4
[...]
<PointData  Vectors="f_2038"> 
<DataArray  type="Float64"  Name="f_2038"  NumberOfComponents="3" format="ascii">2.6559658580599131e-76 2.6559658580599131e-76 0.0000000000000000e+00  -2.8445085011137803e-76 2.8445085011137803e-76 0.0000000000000000e+00  -8.5659604779011347e-78 -8.5659604779011347e-78 0.0000000000000000e+00  3.0308186857308495e-76 -3.0308186857308495e-76 0.0000000000000000e+00  -4.4242733019158453e-01 -8.6029600861269647e-03 0.0000000000000000e+00  4.1651627106058720e-75 6.6069112390545920e-75 0.0000000000000000e+00  2.0831379707314415e-75 2.0879315307256397e-74 0.0000000000000000e+00  -3.4036412396394276e-75 6.7696209169488207e-75 0.0000000000000000e+00  3.9974947162729188e-72 6.6704436163311969e-72 0.0000000000000000e+00  5.3131485000230488e-71 1.3461567466332017e-70 0.0000000000000000e+00  -7.9103307400111688e-72 4.5544091671842551e-71 0.0000000000000000e+00  3.2302075696168656e-69 6.1659338040121988e-69 0.0000000000000000e+00  5.1536551931555141e-68 9.4055350310475787e-68 0.0000000000000000e+00  -3.0582535295567538e-68 1.4995173075516580e-67 0.0000000000000000e+00  1.2745341719700428e-67 3.9836188025260155e-67 0.0000000000000000e+00  1.2704383105297281e-68 8.7786216244532022e-67 0.0000000000000000e+00  5.4392201023572171e-64 8.8333558153173037e-64 0.0000000000000000e+00  4.7571036408374899e-65 2.4418114776853297e-63 0.0000000000000000e+00  1.3454244873451802e-62 2.2019840706138639e-62 0.0000000000000000e+00  8.0502165075796693e-63 8.3195594928787337e-62 0.0000000000000000e+00  6.9087926078510537e-61 1.1040124803775521e-60 0.0000000000000000e+00  4.0479250940743051e-60 7.0173536768095574e-60 0.0000000000000000e+00  -2.8359640917171558e-60 7.6911241723495455e-60 0.0000000000000000e+00  5.6399188519299883e-59 1.1383879163031176e-58 0.0000000000000000e+00  -1.7509839786524956e-59 1.1641138007748613e-58 0.0000000000000000e+00  -2.9890390584397823e-59 6.8291736321254181e-59 0.0000000000000000e+00  1.7933650866056082e-58 3.3098975567593149e-58 0.0000000000000000e+00  7.2624645074365454e-58 2.0917356147460003e-57 0.0000000000000000e+00  2.8446974035544438e-57 6.2422651537026266e-57 0.0000000000000000e+00  -3.3869613120512605e-57 5.7267153546437749e-57 0.0000000000000000e+00  -3.5004017360142225e-58 1.0966115077720100e-57 0.0000000000000000e+00  1.8963321201919441e-56 2.9383944347083871e-56 0.0000000000000000e+00  -1.4035848435749074e-56 3.5261340463750656e-56 0.0000000000000000e+00  1.1830887104831275e-56 2.8974333937270066e-56 0.0000000000000000e+00  8.6752867537257497e-56 2.1004834921512434e-55 0.0000000000000000e+00  -2.4815468072807658e-56 5.7427765499107969e-55 0.0000000000000000e+00  5.1688768653664193e-57 8.6292043277414613e-57 0.0000000000000000e+00  5.5000316256287957e-56 1.3834576056400320e-55 0.0000000000000000e+00  1.5363469035826804e-55 6.1744285198662922e-55 0.0000000000000000e+00  -2.2163042130774633e-55 3.5099375869284606e-55 0.0000000000000000e+00  9.7482607244198421e-55 1.7257198639107440e-54 0.0000000000000000e+00  -4.3734875797578028e-55 4.3606246930629293e-54 0.0000000000000000e+00  -2.2581481892586610e-55 2.6816272701336223e-54 0.0000000000000000e+00  -9.5176963736661395e-56 9.4379246045710543e-55 0.0000000000000000e+00  -1.1197344428651054e-55 1.8197729402890531e-55 0.0000000000000000e+00  2.7322067027020834e-54 5.2390754429215763e-54 0.0000000000000000e+00  -2.1375841231722484e-54 4.1352136521620364e-54 0.0000000000000000e+00  -7.1168055667170648e-55 8.0694495256497631e-55 0.0000000000000000e+00  -1.3063505629935143e-55 2.7115656509458551e-55 0.0000000000000000e+00  9.2038605310491327e-55 1.4462688808766135e-54 0.0000000000000000e+00  9.3551636943505380e-55 6.1559050392558029e-54 0.0000000000000000e+00  -1.1160778733725195e-54 5.8986124296872122e-54 0.0000000000000000e+00  5.0916859556755576e-55 4.6487671885953864e-54 0.0000000000000000e+00  1.8936282406113750e-56 5.7935516315855940e-54 0.0000000000000000e+00  2.9844715599660760e-55 6.1517296529010968e-54 0.0000000000000000e+00  -1.2478174587604144e-54 2.0444711869207450e-54 0.0000000000000000e+00  -6.3887144990774135e-55 1.4725888117579411e-53 0.0000000000000000e+00  4.4152475413537606e-54 7.4663446125663086e-54 0.0000000000000000e+00  -4.3005061124077671e-54 8.0998297621616985e-54 0.0000000000000000e+00  1.9013597073552963e-54 3.9548798131116480e-54 0.0000000000000000e+00  -7.2899034992050759e-55 9.5006402262894931e-54 0.0000000000000000e+00  1.3167384688913292e-54 9.3276683877550239e-54 0.0000000000000000e+00  -1.6677232830345942e-54 4.3992340912792660e-54 0.0000000000000000e+00  -9.1594220395293056e-55 2.4065952058333030e-54 0.0000000000000000e+00  3.2977344760888414e-55 1.2990457890717034e-54 0.0000000000000000e+00  2.6293831616593505e-55 2.5372066556778174e-54 0.0000000000000000e+00  -7.7923764193719659e-56 3.4902430182813839e-54 0.0000000000000000e+00  -7.0489218158968715e-55 1.4832474819963953e-54 0.0000000000000000e+00  2.3565473173619095e-55 4.4202532759259989e-55 0.0000000000000000e+00  -2.2903311482297052e-55 6.0295801822503478e-55 0.0000000000000000e+00  4.9891557066895326e-56 2.3967717204597650e-55 0.0000000000000000e+00  1.8502515859076873e-55 9.5193735302055562e-55 0.0000000000000000e+00  -3.2781099684372644e-55 5.3109685664584928e-55 0.0000000000000000e+00  -1.5793677870062151e-56 4.8265293095540840e-56 0.0000000000000000e+00  -1.1280601036570394e-57 1.1336229730153057e-56 0.0000000000000000e+00  6.7037951742796381e-57 2.3532522399773909e-56 0.0000000000000000e+00  -8.9337566696146735e-57 1.5044909633215850e-56 0.0000000000000000e+00  1.7303746755146935e-57 2.8823116322649960e-57 0.0000000000000000e+00  -1.2366199999885903e-57 2.7276452512560135e-57 0.0000000000000000e+00  5.1453444334638295e-57 7.7952438374856695e-57 0.0000000000000000e+00  -4.5086748887812364e-57 1.1262247528077175e-56 0.0000000000000000e+00  -1.8039658406339039e-58 9.3995718169840169e-58 0.0000000000000000e+00  -2.3799372722416846e-58 4.6582907818184898e-58 0.0000000000000000e+00  -7.8392022040345775e-61 8.8105244106590853e-59 0.0000000000000000e+00  -2.4345101941209550e-59 6.4284430365827681e-59 0.0000000000000000e+00  -7.0842495770473036e-60 2.5013292842495770e-59 0.0000000000000000e+00  -4.3689138010182367e-60 2.2395148410503870e-59 0.0000000000000000e+00  -3.0513255305110792e-60 7.1741879487900669e-60 0.0000000000000000e+00  -8.4916514198763578e-62 4.4368926422168872e-61 0.0000000000000000e+00  -1.0721327929104682e-61 2.2361069342427645e-61 0.0000000000000000e+00  -3.5760640906744789e-62 5.6807268463622529e-62 0.0000000000000000e+00  -3.8983758726802389e-64 6.7045077683382908e-64 0.0000000000000000e+00  -2.4248310362520846e-65 5.1745985642783834e-65 0.0000000000000000e+00  3.6979083933134400e-66 1.0380483810086449e-65 0.0000000000000000e+00  -4.8319952715919035e-66 9.2681305939104755e-66 0.0000000000000000e+00  -6.6860179559694142e-68 2.7719589883429357e-67 0.0000000000000000e+00  -7.8395938773488388e-68 1.2926739675791546e-67 0.0000000000000000e+00  -8.0487792662608933e-69 1.1740215220562507e-68 0.0000000000000000e+00  -5.6261701403227808e-70 9.5251941889524266e-70 0.0000000000000000e+00  -3.7755516263701248e-71 6.8213487829581105e-71 0.0000000000000000e+00  -1.8769198588832509e-72 3.2037798368894990e-72 0.0000000000000000e+00  -1.2171667858334344e-73 2.7271579893482770e-73 0.0000000000000000e+00  -4.4192994245346994e-75 1.2912925413418414e-74 0.0000000000000000e+00  -2.5476087421942519e-75 4.2415934835498168e-75 0.0000000000000000e+00  -9.7696682091099612e-76 3.5576420562865127e-76 0.0000000000000000e+00  -1.6209264461951987e-75 -2.3906756919305219e-76 0.0000000000000000e+00  -2.4494814714045770e-74 1.1585877469851369e-74 0.0000000000000000e+00  -3.6792501160119079e-74 1.5493660103783335e-75 0.0000000000000000e+00  -3.8841130607345352e-73 1.4325451050370556e-73 0.0000000000000000e+00  -1.0243869050280125e-71 6.2327499280993586e-72 0.0000000000000000e+00  -6.7452380567173884e-71 3.7043755982812079e-71 0.0000000000000000e+00  -1.0610941586155952e-70 3.8981976246113598e-72 0.0000000000000000e+00  -8.9050909469768727e-70 3.3048930000300636e-70 0.0000000000000000e+00  -2.1307652969662968e-68 1.2845411734027640e-68 0.0000000000000000e+00  -1.0246858919999369e-67 5.1016390570611559e-68 0.0000000000000000e+00  -1.0122995139246225e-67 -6.0144128116929428e-68 0.0000000000000000e+00  -3.1694526295014024e-66 1.7426589932710551e-66 0.0000000000000000e+00  -3.1894625064335916e-65 1.8277070788535162e-65 0.0000000000000000e+00  -5.3871790068383196e-65 5.0335234349979568e-66 0.0000000000000000e+00  -4.4402294981137059e-64 1.4429796584394491e-64 0.0000000000000000e+00  -7.0052096029250037e-63 4.3466473699284834e-63 0.0000000000000000e+00  -1.5075598778651107e-62 3.7367661386901932e-63 0.0000000000000000e+00  -8.4390297606584277e-62 1.9606691168370403e-62 0.0000000000000000e+00  -1.3576568887774458e-60 8.4875304267731732e-61 0.0000000000000000e+00  -2.4180449494575426e-60 3.3686170456424143e-61 0.0000000000000000e+00  -2.1194636830527999e-59 7.3685866325049816e-60 0.0000000000000000e+00  -2.4223959719884993e-58 1.4878337558391447e-58 0.0000000000000000e+00  -2.5840865014301374e-58 -9.3714460123728259e-59 0.0000000000000000e+00  -5.9885538171680905e-57 2.7676049002525160e-57 0.0000000000000000e+00  -2.4883466951729846e-56 1.2322148982004170e-56 0.0000000000000000e+00  -5.5598048393987860e-56 -8.6243142860131741e-57 0.0000000000000000e+00  -1.0139050637289088e-54 6.4390321453786885e-55 0.0000000000000000e+00  -1.1191770569338184e-54 -3.4401245091112107e-55 0.0000000000000000e+00  -2.4132217220687978e-53 1.2604179668590020e-53 0.0000000000000000e+00  -6.6056333175691851e-53 2.9661560549105714e-53 0.0000000000000000e+00  -4.3616941643825595e-52 1.2151001274806879e-52 0.0000000000000000e+00  -2.6727373450692224e-51 1.6488783118996978e-51 0.0000000000000000e+00  -7.6652670473978460e-51 -2.1107590712741240e-52 0.0000000000000000e+00  -7.2154574006263191e-50 4.5538891485011724e-50 0.0000000000000000e+00  -1.6167136329941746e-49 -1.4606766478337593e-50 0.0000000000000000e+00  -1.7334641175115578e-48 9.9976145802960261e-49 0.0000000000000000e+00  -4.3407214842656379e-48 -2.0122440534091089e-49 0.0000000000000000e+00  -2.0177290401601160e-47 1.0975002180083659e-47 0.0000000000000000e+00  -1.1034947540088013e-46 1.8753768076395578e-47 0.0000000000000000e+00  -1.0255126444095698e-46 2.4307834623601248e-47 0.0000000000000000e+00  -1.2423464132598508e-45 5.1900611654670448e-46 0.0000000000000000e+00  -8.7233938100086442e-46 -5.6070067684731175e-46 0.0000000000000000e+00  -1.3450474682267221e-44 7.9680382196600926e-45 0.0000000000000000e+00  -5.7994721317490453e-44 1.3562816968738390e-44 0.0000000000000000e+00  -3.6129624831806662e-44 -1.7279808999019864e-44 0.0000000000000000e+00  -1.1434703679235499e-43 6.4138282739476117e-44 0.0000000000000000e+00  -8.4164032380873653e-43 2.2850098152588215e-43 0.0000000000000000e+00  -1.9295468137394283e-42 1.9489430399470471e-43 0.0000000000000000e+00  -2.5121622757985233e-42 6.0214817112754520e-44 0.0000000000000000e+00  -2.0149227695866070e-42 -1.9217889147894225e-43 0.0000000000000000e+00  -8.6171912375834957e-43 -2.4720427882822419e-43 0.0000000000000000e+00  -1.1334176409452567e-43 -6.3607184224533175e-44 0.0000000000000000e+00  -3.8688069286003242e-44 1.8255555616214615e-44 0.0000000000000000e+00  -6.3197407092220826e-44 -1.0684733202447279e-44 0.0000000000000000e+00  -1.5009590937241027e-44 -7.7665760037435496e-45 0.0000000000000000e+00  -9.9737017354355407e-46 5.5997086302761161e-46 0.0000000000000000e+00  -1.4057534866884563e-45 -5.3205173321429040e-46 0.0000000000000000e+00  -1.1217976819038805e-46 -2.8206358161031035e-47 0.0000000000000000e+00  -1.0190299817947200e-46 -2.1179816438001968e-47 0.0000000000000000e+00  -1.8657102054347754e-47 -1.1834516635180869e-47 0.0000000000000000e+00  -4.0851671325414528e-48 2.0033434723115562e-49 0.0000000000000000e+00  -1.4908938308788597e-48 -9.2570392133021805e-49 0.0000000000000000e+00  -1.6321914330361882e-49 2.4263675038344695e-50 0.0000000000000000e+00  -7.4785070443062697e-50 -4.3749364055234296e-50 0.0000000000000000e+00  -8.2435250218688337e-51 6.3298745017998484e-52 0.0000000000000000e+00  -3.1541658608539410e-51 -1.7663095470339951e-51 0.0000000000000000e+00  -5.1086318081055585e-52 -1.1365797242067551e-52 0.0000000000000000e+00  -8.2235985415389091e-53 -3.5152091235249742e-53 0.0000000000000000e+00  -2.6684271955832038e-53 -1.3046528658686086e-53 0.0000000000000000e+00  -1.1955867761425312e-54 3.2126138168429776e-55 0.0000000000000000e+00  -1.0670411585920713e-54 -6.7527061549054885e-55 0.0000000000000000e+00  -5.1481998040506525e-56 8.2795113286642211e-57 0.0000000000000000e+00  -2.3429109111008393e-56 -1.3145742985132676e-56 0.0000000000000000e+00  -4.8355776051472371e-57 -2.5050507904374579e-57 0.0000000000000000e+00  -2.4547487516170405e-58 8.4917174861595712e-59 0.0000000000000000e+00  -2.1642070197155549e-58 -1.3207425707685165e-58 0.0000000000000000e+00  -1.9936436879838391e-59 -6.1141291942820458e-60 0.0000000000000000e+00  -2.3763488406687822e-60 -3.3780454649152488e-61 0.0000000000000000e+00  -1.2939054947467882e-60 -7.5717421943926058e-61 0.0000000000000000e+00  -7.6986374276981561e-62 -2.1348333404822818e-62 0.0000000000000000e+00  -1.3604710025692187e-62 -2.9178444523932870e-63 0.0000000000000000e+00  -6.6524348963881188e-63 -3.7736197485296360e-63 0.0000000000000000e+00  -4.7888866463648260e-64 -1.8133800933710200e-64 0.0000000000000000e+00  -4.3635558743000788e-65 9.5481507703748562e-67 0.0000000000000000e+00  -2.9530046091450924e-65 -1.6570401930438409e-65 0.0000000000000000e+00  -3.4185293565745016e-66 -1.9833419586830864e-66 0.0000000000000000e+00  -8.9809348473198009e-68 5.4660743508968293e-68 0.0000000000000000e+00  -8.6462855055415607e-68 -4.1680087368026107e-68 0.0000000000000000e+00  -2.0708641847656984e-68 -1.2824019327482045e-68 0.0000000000000000e+00  -1.1335508580075071e-69 -5.1250270392708827e-70 0.0000000000000000e+00  -8.7920151327533340e-71 1.3766770140825436e-71 0.0000000000000000e+00  -6.9135634626960540e-71 -3.6522085292032471e-71 0.0000000000000000e+00  -1.2488482433367289e-71 -7.6536717955342067e-72 0.0000000000000000e+00  -5.9844989303751304e-73 -2.7487789400886230e-73 0.0000000000000000e+00  -3.9230909520142075e-74 7.4175633446216113e-75 0.0000000000000000e+00  -3.1574587888346681e-74 -1.4782034811807231e-74 0.0000000000000000e+00  -6.5918802225841002e-75 -3.3559788291780988e-75 0.0000000000000000e+00  -7.1802476237311393e-76 -3.1068474564930593e-76 0.0000000000000000e+00  -8.5505661503772269e-76 -1.6229665018456376e-75 0.0000000000000000e+00  -4.7726637903415273e-75 -1.3946704918233264e-74 0.0000000000000000e+00  4.3639147371540542e-75 -8.3060859150514217e-75 0.0000000000000000e+00  -1.6282133595538815e-73 -3.4282756135458141e-73 0.0000000000000000e+00  -9.2760037621593389e-71 -1.0077761952018793e-70 0.0000000000000000e+00  -7.4971856100446039e-70 -1.3185231711820477e-69 0.0000000000000000e+00  -1.0968565532775262e-69 -3.6526043060368905e-69 0.0000000000000000e+00  -7.7484981625759041e-68 -1.7124811228365121e-67 0.0000000000000000e+00  -6.5187529384160018e-68 -3.2609797789106390e-67 0.0000000000000000e+00  -6.7763792465041105e-66 -1.3511841581242872e-65 0.0000000000000000e+00  -4.5091944390785327e-66 -2.1324942972482559e-65 0.0000000000000000e+00  -9.0465857393453104e-65 -1.5593957615827954e-64 0.0000000000000000e+00  1.7170919603028501e-65 -2.1031834890481951e-64 0.0000000000000000e+00  -4.2631453366839963e-62 -6.4121570223240742e-62 0.0000000000000000e+00  -6.9756579930807914e-62 -1.7224263754244780e-61 0.0000000000000000e+00  -2.3177576910184042e-62 -2.7292370342904180e-61 0.0000000000000000e+00  -5.7195061774793888e-60 -1.1377651606149030e-59 0.0000000000000000e+00  4.7471206207766524e-60 -1.5006356180225692e-59 0.0000000000000000e+00  -2.8888061405914958e-59 -4.7572225840612743e-59 0.0000000000000000e+00  8.7813650602547618e-60 -6.0834881766483331e-59 0.0000000000000000e+00  2.3140780786828882e-59 -3.9647260607087830e-59 0.0000000000000000e+00  -5.6104291591384674e-58 -8.9649167206373595e-58 0.0000000000000000e+00  -1.3729978704940941e-59 -1.2602823198879525e-57 0.0000000000000000e+00  -4.6095558319287684e-57 -1.1652390348696001e-56 0.0000000000000000e+00  5.7156100260862186e-57 -8.6555148215401641e-57 0.0000000000000000e+00  -5.3022944659078433e-57 -7.3554934565195118e-57 0.0000000000000000e+00  -1.7561232660031911e-56 -3.7791933846484184e-56 0.0000000000000000e+00  2.1474970332519376e-56 -4.0641309102499938e-56 0.0000000000000000e+00  -4.9692285715529068e-57 -9.2169952130484381e-57 0.0000000000000000e+00  -8.0630517063569525e-56 -2.0336595267037922e-55 0.0000000000000000e+00  6.3201015771665539e-56 -5.0750820027136012e-55 0.0000000000000000e+00  -4.2578617169217992e-55 -7.2713508041726782e-55 0.0000000000000000e+00  -4.8612530186818343e-56 -1.8359517299719086e-54 0.0000000000000000e+00  1.6470902695547376e-55 -5.7348578473487809e-55 0.0000000000000000e+00  -5.1421790918942545e-55 -1.6775451053086809e-54 0.0000000000000000e+00  -2.2355566491461612e-54 -7.0783592148443668e-54 0.0000000000000000e+00  2.5596564254794554e-54 -6.0702223994457692e-54 0.0000000000000000e+00  -6.6636411141201735e-55 -2.3915491610348011e-54 0.0000000000000000e+00  5.2750749267017595e-55 -2.8180483994300681e-54 0.0000000000000000e+00  1.2694724906884587e-55 -1.4246293155760071e-54 0.0000000000000000e+00  -2.1601769494307652e-54 -3.4711287109347874e-54 0.0000000000000000e+00  5.6525599890022488e-55 -8.2268085493071024e-54 0.0000000000000000e+00  -3.8938628287743325e-54 -1.3565312996796871e-53 0.0000000000000000e+00  4.6469767481100228e-54 -7.7083698078447524e-54 0.0000000000000000e+00  2.0116839868206532e-55 -6.5042244213166315e-55 0.0000000000000000e+00  -4.7543744167114842e-54 -8.0139238412690773e-54 0.0000000000000000e+00  4.7793534266901938e-54 -7.8667038219911348e-54 0.0000000000000000e+00  -1.6455026117836237e-56 -1.3350681850302089e-55 0.0000000000000000e+00  1.1041048521706545e-56 -2.7682841441402032e-55 0.0000000000000000e+00  2.1850701118529999e-56 -9.8797310185577005e-56 0.0000000000000000e+00  -5.1531366675175305e-54 -9.3529095915257469e-54 0.0000000000000000e+00  5.4966075858799713e-54 -9.4111965630783037e-54 0.0000000000000000e+00  5.6199015528205694e-56 -1.0523287773686006e-55 0.0000000000000000e+00  -1.4189519487965270e-56 -6.2038906921291763e-56 0.0000000000000000e+00  -4.9514356909058491e-55 -9.0408678017553816e-55 0.0000000000000000e+00  -5.7597889777093259e-54 -1.0037879112311247e-53 0.0000000000000000e+00  4.4619714204178281e-54 -1.0499303902685613e-53 0.0000000000000000e+00  -3.0245769479233445e-54 -7.9797651787906931e-54 0.0000000000000000e+00  2.4170076189611419e-54 -8.5548402177699570e-54 0.0000000000000000e+00  2.2267213155207062e-54 -3.3112661450933191e-54 0.0000000000000000e+00  -5.3899223537490264e-55 -1.4785685483569224e-54 0.0000000000000000e+00  8.2876864882992811e-55 -1.5760660215186044e-54 0.0000000000000000e+00  -4.8823617545294016e-55 -9.8196096732248746e-55 0.0000000000000000e+00  5.0847151461125370e-55 -8.8699012258584064e-55 0.0000000000000000e+00  -1.5543539761156326e-56 -2.6874749285586237e-56 0.0000000000000000e+00  -4.4412005245618089e-56 -1.7205300158441785e-55 0.0000000000000000e+00  4.1438019233659508e-56 -1.7481542526442129e-55 0.0000000000000000e+00  4.7757535866633878e-57 -6.9047596628962689e-56 0.0000000000000000e+00  -2.7296295839805068e-56 -6.5337865508879198e-56 0.0000000000000000e+00  3.2663029082115776e-56 -6.4245309210639987e-56 0.0000000000000000e+00  -2.8403367685121514e-57 -2.8724048644933852e-56 0.0000000000000000e+00  1.2883273807395408e-56 -3.0063479872118699e-56 0.0000000000000000e+00  9.9670489131390394e-58 -2.4023849435745332e-57 0.0000000000000000e+00  -4.3572405157084559e-57 -7.6246423774554456e-57 0.0000000000000000e+00  4.2278521438630322e-57 -1.1020629850395085e-56 0.0000000000000000e+00  3.1084178742751953e-58 -1.0223023064839920e-57 0.0000000000000000e+00  1.4308981952211092e-58 -5.0306