<?xml version="1.0"?>
<VTKFile type="UnstructuredGrid"  version="0.1"  >
<UnstructuredGrid>
<Piece  NumberOfPoints="11902" NumberOfCells="23402">
<Points>
<DataArray  type="Float64"  NumberOfComponents="3"  format="ascii">-5 -5 0  5 -5 0  5 5 0  -5 5 0  1.243965896209419 0.001376714555304842 0  -4.9 -5 0  -4.8 -5 0  -4.7 -5 0  -4.6 -5 0  -4.5 -5 0  -4.4 -5 0  -4.3 -5 0  -4.2 -5 0  -4.1 -5 0  -4 -5 0  -3.9 -5 0  -3.8 -5 0  -3.7 -5 0  -3.6 -5 0  -3.5 -5 0  -3.4 -5 0  -3.3 -5 0  -3.2 -5 0  -3.1 -5 0  -3 -5 0  -2.9 -5 0  -2.8 -5 0  -2.7 -5 0  -2.6 -5 0  -2.5 -5 0  -2.4 -5 0  -2.3 -5 0  -2.2 -5 0  -2.1 -5 0  -2 -5 0  -1.9 -5 0  -1.8 -5 0  -1.7 -5 0  -1.6 -5 0  -1.5 -5 0  -1.4 -5 0  -1.3 -5 0  -1.2 -5 0  -1.1 -5 0  -1 -5 0  -0.9000000000000004 -5 0  -0.7999999999999998 -5 0  -0.7000000000000002 -5 0  -0.5999999999999996 -5 0  -0.5 -5 0  -0.4000000000000004 -5 0  -0.2999999999999998 -5 0  -0.2000000000000002 -5 0  -0.09999999999999964 -5 0  0 -5 0  0.09999999999999964 -5 0  0.2000000000000002 -5 0  0.2999999999999998 -5 0  0.4000000000000004 -5 0  0.5 -5 0  0.5999999999999996 -5 0  0.7000000000000002 -5 0  0.7999999999999998 -5 0  0.9000000000000004 -5 0  1 -5 0  1.1 -5 0  1.2 -5 0  1.3 -5 0  1.4 -5 0  1.5 -5 0  1.6 -5 0  1.7 -5 0  1.8 -5 0  1.9 -5 0  2 -5 0  2.1 -5 0  2.2 -5 0  2.3 -5 0  2.4 -5 0  2.5 -5 0  2.6 -5 0  2.7 -5 0  2.8 -5 0  2.9 -5 0  3 -5 0  3.1 -5 0  3.199999999999999 -5 0  3.300000000000001 -5 0  3.4 -5 0  3.5 -5 0  3.6 -5 0  3.699999999999999 -5 0  3.800000000000001 -5 0  3.9 -5 0  4 -5 0  4.1 -5 0  4.199999999999999 -5 0  4.300000000000001 -5 0  4.4 -5 0  4.5 -5 0  4.6 -5 0  4.699999999999999 -5 0  4.800000000000001 -5 0  4.9 -5 0  5 -4.9 0  5 -4.8 0  5 -4.7 0  5 -4.6 0  5 -4.5 0  5 -4.4 0  5 -4.3 0  5 -4.2 0  5 -4.1 0  5 -4 0  5 -3.9 0  5 -3.8 0  5 -3.7 0  5 -3.6 0  5 -3.5 0  5 -3.4 0  5 -3.3 0  5 -3.2 0  5 -3.1 0  5 -3 0  5 -2.9 0  5 -2.8 0  5 -2.7 0  5 -2.6 0  5 -2.5 0  5 -2.4 0  5 -2.3 0  5 -2.2 0  5 -2.1 0  5 -2 0  5 -1.9 0  5 -1.8 0  5 -1.7 0  5 -1.6 0  5 -1.5 0  5 -1.4 0  5 -1.3 0  5 -1.2 0  5 -1.1 0  5 -1 0  5 -0.9000000000000004 0  5 -0.7999999999999998 0  5 -0.7000000000000002 0  5 -0.5999999999999996 0  5 -0.5 0  5 -0.4000000000000004 0  5 -0.2999999999999998 0  5 -0.2000000000000002 0  5 -0.09999999999999964 0  5 0 0  5 0.09999999999999964 0  5 0.2000000000000002 0  5 0.2999999999999998 0  5 0.4000000000000004 0  5 0.5 0  5 0.5999999999999996 0  5 0.7000000000000002 0  5 0.7999999999999998 0  5 0.9000000000000004 0  5 1 0  5 1.1 0  5 1.2 0  5 1.3 0  5 1.4 0  5 1.5 0  5 1.6 0  5 1.7 0  5 1.8 0  5 1.9 0  5 2 0  5 2.1 0  5 2.2 0  5 2.3 0  5 2.4 0  5 2.5 0  5 2.6 0  5 2.7 0  5 2.8 0  5 2.9 0  5 3 0  5 3.1 0  5 3.199999999999999 0  5 3.300000000000001 0  5 3.4 0  5 3.5 0  5 3.6 0  5 3.699999999999999 0  5 3.800000000000001 0  5 3.9 0  5 4 0  5 4.1 0  5 4.199999999999999 0  5 4.300000000000001 0  5 4.4 0  5 4.5 0  5 4.6 0  5 4.699999999999999 0  5 4.800000000000001 0  5 4.9 0  4.9 5 0  4.8 5 0  4.7 5 0  4.6 5 0  4.5 5 0  4.4 5 0  4.3 5 0  4.2 5 0  4.1 5 0  4 5 0  3.9 5 0  3.8 5 0  3.7 5 0  3.6 5 0  3.5 5 0  3.4 5 0  3.3 5 0  3.2 5 0  3.1 5 0  3 5 0  2.9 5 0  2.8 5 0  2.7 5 0  2.6 5 0  2.5 5 0  2.4 5 0  2.3 5 0  2.2 5 0  2.1 5 0  2 5 0  1.9 5 0  1.8 5 0  1.7 5 0  1.6 5 0  1.5 5 0  1.4 5 0  1.3 5 0  1.2 5 0  1.1 5 0  1 5 0  0.9000000000000004 5 0  0.7999999999999998 5 0  0.7000000000000002 5 0  0.5999999999999996 5 0  0.5 5 0  0.4000000000000004 5 0  0.2999999999999998 5 0  0.2000000000000002 5 0  0.09999999999999964 5 0  0 5 0  -0.09999999999999964 5 0  -0.2000000000000002 5 0  -0.2999999999999998 5 0  -0.4000000000000004 5 0  -0.5 5 0  -0.5999999999999996 5 0  -0.7000000000000002 5 0  -0.7999999999999998 5 0  -0.9000000000000004 5 0  -1 5 0  -1.1 5 0  -1.2 5 0  -1.3 5 0  -1.4 5 0  -1.5 5 0  -1.6 5 0  -1.7 5 0  -1.8 5 0  -1.9 5 0  -2 5 0  -2.1 5 0  -2.2 5 0  -2.3 5 0  -2.4 5 0  -2.5 5 0  -2.6 5 0  -2.7 5 0  -2.8 5 0  -2.9 5 0  -3 5 0  -3.1 5 0  -3.199999999999999 5 0  -3.300000000000001 5 0  -3.4 5 0  -3.5 5 0  -3.6 5 0  -3.699999999999999 5 0  -3.800000000000001 5 0  -3.9 5 0  -4 5 0  -4.1 5 0  -4.199999999999999 5 0  -4.300000000000001 5 0  -4.4 5 0  -4.5 5 0  -4.6 5 0  -4.699999999999999 5 0  -4.800000000000001 5 0  -4.9 5 0  -5 4.9 0  -5 4.8 0  -5 4.7 0  -5 4.6 0  -5 4.5 0  -5 4.4 0  -5 4.3 0  -5 4.2 0  -5 4.1 0  -5 4 0  -5 3.9 0  -5 3.8 0  -5 3.7 0  -5 3.6 0  -5 3.5 0  -5 3.4 0  -5 3.3 0  -5 3.2 0  -5 3.1 0  -5 3 0  -5 2.9 0  -5 2.8 0  -5 2.7 0  -5 2.6 0  -5 2.5 0  -5 2.4 0  -5 2.3 0  -5 2.2 0  -5 2.1 0  -5 2 0  -5 1.9 0  -5 1.8 0  -5 1.7 0  -5 1.6 0  -5 1.5 0  -5 1.4 0  -5 1.3 0  -5 1.2 0  -5 1.1 0  -5 1 0  -5 0.9000000000000004 0  -5 0.7999999999999998 0  -5 0.7000000000000002 0  -5 0.5999999999999996 0  -5 0.5 0  -5 0.4000000000000004 0  -5 0.2999999999999998 0  -5 0.2000000000000002 0  -5 0.09999999999999964 0  -5 0 0  -5 -0.09999999999999964 0  -5 -0.2000000000000002 0  -5 -0.2999999999999998 0  -5 -0.4000000000000004 0  -5 -0.5 0  -5 -0.5999999999999996 0  -5 -0.7000000000000002 0  -5 -0.7999999999999998 0  -5 -0.9000000000000004 0  -5 -1 0  -5 -1.1 0  -5 -1.2 0  -5 -1.3 0  -5 -1.4 0  -5 -1.5 0  -5 -1.6 0  -5 -1.7 0  -5 -1.8 0  -5 -1.9 0  -5 -2 0  -5 -2.1 0  -5 -2.2 0  -5 -2.3 0  -5 -2.4 0  -5 -2.5 0  -5 -2.6 0  -5 -2.7 0  -5 -2.8 0  -5 -2.9 0  -5 -3 0  -5 -3.1 0  -5 -3.199999999999999 0  -5 -3.300000000000001 0  -5 -3.4 0  -5 -3.5 0  -5 -3.6 0  -5 -3.699999999999999 0  -5 -3.800000000000001 0  -5 -3.9 0  -5 -4 0  -5 -4.1 0  -5 -4.199999999999999 0  -5 -4.300000000000001 0  -5 -4.4 0  -5 -4.5 0  -5 -4.6 0  -5 -4.699999999999999 0  -5 -4.800000000000001 0  -5 -4.9 0  1.236750609829717 0.09657501183969336 0  1.216153947689815 0.1938363809997128 0  1.183094875501691 0.2904573876632668 0  1.140617349311652 0.3801368027073749 0  1.084284273067244 0.4706763123976305 0  1.01949408672108 0.5554179759982159 0  0.9426544133643714 0.6351686320480835 0  0.8571100658705507 0.7089793708632882 0  0.765629149660098 0.7743382801847016 0  0.6640321201259991 0.8320032782841608 0  0.5544802807360207 0.8841630548947593 0  0.442919409785521 0.927397887712921 0  0.3300403971150227 0.9601490302581511 0  0.2078811026596509 0.9818366454377854 0  0.08941881647076483 0.999671272619843 0  -0.02755111310951553 1.002724443847514 0  -0.1452518311888275 0.9900677014497775 0  -0.2695003398085958 0.971708762274123 0  -0.3875829631260795 0.9468240782104518 0  -0.4984233973430287 0.9104951854430066 0  -0.6065287143712307 0.8642026072776128 0  -0.7084873992439085 0.8097626264555597 0  -0.8027558531186704 0.7454346819899362 0  -0.8924058412811748 0.6730355520458043 0  -0.9759747406245323 0.5940041372057207 0  -1.0483977911026 0.5126755116578767 0  -1.10967288670395 0.4265987012617045 0  -1.160670912794941 0.3349980351033275 0  -1.198269091124748 0.243473243137746 0  -1.222763166773761 0.1487298244679388 0  -1.234703979890273 0.05086476861382165 0  -1.23465813022101 -0.04875898633611352 0  -1.222656220985575 -0.1460208986070794 0  -1.198139612099784 -0.2401500980438803 0  -1.1586418877007 -0.3351480203084636 0  -1.109897820411932 -0.4262419162312959 0  -1.049764881747535 -0.5122723160964692 0  -0.9781426051922447 -0.5929173815162885 0  -0.8951817288748779 -0.670689055496237 0  -0.8057686605584815 -0.7415944756613195 0  -0.7099167895325056 -0.8025589088014391 0  -0.6061874888197691 -0.856021056160604 0  -0.4945082945782618 -0.9048731589435838 0  -0.3820278936633512 -0.9439190540534323 0  -0.2661862251959713 -0.9710740781964423 0  -0.1439076535587313 -0.9895856563192751 0  -0.02795273247008087 -1.001861840737563 0  0.08955037644800813 -0.9953558792219539 0  0.212378424505411 -0.9789153313730641 0  0.3323426449538155 -0.9585607482139937 0  0.4469675098082733 -0.9260507116923322 0  0.5566885710471767 -0.8832661059305799 0  0.664902417690892 -0.8319865072301323 0  0.7656673416603641 -0.7755064153489732 0  0.857192719106571 -0.7099182026564488 0  0.9420370166318622 -0.635017948605505 0  1.01716711215314 -0.5546914056684208 0  1.084410838411932 -0.4697619289068317 0  1.141546050699181 -0.3802550249444187 0  1.184774968707848 -0.2885095702257122 0  1.216691204695506 -0.1929463783520627 0  1.236943057928464 -0.0962008034107442 0  -2.44860982702316 4.918202356979882 0  -2.448488380641175 -4.910588757064244 0  4.910515199741786 2.447960793426696 0  4.918632866626504 -2.449416313016468 0  2.446226689397956 -4.895836695617596 0  2.440658219044197 4.899595781572069 0  -4.910541554539859 -2.447986508319569 0  -4.910538988658012 2.447990387153117 0  -1.748565815650676 4.911129912620608 0  -1.744350363775761 -4.914566469230723 0  4.920716569110638 1.744129370400514 0  4.909262117748865 -1.747899112447123 0  -4.90955499183186 -1.747632455745061 0  -4.910376518239764 1.747376612210628 0  1.745841832974427 4.904994894007428 0  1.747261242075426 -4.893154481707504 0  -1.148866671600451 4.908938381913767 0  -1.129720623587181 -4.916843730603095 0  -4.90929894121559 -1.147949178196918 0  -4.909117618232592 1.147749531111249 0  1.143859758901359 -4.913032860295569 0  1.148876261444036 4.908925428553394 0  4.909439830082727 1.14622481597324 0  4.920258195180619 -1.152004241732563 0  -0.54668208339124 -4.910139518518367 0  -0.5464634114267162 4.918813495386212 0  -4.908052678605634 -0.5487203781358087 0  -4.908076699968674 0.5472778715274642 0  4.907374067825638 -0.5490390135372788 0  4.919016087233723 0.5457947056721061 0  0.5424657683334083 -4.897033612289128 0  0.5511923570690788 4.915640195331556 0  -4.911940015925522 -3.048333442047875 0  4.918507839267574 3.046347006413207 0  4.911448297977902 -3.048309760204201 0  -4.912787554548124 3.045424679421701 0  3.055330630218691 -4.917433604103102 0  -3.048663745531294 -4.911372719499985 0  3.052230294615383 4.913449653948493 0  -3.048109133281184 4.912262109456607 0  -4.907168693864397 -0.04990892718965094 0  0.04512066391058166 -4.912090633126381 0  0.04956840579491581 4.919109483479018 0  4.914215725150012 -0.05129092548853571 0  3.545642883091358 -4.919062303729512 0  -3.548925421440529 4.91196
[...]
<PointData  Vectors="f_3702"> 
<DataArray  type="Float64"  Name="f_3702"  NumberOfComponents="3" format="ascii">2.6559658580600205e-76 2.6559658580600205e-76 0.0000000000000000e+00  -2.8445085011138754e-76 2.8445085011138754e-76 0.0000000000000000e+00  -8.5659604779158169e-78 -8.5659604779158169e-78 0.0000000000000000e+00  3.0308186857311471e-76 -3.0308186857311471e-76 0.0000000000000000e+00  -2.4195841125034867e-01 -4.5941481662612931e-03 0.0000000000000000e+00  4.1658025709222599e-75 6.6063477329734458e-75 0.0000000000000000e+00  2.0825088156598137e-75 2.0879860073580777e-74 0.0000000000000000e+00  -3.4055026456765645e-75 6.7712484508471359e-75 0.0000000000000000e+00  3.9998469753116214e-72 6.6683886381407663e-72 0.0000000000000000e+00  5.3165136165991185e-71 1.3458611555487721e-70 0.0000000000000000e+00  -7.9187482747437518e-72 4.5551296331908850e-71 0.0000000000000000e+00  3.2338651296074898e-69 6.1628140272756340e-69 0.0000000000000000e+00  5.1605405246648325e-68 9.3997347831752007e-68 0.0000000000000000e+00  -3.0639858910185181e-68 1.4999835755100280e-67 0.0000000000000000e+00  1.2765354394543514e-67 3.9819571033633795e-67 0.0000000000000000e+00  1.2646427371647531e-68 8.7789788576018570e-67 0.0000000000000000e+00  5.4503436324930905e-64 8.8244754958054293e-64 0.0000000000000000e+00  4.7468958660084894e-65 2.4418536038435825e-63 0.0000000000000000e+00  1.3487494731825996e-62 2.1994344396729623e-62 0.0000000000000000e+00  8.0647012779170046e-63 8.3183149655179098e-62 0.0000000000000000e+00  6.9287097800331737e-61 1.1025492754499323e-60 0.0000000000000000e+00  4.0605913646500443e-60 7.0083010561462197e-60 0.0000000000000000e+00  -2.8456224189254637e-60 7.6978062711842586e-60 0.0000000000000000e+00  5.6594095576634185e-59 1.1370462808789057e-58 0.0000000000000000e+00  -1.7577904226262269e-59 1.1645572317603751e-58 0.0000000000000000e+00  -3.0013677410448338e-59 6.8369584731171464e-59 0.0000000000000000e+00  1.8009993111627447e-58 3.3051630791229133e-58 0.0000000000000000e+00  7.2935148620965319e-58 2.0898094303167499e-57 0.0000000000000000e+00  2.8581977345668870e-57 6.2344569045243774e-57 0.0000000000000000e+00  -3.4041546380510025e-57 5.7361688621764844e-57 0.0000000000000000e+00  -3.5190062686391320e-58 1.0975964234734517e-57 0.0000000000000000e+00  1.9066627035808236e-56 2.9330459249283171e-56 0.0000000000000000e+00  -1.4119440143863984e-56 3.5300890724253832e-56 0.0000000000000000e+00  1.1900257035588451e-56 2.8940945472457959e-56 0.0000000000000000e+00  8.7276397201307938e-56 2.0980394363322750e-55 0.0000000000000000e+00  -2.5058847582986781e-56 5.7433040773463064e-55 0.0000000000000000e+00  5.2035119336184888e-57 8.6151681796552291e-57 0.0000000000000000e+00  5.5372971613482202e-56 1.3819706391114512e-55 0.0000000000000000e+00  1.5468488154925436e-55 6.1702759409497724e-55 0.0000000000000000e+00  -2.2329593550365402e-55 3.5153620163453073e-55 0.0000000000000000e+00  9.8216291301148806e-55 1.7233373644533154e-54 0.0000000000000000e+00  -4.4125573384140568e-55 4.3613408323475888e-54 0.0000000000000000e+00  -2.2785522853763755e-55 2.6819544973704254e-54 0.0000000000000000e+00  -9.6012875267775119e-56 9.4394193114591054e-55 0.0000000000000000e+00  -1.1292072019815787e-55 1.8218108614128047e-55 0.0000000000000000e+00  2.7553348979747637e-54 5.2341141965391776e-54 0.0000000000000000e+00  -2.1561965742428415e-54 4.1385325190042923e-54 0.0000000000000000e+00  -7.1796878917619959e-55 8.0793613596044855e-55 0.0000000000000000e+00  -1.3181463272168955e-55 2.7129578399609894e-55 0.0000000000000000e+00  9.2868248867347946e-55 1.4452665343524024e-54 0.0000000000000000e+00  9.4386076845071276e-55 6.1546090056402854e-54 0.0000000000000000e+00  -1.1264859119208614e-54 5.8987934656351318e-54 0.0000000000000000e+00  5.1379490126334880e-55 4.6481276049656431e-54 0.0000000000000000e+00  1.9059975262029990e-56 5.7930165769901453e-54 0.0000000000000000e+00  3.0121209332723261e-55 6.1511774335637339e-54 0.0000000000000000e+00  -1.2593855939415623e-54 2.0441897609512046e-54 0.0000000000000000e+00  -6.4445424382059126e-55 1.4723526702088222e-53 0.0000000000000000e+00  4.4559120519033432e-54 7.4688417097876585e-54 0.0000000000000000e+00  -4.3397581785442528e-54 8.0962772255295736e-54 0.0000000000000000e+00  1.9186197835392133e-54 3.9566809751047155e-54 0.0000000000000000e+00  -7.3503338341433495e-55 9.4989141506160566e-54 0.0000000000000000e+00  1.3289077221817131e-54 9.3286919493842323e-54 0.0000000000000000e+00  -1.6822589500085790e-54 4.3966724956873931e-54 0.0000000000000000e+00  -9.2366294205937375e-55 2.4048969329214232e-54 0.0000000000000000e+00  3.3264512397990036e-55 1.2995678048300109e-54 0.0000000000000000e+00  2.6530173077420086e-55 2.5375750105523657e-54 0.0000000000000000e+00  -7.8252083359146496e-56 3.4898647727033727e-54 0.0000000000000000e+00  -7.1036918673989339e-55 1.4816159402944071e-54 0.0000000000000000e+00  2.3748525048861782e-55 4.4257073125048047e-55 0.0000000000000000e+00  -2.3069895292377303e-55 6.0237490668882758e-55 0.0000000000000000e+00  5.0274213110770074e-56 2.3979652077919042e-55 0.0000000000000000e+00  1.8642180738233305e-55 9.5239263751705775e-55 0.0000000000000000e+00  -3.3001533635349880e-55 5.3021068795234700e-55 0.0000000000000000e+00  -1.5892837384013742e-56 4.8221262493308623e-56 0.0000000000000000e+00  -1.1340109819482037e-57 1.1332944668729061e-56 0.0000000000000000e+00  6.7468907364947055e-57 2.3551111670212212e-56 0.0000000000000000e+00  -8.9846549187737470e-57 1.5019730286611359e-56 0.0000000000000000e+00  1.7402267277229719e-57 2.8871883282230543e-57 0.0000000000000000e+00  -1.2431696189362056e-57 2.7241778144481987e-57 0.0000000000000000e+00  5.1718445613454211e-57 7.8096100027400911e-57 0.0000000000000000e+00  -4.5293939297799205e-57 1.1250011784001386e-56 0.0000000000000000e+00  -1.8122372732033128e-58 9.3946891365562391e-58 0.0000000000000000e+00  -2.3901695326511513e-58 4.6520021394147541e-58 0.0000000000000000e+00  -7.8713235589992384e-61 8.8103216200464408e-59 0.0000000000000000e+00  -2.4438886262173510e-59 6.4223258863474760e-59 0.0000000000000000e+00  -7.1098793641209742e-60 2.4996075741947527e-59 0.0000000000000000e+00  -4.3817184542679449e-60 2.2385734346461062e-59 0.0000000000000000e+00  -3.0605024150466389e-60 7.1675557412369594e-60 0.0000000000000000e+00  -8.5168962348988884e-62 4.4350640511919908e-61 0.0000000000000000e+00  -1.0750633930898295e-61 2.2339286162300438e-61 0.0000000000000000e+00  -3.5847653382482997e-62 5.6740530495887212e-62 0.0000000000000000e+00  -3.9073257743052138e-64 6.6975585188974240e-64 0.0000000000000000e+00  -2.4297402657215896e-65 5.1706896151350837e-65 0.0000000000000000e+00  3.7058583415016553e-66 1.0386750683962612e-65 0.0000000000000000e+00  -4.8398912024026177e-66 9.2616403262540862e-66 0.0000000000000000e+00  -6.6965044030959287e-68 2.7710938461501210e-67 0.0000000000000000e+00  -7.8501855655315430e-68 1.2917870452354771e-67 0.0000000000000000e+00  -8.0581122361685873e-69 1.1732308488943431e-68 0.0000000000000000e+00  -5.6317097149576992e-70 9.5204590257484306e-70 0.0000000000000000e+00  -3.7785760150514400e-71 6.8187423464455026e-71 0.0000000000000000e+00  -1.8781012293934208e-72 3.2027553412511227e-72 0.0000000000000000e+00  -1.2176202438314960e-73 2.7267615241795460e-73 0.0000000000000000e+00  -4.4207438409578691e-75 1.2911663630355430e-74 0.0000000000000000e+00  -2.5480104673975340e-75 4.2412417616846555e-75 0.0000000000000000e+00  -9.7689881507555095e-76 3.5582382867225764e-76 0.0000000000000000e+00  -1.6210972823467743e-75 -2.3921823054656704e-76 0.0000000000000000e+00  -2.4489656055238380e-74 1.1590419148549460e-74 0.0000000000000000e+00  -3.6791468307077301e-74 1.5502814685982259e-75 0.0000000000000000e+00  -3.8831351029949532e-73 1.4334102280176771e-73 0.0000000000000000e+00  -1.0237909283917467e-71 6.2380957916379543e-72 0.0000000000000000e+00  -6.7409888372565935e-71 3.7082283998565857e-71 0.0000000000000000e+00  -1.0610415514381543e-70 3.9030324644994979e-72 0.0000000000000000e+00  -8.9006449493081131e-70 3.3089667463161049e-70 0.0000000000000000e+00  -2.1286792904814423e-68 1.2865001567722615e-68 0.0000000000000000e+00  -1.0237611791352436e-67 5.1104791619737947e-68 0.0000000000000000e+00  -1.0135312069030509e-67 -6.0264850142700155e-68 0.0000000000000000e+00  -3.1658410085134565e-66 1.7462069491227600e-66 0.0000000000000000e+00  -3.1853032962852100e-65 1.8318994616986583e-65 0.0000000000000000e+00  -5.3859378933383789e-65 5.0463696368346214e-66 0.0000000000000000e+00  -4.4366965304328055e-64 1.4466140093685113e-64 0.0000000000000000e+00  -6.9934011925281496e-63 4.3593616344919606e-63 0.0000000000000000e+00  -1.5064799100607203e-62 3.7487712509649633e-63 0.0000000000000000e+00  -8.4335299217262637e-62 1.9666291951922116e-62 0.0000000000000000e+00  -1.3550073926723934e-60 8.5184462538317555e-61 0.0000000000000000e+00  -2.4169398920251475e-60 3.3820391066207722e-61 0.0000000000000000e+00  -2.1170502880305667e-59 7.3977249520671723e-60 0.0000000000000000e+00  -2.4172387863926726e-58 1.4944554612447412e-58 0.0000000000000000e+00  -2.5874581123958701e-58 -9.4169885997786821e-59 0.0000000000000000e+00  -5.9785386922549643e-57 2.7812292312102270e-57 0.0000000000000000e+00  -2.4837551834344439e-56 1.2388365490596469e-56 0.0000000000000000e+00  -5.5631904957420014e-56 -8.6814389685424589e-57 0.0000000000000000e+00  -1.0114454522540345e-54 6.4772430145532555e-55 0.0000000000000000e+00  -1.1205043310351872e-54 -3.4621940995995276e-55 0.0000000000000000e+00  -2.4083502468994371e-53 1.2685949594876073e-53 0.0000000000000000e+00  -6.5941950010944694e-53 2.9869070874023491e-53 0.0000000000000000e+00  -4.3569744665865888e-52 1.2234393492061948e-52 0.0000000000000000e+00  -2.6664862602198340e-51 1.6614390496774005e-51 0.0000000000000000e+00  -7.6657820486754314e-51 -2.1387328021152803e-52 0.0000000000000000e+00  -7.1988403421466223e-50 4.5914896558215165e-50 0.0000000000000000e+00  -1.6171423420489932e-49 -1.4755050325451467e-50 0.0000000000000000e+00  -1.7300382413735110e-48 1.0086350599058024e-48 0.0000000000000000e+00  -4.3410852604944303e-48 -2.0360432920692350e-49 0.0000000000000000e+00  -2.0143269025653211e-47 1.1079226622420266e-47 0.0000000000000000e+00  -1.1028607381641983e-46 1.8925766343384755e-47 0.0000000000000000e+00  -1.0248757420181294e-46 2.4554030772285863e-47 0.0000000000000000e+00  -1.2409843891135050e-45 5.2427023902718133e-46 0.0000000000000000e+00  -8.7348237193927220e-46 -5.6667244758175146e-46 0.0000000000000000e+00  -1.3434436190615239e-44 8.0530757387308192e-45 0.0000000000000000e+00  -5.7966167806540413e-44 1.3707400391832966e-44 0.0000000000000000e+00  -3.6148188803642326e-44 -1.7472580885041922e-44 0.0000000000000000e+00  -1.1427601259371542e-43 6.4852776955182425e-44 0.0000000000000000e+00  -8.4138727466046760e-43 2.3105335020257253e-43 0.0000000000000000e+00  -1.9292247391968975e-42 1.9707266052542405e-43 0.0000000000000000e+00  -2.5118204625517970e-42 6.0896897195640536e-44 0.0000000000000000e+00  -2.0146004403775541e-42 -1.9432706242770517e-43 0.0000000000000000e+00  -8.6145860327547814e-43 -2.4996859086918024e-43 0.0000000000000000e+00  -1.1327221303365056e-43 -6.4316008981608878e-44 0.0000000000000000e+00  -3.8707564820057133e-44 1.8459223698398254e-44 0.0000000000000000e+00  -6.3173495849332580e-44 -1.0797891499834289e-44 0.0000000000000000e+00  -1.4993997866398712e-44 -7.8494666288213402e-45 0.0000000000000000e+00  -9.9850939386339638e-46 5.6593452595731482e-46 0.0000000000000000e+00  -1.4043641207278623e-45 -5.3745311069129690e-46 0.0000000000000000e+00  -1.1210536268171335e-46 -2.8491385549928481e-47 0.0000000000000000e+00  -1.0183392011213453e-46 -2.1377316164195924e-47 0.0000000000000000e+00  -1.8620577907818715e-47 -1.1947142724353210e-47 0.0000000000000000e+00  -4.0855103637540491e-48 2.0273331171150356e-49 0.0000000000000000e+00  -1.4877310398641821e-48 -9.3393748432315881e-49 0.0000000000000000e+00  -1.6329555430684714e-49 2.4496422043658418e-50 0.0000000000000000e+00  -7.4625639022979585e-50 -4.4110849787866692e-50 0.0000000000000000e+00  -8.2456058335247529e-51 6.3915302330963169e-52 0.0000000000000000e+00  -3.1474799455181854e-51 -1.7797925679970820e-51 0.0000000000000000e+00  -5.1042127293347187e-52 -1.1443204578082469e-52 0.0000000000000000e+00  -8.2100554477578824e-53 -3.5398170898673717e-53 0.0000000000000000e+00  -2.6633883917519574e-53 -1.3131352696042277e-53 0.0000000000000000e+00  -1.1968252893004062e-54 3.2332276433623148e-55 0.0000000000000000e+00  -1.0644633334329808e-54 -6.7927970079370939e-55 0.0000000000000000e+00  -5.1514447402931590e-56 8.3342056409493317e-57 0.0000000000000000e+00  -2.3380158865284201e-56 -1.3216369561908308e-56 0.0000000000000000e+00  -4.8265132345936987e-57 -2.5173993615125705e-57 0.0000000000000000e+00  -2.4578046068208781e-58 8.5330809490135003e-59 0.0000000000000000e+00  -2.1596248232654770e-58 -1.3266438862536238e-58 0.0000000000000000e+00  -1.9916464812342327e-59 -6.1382141542812664e-60 0.0000000000000000e+00  -2.3752408190724117e-60 -3.3915264406162366e-61 0.0000000000000000e+00  -1.2915405156007567e-60 -7.5993983107743095e-61 0.0000000000000000e+00  -7.6925468046950916e-62 -2.1415231782567444e-62 0.0000000000000000e+00  -1.3596246401832502e-62 -2.9272870030033945e-63 0.0000000000000000e+00  -6.6421583040433057e-63 -3.7847169864299629e-63 0.0000000000000000e+00  -4.7843727857921001e-64 -1.8180656431997924e-64 0.0000000000000000e+00  -4.3637920218177888e-65 9.5726600360769115e-67 0.0000000000000000e+00  -2.9492279826568980e-65 -1.6608546281772369e-65 0.0000000000000000e+00  -3.4144007641056770e-66 -1.9874087104562585e-66 0.0000000000000000e+00  -8.9922435067737534e-68 5.4772000177160203e-68 0.0000000000000000e+00  -8.6387193049237516e-68 -4.1752550054842488e-68 0.0000000000000000e+00  -2.0687784427713343e-68 -1.2843641597101837e-68 0.0000000000000000e+00  -1.1328426492711515e-69 -5.1315507963182358e-70 0.0000000000000000e+00  -8.7938869152737456e-71 1.3784012210134070e-71 0.0000000000000000e+00  -6.9093688532630640e-71 -3.6560182364508892e-71 0.0000000000000000e+00  -1.2481139472960688e-71 -7.6602701926648097e-72 0.0000000000000000e+00  -5.9825059260590799e-73 -2.7505494623988453e-73 0.0000000000000000e+00  -3.9236075402571800e-74 7.4221538451779080e-75 0.0000000000000000e+00  -3.1567446708299369e-74 -1.4788339356340586e-74 0.0000000000000000e+00  -6.5909014274297506e-75 -3.3568395828988127e-75 0.0000000000000000e+00  -7.1799745132370963e-76 -3.1070869436141067e-76 0.0000000000000000e+00  -8.5516458805673695e-76 -1.6228717865796853e-75 0.0000000000000000e+00  -4.7733670315921387e-75 -1.3946084984862866e-74 0.0000000000000000e+00  4.3664032261752445e-75 -8.3082514671854247e-75 0.0000000000000000e+00  -1.6291780079998026e-73 -3.4274365691977059e-73 0.0000000000000000e+00  -9.2836252432423069e-71 -1.0071181437971879e-70 0.0000000000000000e+00  -7.5047745745464054e-70 -1.3178743124252841e-69 0.0000000000000000e+00  -1.0981571436839906e-69 -3.6515025793803403e-69 0.0000000000000000e+00  -7.7588058133298952e-68 -1.7116154869914427e-67 0.0000000000000000e+00  -6.5288688131009696e-68 -3.2601428974495881e-67 0.0000000000000000e+00  -6.7874526005368210e-66 -1.3502724994916022e-65 0.0000000000000000e+00  -4.5179734150399939e-66 -2.1317898981492430e-65 0.0000000000000000e+00  -9.0655844665929229e-65 -1.5578911779099847e-64 0.0000000000000000e+00  1.7211439033850245e-65 -2.1034967679222838e-64 0.0000000000000000e+00  -4.2735835320801960e-62 -6.4041496583905285e-62 0.0000000000000000e+00  -6.9948265936264935e-62 -1.7210010182267787e-61 0.0000000000000000e+00  -2.3246652309096789e-62 -2.7287360956931164e-61 0.0000000000000000e+00  -5.7369736995670607e-60 -1.1365076042048098e-59 0.0000000000000000e+00  4.7647131577125894e-60 -1.5018104586749352e-59 0.0000000000000000e+00  -2.8991245996395996e-59 -4.7502351902700051e-59 0.0000000000000000e+00  8.8156071724910557e-60 -6.0857133263711261e-59 0.0000000000000000e+00  2.3238991604642032e-59 -3.9708256118117204e-59 0.0000000000000000e+00  -5.6342614192199464e-58 -8.9501226473384455e-58 0.0000000000000000e+00  -1.3793110108777097e-59 -1.2602450238739929e-57 0.0000000000000000e+00  -4.6307392709470689e-57 -1.1639847260866018e-56 0.0000000000000000e+00  5.7453283610063437e-57 -8.6715481347864270e-57 0.0000000000000000e+00  -5.3301401591239503e-57 -7.3405948951101723e-57 0.0000000000000000e+00  -1.7658671568373347e-56 -3.7742335229039349e-56 0.0000000000000000e+00  2.1602398021940806e-56 -4.0701883804865010e-56 0.0000000000000000e+00  -4.9989678414801060e-57 -9.2029938707024412e-57 0.0000000000000000e+00  -8.1124557383188781e-56 -2.0313943043720225e-55 0.0000000000000000e+00  6.3681422987638071e-56 -5.0766973013813969e-55 0.0000000000000000e+00  -4.2865968809268026e-55 -7.2598110285394378e-55 0.0000000000000000e+00  -4.8788226075380139e-56 -1.8357724777420368e-54 0.0000000000000000e+00  1.6590858659701889e-55 -5.7390619123273261e-55 0.0000000000000000e+00  -5.1788023721736356e-55 -1.6761934522119075e-54 0.0000000000000000e+00  -2.2521371645602036e-54 -7.0727404179931691e-54 0.0000000000000000e+00  2.5803534556167802e-54 -6.0757165735120209e-54 0.0000000000000000e+00  -6.7156761800419896e-55 -2.3899963388677738e-54 0.0000000000000000e+00  5.3209439116197946e-55 -2.8189257232769168e-54 0.0000000000000000e+00  1.2812496694360941e-55 -1.4247670615698575e-54 0.0000000000000000e+00  -2.1786909426367432e-54 -3.4673861085023031e-54 0.0000000000000000e+00  5.7075103246570819e-55 -8.2269807923177464e-54 0.0000000000000000e+00  -3.9277315956903302e-54 -1.3559009650798841e-53 0.0000000000000000e+00  4.6888906687987355e-54 -7.7135745069826974e-54 0.0000000000000000e+00  2.0301835787119581e-55 -6.5057320613642121e-55 0.0000000000000000e+00  -4.7978009260485442e-54 -8.0097502517813983e-54 0.0000000000000000e+00  4.8235600084215515e-54 -7.8691458627740224e-54 0.0000000000000000e+00  -1.6607570101672302e-56 -1.3350025244671550e-55 0.0000000000000000e+00  1.1145583178038362e-56 -2.7680783007818968e-55 0.0000000000000000e+00  2.2054028065427255e-56 -9.8796698405655270e-56 0.0000000000000000e+00  -5.2010778812220231e-54 -9.3535950856122805e-54 0.0000000000000000e+00  5.5474530907359278e-54 -9.4083768542204848e-54 0.0000000000000000e+00  5.6716302932184871e-56 -1.0519459291599235e-55 0.0000000000000000e+00  -1.4321125642955033e-56 -6.2046079317584644e-56 0.0000000000000000e+00  -4.9965175164869076e-55 -9.0455760855082858e-55 0.0000000000000000e+00  -5.8116325382911958e-54 -1.0044559478922357e-53 0.0000000000000000e+00  4.5014330629909270e-54 -1.0493017330562310e-53 0.0000000000000000e+00  -3.0510069159431413e-54 -7.9844463619486710e-54 0.0000000000000000e+00  2.4377611857870208e-54 -8.5506801516360355e-54 0.0000000000000000e+00  2.2454384500584580e-54 -3.3070378567202116e-54 0.0000000000000000e+00  -5.4346611772084269e-55 -1.4796393368918491e-54 0.0000000000000000e+00  8.3535474388544977e-55 -1.5742089694751719e-54 0.0000000000000000e+00  -4.9215189404433193e-55 -9.8303266065543406e-55 0.0000000000000000e+00  5.1231150593619426e-55 -8.8574397751713156e-55 0.0000000000000000e+00  -1.5660255099879723e-56 -2.6913128371323517e-56 0.0000000000000000e+00  -4.4749969956823815e-56 -1.7216151568464667e-55 0.0000000000000000e+00  4.1711044984985114e-56 -1.7470047787900566e-55 0.0000000000000000e+00  4.8012086351603924e-57 -6.9033041668755295e-56 0.0000000000000000e+00  -2.7475662393348041e-56 -6.5413071067880878e-56 0.0000000000000000e+00  3.2866857440764683e-56 -6.4153690114568991e-56 0.0000000000000000e+00  -2.8575459702433006e-57 -2.8732068250928485e-56 0.0000000000000000e+00  1.2955092519595776e-56 -3.0026902692925582e-56 0.0000000000000000e+00  1.0020287583493637e-57 -2.3995664891002216e-57 0.0000000000000000e+00  -4.3807638434639604e-57 -7.6369658678922691e-57 0.0000000000000000e+00  4.2481950007264577e-57 -1.1008919453355459e-56 0.0000000000000000e+00  3.1233003025646332e-58 -1.0214442232223668e-57 0.0000000000000000e+00  1.4373902448116127e-58 -5.0268