<?xml version="1.0"?>
<VTKFile type="UnstructuredGrid"  version="0.1"  >
<UnstructuredGrid>
<Piece  NumberOfPoints="11902" NumberOfCells="23402">
<Points>
<DataArray  type="Float64"  NumberOfComponents="3"  format="ascii">-5 -5 0  5 -5 0  5 5 0  -5 5 0  1.226288817375398 0.001374090916059526 0  -4.9 -5 0  -4.8 -5 0  -4.7 -5 0  -4.6 -5 0  -4.5 -5 0  -4.4 -5 0  -4.3 -5 0  -4.2 -5 0  -4.1 -5 0  -4 -5 0  -3.9 -5 0  -3.8 -5 0  -3.7 -5 0  -3.6 -5 0  -3.5 -5 0  -3.4 -5 0  -3.3 -5 0  -3.2 -5 0  -3.1 -5 0  -3 -5 0  -2.9 -5 0  -2.8 -5 0  -2.7 -5 0  -2.6 -5 0  -2.5 -5 0  -2.4 -5 0  -2.3 -5 0  -2.2 -5 0  -2.1 -5 0  -2 -5 0  -1.9 -5 0  -1.8 -5 0  -1.7 -5 0  -1.6 -5 0  -1.5 -5 0  -1.4 -5 0  -1.3 -5 0  -1.2 -5 0  -1.1 -5 0  -1 -5 0  -0.9000000000000004 -5 0  -0.7999999999999998 -5 0  -0.7000000000000002 -5 0  -0.5999999999999996 -5 0  -0.5 -5 0  -0.4000000000000004 -5 0  -0.2999999999999998 -5 0  -0.2000000000000002 -5 0  -0.09999999999999964 -5 0  0 -5 0  0.09999999999999964 -5 0  0.2000000000000002 -5 0  0.2999999999999998 -5 0  0.4000000000000004 -5 0  0.5 -5 0  0.5999999999999996 -5 0  0.7000000000000002 -5 0  0.7999999999999998 -5 0  0.9000000000000004 -5 0  1 -5 0  1.1 -5 0  1.2 -5 0  1.3 -5 0  1.4 -5 0  1.5 -5 0  1.6 -5 0  1.7 -5 0  1.8 -5 0  1.9 -5 0  2 -5 0  2.1 -5 0  2.2 -5 0  2.3 -5 0  2.4 -5 0  2.5 -5 0  2.6 -5 0  2.7 -5 0  2.8 -5 0  2.9 -5 0  3 -5 0  3.1 -5 0  3.199999999999999 -5 0  3.300000000000001 -5 0  3.4 -5 0  3.5 -5 0  3.6 -5 0  3.699999999999999 -5 0  3.800000000000001 -5 0  3.9 -5 0  4 -5 0  4.1 -5 0  4.199999999999999 -5 0  4.300000000000001 -5 0  4.4 -5 0  4.5 -5 0  4.6 -5 0  4.699999999999999 -5 0  4.800000000000001 -5 0  4.9 -5 0  5 -4.9 0  5 -4.8 0  5 -4.7 0  5 -4.6 0  5 -4.5 0  5 -4.4 0  5 -4.3 0  5 -4.2 0  5 -4.1 0  5 -4 0  5 -3.9 0  5 -3.8 0  5 -3.7 0  5 -3.6 0  5 -3.5 0  5 -3.4 0  5 -3.3 0  5 -3.2 0  5 -3.1 0  5 -3 0  5 -2.9 0  5 -2.8 0  5 -2.7 0  5 -2.6 0  5 -2.5 0  5 -2.4 0  5 -2.3 0  5 -2.2 0  5 -2.1 0  5 -2 0  5 -1.9 0  5 -1.8 0  5 -1.7 0  5 -1.6 0  5 -1.5 0  5 -1.4 0  5 -1.3 0  5 -1.2 0  5 -1.1 0  5 -1 0  5 -0.9000000000000004 0  5 -0.7999999999999998 0  5 -0.7000000000000002 0  5 -0.5999999999999996 0  5 -0.5 0  5 -0.4000000000000004 0  5 -0.2999999999999998 0  5 -0.2000000000000002 0  5 -0.09999999999999964 0  5 0 0  5 0.09999999999999964 0  5 0.2000000000000002 0  5 0.2999999999999998 0  5 0.4000000000000004 0  5 0.5 0  5 0.5999999999999996 0  5 0.7000000000000002 0  5 0.7999999999999998 0  5 0.9000000000000004 0  5 1 0  5 1.1 0  5 1.2 0  5 1.3 0  5 1.4 0  5 1.5 0  5 1.6 0  5 1.7 0  5 1.8 0  5 1.9 0  5 2 0  5 2.1 0  5 2.2 0  5 2.3 0  5 2.4 0  5 2.5 0  5 2.6 0  5 2.7 0  5 2.8 0  5 2.9 0  5 3 0  5 3.1 0  5 3.199999999999999 0  5 3.300000000000001 0  5 3.4 0  5 3.5 0  5 3.6 0  5 3.699999999999999 0  5 3.800000000000001 0  5 3.9 0  5 4 0  5 4.1 0  5 4.199999999999999 0  5 4.300000000000001 0  5 4.4 0  5 4.5 0  5 4.6 0  5 4.699999999999999 0  5 4.800000000000001 0  5 4.9 0  4.9 5 0  4.8 5 0  4.7 5 0  4.6 5 0  4.5 5 0  4.4 5 0  4.3 5 0  4.2 5 0  4.1 5 0  4 5 0  3.9 5 0  3.8 5 0  3.7 5 0  3.6 5 0  3.5 5 0  3.4 5 0  3.3 5 0  3.2 5 0  3.1 5 0  3 5 0  2.9 5 0  2.8 5 0  2.7 5 0  2.6 5 0  2.5 5 0  2.4 5 0  2.3 5 0  2.2 5 0  2.1 5 0  2 5 0  1.9 5 0  1.8 5 0  1.7 5 0  1.6 5 0  1.5 5 0  1.4 5 0  1.3 5 0  1.2 5 0  1.1 5 0  1 5 0  0.9000000000000004 5 0  0.7999999999999998 5 0  0.7000000000000002 5 0  0.5999999999999996 5 0  0.5 5 0  0.4000000000000004 5 0  0.2999999999999998 5 0  0.2000000000000002 5 0  0.09999999999999964 5 0  0 5 0  -0.09999999999999964 5 0  -0.2000000000000002 5 0  -0.2999999999999998 5 0  -0.4000000000000004 5 0  -0.5 5 0  -0.5999999999999996 5 0  -0.7000000000000002 5 0  -0.7999999999999998 5 0  -0.9000000000000004 5 0  -1 5 0  -1.1 5 0  -1.2 5 0  -1.3 5 0  -1.4 5 0  -1.5 5 0  -1.6 5 0  -1.7 5 0  -1.8 5 0  -1.9 5 0  -2 5 0  -2.1 5 0  -2.2 5 0  -2.3 5 0  -2.4 5 0  -2.5 5 0  -2.6 5 0  -2.7 5 0  -2.8 5 0  -2.9 5 0  -3 5 0  -3.1 5 0  -3.199999999999999 5 0  -3.300000000000001 5 0  -3.4 5 0  -3.5 5 0  -3.6 5 0  -3.699999999999999 5 0  -3.800000000000001 5 0  -3.9 5 0  -4 5 0  -4.1 5 0  -4.199999999999999 5 0  -4.300000000000001 5 0  -4.4 5 0  -4.5 5 0  -4.6 5 0  -4.699999999999999 5 0  -4.800000000000001 5 0  -4.9 5 0  -5 4.9 0  -5 4.8 0  -5 4.7 0  -5 4.6 0  -5 4.5 0  -5 4.4 0  -5 4.3 0  -5 4.2 0  -5 4.1 0  -5 4 0  -5 3.9 0  -5 3.8 0  -5 3.7 0  -5 3.6 0  -5 3.5 0  -5 3.4 0  -5 3.3 0  -5 3.2 0  -5 3.1 0  -5 3 0  -5 2.9 0  -5 2.8 0  -5 2.7 0  -5 2.6 0  -5 2.5 0  -5 2.4 0  -5 2.3 0  -5 2.2 0  -5 2.1 0  -5 2 0  -5 1.9 0  -5 1.8 0  -5 1.7 0  -5 1.6 0  -5 1.5 0  -5 1.4 0  -5 1.3 0  -5 1.2 0  -5 1.1 0  -5 1 0  -5 0.9000000000000004 0  -5 0.7999999999999998 0  -5 0.7000000000000002 0  -5 0.5999999999999996 0  -5 0.5 0  -5 0.4000000000000004 0  -5 0.2999999999999998 0  -5 0.2000000000000002 0  -5 0.09999999999999964 0  -5 0 0  -5 -0.09999999999999964 0  -5 -0.2000000000000002 0  -5 -0.2999999999999998 0  -5 -0.4000000000000004 0  -5 -0.5 0  -5 -0.5999999999999996 0  -5 -0.7000000000000002 0  -5 -0.7999999999999998 0  -5 -0.9000000000000004 0  -5 -1 0  -5 -1.1 0  -5 -1.2 0  -5 -1.3 0  -5 -1.4 0  -5 -1.5 0  -5 -1.6 0  -5 -1.7 0  -5 -1.8 0  -5 -1.9 0  -5 -2 0  -5 -2.1 0  -5 -2.2 0  -5 -2.3 0  -5 -2.4 0  -5 -2.5 0  -5 -2.6 0  -5 -2.7 0  -5 -2.8 0  -5 -2.9 0  -5 -3 0  -5 -3.1 0  -5 -3.199999999999999 0  -5 -3.300000000000001 0  -5 -3.4 0  -5 -3.5 0  -5 -3.6 0  -5 -3.699999999999999 0  -5 -3.800000000000001 0  -5 -3.9 0  -5 -4 0  -5 -4.1 0  -5 -4.199999999999999 0  -5 -4.300000000000001 0  -5 -4.4 0  -5 -4.5 0  -5 -4.6 0  -5 -4.699999999999999 0  -5 -4.800000000000001 0  -5 -4.9 0  1.219783852486055 0.09787634773323863 0  1.200078488209622 0.1953861561896412 0  1.167654930972895 0.2922391584057644 0  1.125907987774822 0.3827477414651512 0  1.071181893465814 0.47325643308657 0  1.00738613343005 0.5581481468269766 0  0.9321664275144574 0.6379164746368365 0  0.847938634283148 0.7111073031814162 0  0.757066344354167 0.7765274726822919 0  0.6569883204621322 0.834630010621092 0  0.5495388743653887 0.8862565206012233 0  0.4389388258425869 0.9287488953412315 0  0.3264312954626829 0.9616370806117439 0  0.2065927779354587 0.9837367993868245 0  0.08928744230616346 1.000056951051439 0  -0.02769572664972347 1.002966994396451 0  -0.145128545687958 0.9916728742331026 0  -0.2665593878704557 0.973612485271929 0  -0.3832837853689614 0.9480947907285913 0  -0.4938095166104322 0.9117004118964345 0  -0.6004741581389007 0.8657142600405898 0  -0.7016917245520945 0.811128179849148 0  -0.7953794802751666 0.7475017807635995 0  -0.8835249885391935 0.6760318389844325 0  -0.9649804928750766 0.5975032096399914 0  -1.035565187865452 0.5156744000547591 0  -1.095950268086517 0.429224449631431 0  -1.145258655883268 0.3375507691204664 0  -1.18201617319531 0.2446981195819067 0  -1.206367726585977 0.1491785073573384 0  -1.21855934712484 0.05070970111580528 0  -1.218528079207355 -0.04870274631578744 0  -1.206237197882252 -0.1467053603610133 0  -1.182291272856975 -0.2420628749513118 0  -1.144141188763856 -0.3374010372116198 0  -1.09621788320303 -0.4283581992206499 0  -1.036747499647675 -0.5150206991690491 0  -0.9668799275831939 -0.5962978699267117 0  -0.8859479183621222 -0.673552475910061 0  -0.7977201901907588 -0.7436994809560359 0  -0.7024435180831842 -0.8047596524456887 0  -0.60036603346614 -0.8586696962654741 0  -0.4904105293120596 -0.9066167118651183 0  -0.3787699150673223 -0.9451273793136715 0  -0.2633306696612493 -0.9726392798289504 0  -0.1437623586843089 -0.990994899396835 0  -0.02774711734209567 -1.002042798691968 0  0.08975342901223483 -0.9965021910803834 0  0.2103783712348792 -0.9810850376972654 0  0.328479773524178 -0.9599893292259709 0  0.4427766282296806 -0.927353528910814 0  0.5515487974050798 -0.8853350104551095 0  0.6578049498610888 -0.8344659891733334 0  0.7571673018885573 -0.7776601071866021 0  0.8479858310645363 -0.711970179035174 0  0.9316013346875851 -0.6375274269796495 0  1.005499676380584 -0.5575101356595142 0  1.071036294288309 -0.4725251361890551 0  1.126879642655627 -0.38279606550181 0  1.169238926187264 -0.2904620973604984 0  1.20048396825567 -0.1944977795335981 0  1.219871210886493 -0.09742877361473393 0  -2.448674630922977 4.918321338692125 0  -2.448558978852635 -4.910718552557845 0  4.910647895803492 2.448053616403715 0  4.918753316502143 -2.449500718351965 0  2.446308846773638 -4.895989136923102 0  2.440737658065428 4.89974321772702 0  -4.91067323266698 -2.448078352303534 0  -4.910670942164715 2.448082214611367 0  -1.748633026082973 4.911301847150455 0  -1.744414686710797 -4.91473157685976 0  4.92088441394161 1.744213486907891 0  4.909453795739079 -1.747995528698925 0  -4.909744608317149 -1.747727473119613 0  -4.910564719205291 1.747470646675542 0  1.745913223905911 4.905179639773712 0  1.747341279464226 -4.893361930944489 0  -1.148920303497952 4.909147131833728 0  -1.129768849759138 -4.917034650675395 0  -4.909536571983984 -1.148027438960679 0  -4.909355980613258 1.147827726593018 0  1.14390996381516 -4.913232664605653 0  1.148929287956635 4.909134782339784 0  4.909679329041325 1.14630368296857 0  4.920468615406093 -1.15207398787032 0  -0.5467100533798351 -4.910366725473868 0  -0.546488674752576 4.919019299856792 0  -4.908328987001374 -0.548763903402811 0  -4.908353130476727 0.5473209875005184 0  4.907654913028585 -0.5490833613209966 0  4.919261757143588 0.5458331464119632 0  0.5424964889820202 -4.897294604922005 0  0.5512181150261551 4.915854222956345 0  -4.912028770730953 -3.048409278969676 0  4.918590632342786 3.046417940712892 0  4.911538036869134 -3.048386799363881 0  -4.912875847756583 3.045499902045876 0  3.055388303500468 -4.917520544250101 0  -3.048725740585476 -4.911465688020773 0  3.052290950027009 4.913541007931203 0  -3.048170722548349 4.912354336862911 0  -4.907459479865353 -0.04991323780203689 0  0.0451224335401081 -4.912319697083871 0  0.04957036332719311 4.919320741161982 0  4.91448684041444 -0.05129497734685201 0  3.545688488006871 -4.919123039898275 0  -3.548974992482608 4.9120305206480
[...]
<PointData  Vectors="f_2974"> 
<DataArray  type="Float64"  Name="f_2974"  NumberOfComponents="3" format="ascii">2.6559658580599969e-76 2.6559658580599969e-76 0.0000000000000000e+00  -2.8445085011138557e-76 2.8445085011138557e-76 0.0000000000000000e+00  -8.5659604779124074e-78 -8.5659604779124074e-78 0.0000000000000000e+00  3.0308186857310833e-76 -3.0308186857310833e-76 0.0000000000000000e+00  -3.0397969518109536e-01 -5.7013784732988133e-03 0.0000000000000000e+00  4.1656225387147562e-75 6.6065067551514816e-75 0.0000000000000000e+00  2.0826858941467088e-75 2.0879706287168861e-74 0.0000000000000000e+00  -3.4049788280407748e-75 6.7707890786941405e-75 0.0000000000000000e+00  3.9991850152048755e-72 6.6689686671503415e-72 0.0000000000000000e+00  5.3155666172023344e-71 1.3459445881790277e-70 0.0000000000000000e+00  -7.9163788930406716e-72 4.5549262270066353e-71 0.0000000000000000e+00  3.2328355550655943e-69 6.1636948554794539e-69 0.0000000000000000e+00  5.1586021177650788e-68 9.4013726202704258e-68 0.0000000000000000e+00  -3.0623716219581107e-68 1.4998518735363024e-67 0.0000000000000000e+00  1.2759719643013193e-67 3.9824263822402656e-67 0.0000000000000000e+00  1.2662778591515373e-68 8.7788776925618698e-67 0.0000000000000000e+00  5.4472106415566317e-64 8.8269842704493740e-64 0.0000000000000000e+00  4.7497811661956323e-65 2.4418416189088385e-63 0.0000000000000000e+00  1.3478127009261314e-62 2.2001549625460315e-62 0.0000000000000000e+00  8.0606238536932878e-63 8.3186663960909500e-62 0.0000000000000000e+00  6.9230966935789977e-61 1.1029629089619290e-60 0.0000000000000000e+00  4.0570210717493481e-60 7.0108606565034885e-60 0.0000000000000000e+00  -2.8428994107207747e-60 7.6959164953138952e-60 0.0000000000000000e+00  5.6539143124919490e-59 1.1374257245369496e-58 0.0000000000000000e+00  -1.7558707347076783e-59 1.1644317730967034e-58 0.0000000000000000e+00  -2.9978899374253326e-59 6.8347554876883233e-59 0.0000000000000000e+00  1.7988455502706706e-58 3.3065030125237313e-58 0.0000000000000000e+00  7.2847548066732736e-58 2.0903545809478840e-57 0.0000000000000000e+00  2.8543875083537827e-57 6.2366677257922362e-57 0.0000000000000000e+00  -3.3993007822581703e-57 5.7334914058594548e-57 0.0000000000000000e+00  -3.5137528993421306e-58 1.0973174311230784e-57 0.0000000000000000e+00  1.9037453790170955e-56 2.9345612597932360e-56 0.0000000000000000e+00  -1.4095824330711896e-56 3.5289680181968878e-56 0.0000000000000000e+00  1.1880660618758546e-56 2.8950408690974611e-56 0.0000000000000000e+00  8.7128480995228900e-56 2.0987322572550319e-55 0.0000000000000000e+00  -2.4989928211237800e-56 5.7431538821206202e-55 0.0000000000000000e+00  5.1937207359221687e-57 8.6191494842060745e-57 0.0000000000000000e+00  5.5267616733086278e-56 1.3823924416150628e-55 0.0000000000000000e+00  1.5438796613450646e-55 6.1714539704182338e-55 0.0000000000000000e+00  -2.2282476409935782e-55 3.5138222608313617e-55 0.0000000000000000e+00  9.8008731389837178e-55 1.7240136593176595e-54 0.0000000000000000e+00  -4.4014918056588167e-55 4.3611372414333894e-54 0.0000000000000000e+00  -2.2727728905556649e-55 2.6818614564321842e-54 0.0000000000000000e+00  -9.5776142329244963e-56 9.4389945315175848e-55 0.0000000000000000e+00  -1.1265251442453879e-55 1.8212319374681551e-55 0.0000000000000000e+00  2.7487864959480174e-54 5.2355235729227364e-54 0.0000000000000000e+00  -2.1509256105663281e-54 4.1375895840741794e-54 0.0000000000000000e+00  -7.1618778028196023e-55 8.0765452275729587e-55 0.0000000000000000e+00  -1.3148048947409404e-55 2.7125623383383813e-55 0.0000000000000000e+00  9.2633235050320251e-55 1.4455513123183324e-54 0.0000000000000000e+00  9.4149723172401958e-55 6.1549773026848625e-54 0.0000000000000000e+00  -1.1235368866113264e-54 5.8987423022150000e-54 0.0000000000000000e+00  5.1248430840114788e-55 4.6483093739231116e-54 0.0000000000000000e+00  1.9024992539667805e-56 5.7931687843670658e-54 0.0000000000000000e+00  3.0042864839041449e-55 6.1513344387092852e-54 0.0000000000000000e+00  -1.2561080997409512e-54 2.0442702045830419e-54 0.0000000000000000e+00  -6.4287364253956463e-55 1.4724198533007659e-53 0.0000000000000000e+00  4.4443917989507285e-54 7.4681301364305049e-54 0.0000000000000000e+00  -4.3286390944284672e-54 8.0972888520721061e-54 0.0000000000000000e+00  1.9137307103250592e-54 3.9561682071047478e-54 0.0000000000000000e+00  -7.3332314489594708e-55 9.4994049369641627e-54 0.0000000000000000e+00  1.3254601637207991e-54 9.3284003264488690e-54 0.0000000000000000e+00  -1.6781431150367056e-54 4.3974011029301003e-54 0.0000000000000000e+00  -9.2147741220117499e-55 2.4053797665586503e-54 0.0000000000000000e+00  3.3183201194035973e-55 1.2994193257365996e-54 0.0000000000000000e+00  2.6463238441774295e-55 2.5374701639765693e-54 0.0000000000000000e+00  -7.8159825927252162e-56 3.4899720154882305e-54 0.0000000000000000e+00  -7.0881977641893777e-55 1.4820793872352170e-54 0.0000000000000000e+00  2.3696740807084652e-55 4.4241580859389056e-55 0.0000000000000000e+00  -2.3022791656870309e-55 6.0254044327269998e-55 0.0000000000000000e+00  5.0165974546050082e-56 2.3976262306993448e-55 0.0000000000000000e+00  1.8602680295811681e-55 9.5226334448924227e-55 0.0000000000000000e+00  -3.2939233784309933e-55 5.3046209982436051e-55 0.0000000000000000e+00  -1.5864824113411476e-56 4.8233748276944213e-56 0.0000000000000000e+00  -1.1323315714371042e-57 1.1333875307730694e-56 0.0000000000000000e+00  6.7347143670596517e-57 2.3545839498972486e-56 0.0000000000000000e+00  -8.9702829211570053e-57 1.5026866029545936e-56 0.0000000000000000e+00  1.7374448398882152e-57 2.8858063014779499e-57 0.0000000000000000e+00  -1.2413208447243873e-57 2.7251600862020823e-57 0.0000000000000000e+00  5.1643652322051203e-57 7.8055409271092109e-57 0.0000000000000000e+00  -4.5235490543870753e-57 1.1253475547357296e-56 0.0000000000000000e+00  -1.8099038849662346e-58 9.3960713448359319e-58 0.0000000000000000e+00  -2.3872836781368136e-58 4.6537818660650270e-58 0.0000000000000000e+00  -7.8622658336778543e-61 8.8103790056811361e-59 0.0000000000000000e+00  -2.4412445108234810e-59 6.4240563695156452e-59 0.0000000000000000e+00  -7.1026547810295490e-60 2.5000945249974834e-59 0.0000000000000000e+00  -4.3781111298513649e-60 2.2388395232892866e-59 0.0000000000000000e+00  -3.0579168454720385e-60 7.1694305165145500e-60 0.0000000000000000e+00  -8.5097836705660100e-62 4.4355809414691783e-61 0.0000000000000000e+00  -1.0742378631684147e-61 2.2345442405964261e-61 0.0000000000000000e+00  -3.5823147645961620e-62 5.6759387168587564e-62 0.0000000000000000e+00  -3.9048054269484945e-64 6.6995217969565030e-64 0.0000000000000000e+00  -2.4283580657557722e-65 5.1717937216608664e-65 0.0000000000000000e+00  3.7036198541262334e-66 1.0384980416801191e-65 0.0000000000000000e+00  -4.8376686444448371e-66 9.2634730380892728e-66 0.0000000000000000e+00  -6.6935527648571805e-68 2.7713381343318656e-67 0.0000000000000000e+00  -7.8472047063382748e-68 1.2920374468314516e-67 0.0000000000000000e+00  -8.0554858985275895e-69 1.1734540512961904e-68 0.0000000000000000e+00  -5.6301510129864368e-70 9.5217955901220834e-70 0.0000000000000000e+00  -3.7777251123593339e-71 6.8194779690742313e-71 0.0000000000000000e+00  -1.8777688818006829e-72 3.2030444625463788e-72 0.0000000000000000e+00  -1.2174926928675123e-73 2.7268733939521657e-73 0.0000000000000000e+00  -4.4203375462038166e-75 1.2912019666975881e-74 0.0000000000000000e+00  -2.5478974759697213e-75 4.2413409992846825e-75 0.0000000000000000e+00  -9.7691794298672344e-76 3.5580700597934212e-76 0.0000000000000000e+00  -1.6210492286149847e-75 -2.3917571897913356e-76 0.0000000000000000e+00  -2.4491107098652197e-74 1.1589137648647067e-74 0.0000000000000000e+00  -3.6791758849820917e-74 1.5500231436172823e-75 0.0000000000000000e+00  -3.8834102016879943e-73 1.4331661081620629e-73 0.0000000000000000e+00  -1.0239585868292686e-71 6.2365872178132139e-72 0.0000000000000000e+00  -6.7421842539466629e-71 3.7071411336179166e-71 0.0000000000000000e+00  -1.0610563516463872e-70 3.9016680390771698e-72 0.0000000000000000e+00  -8.9018957602644109e-70 3.3078171055959517e-70 0.0000000000000000e+00  -2.1292661742338376e-68 1.2859473092397997e-68 0.0000000000000000e+00  -1.0240213455663114e-67 5.1079843683664493e-68 0.0000000000000000e+00  -1.0131846654980721e-67 -6.0230780720764622e-68 0.0000000000000000e+00  -3.1668571537508532e-66 1.7452056662869164e-66 0.0000000000000000e+00  -3.1864735202469822e-65 1.8307163206876466e-65 0.0000000000000000e+00  -5.3862870928879349e-65 5.0427443114729288e-66 0.0000000000000000e+00  -4.4376905615331880e-64 1.4455883616995161e-64 0.0000000000000000e+00  -6.9967236453122753e-63 4.3557735841012281e-63 0.0000000000000000e+00  -1.5067837746648964e-62 3.7453833783042520e-63 0.0000000000000000e+00  -8.4350773700935729e-62 1.9649472385286040e-62 0.0000000000000000e+00  -1.3557528727584075e-60 8.5097218929129175e-61 0.0000000000000000e+00  -2.4172508195485381e-60 3.3782515090030785e-61 0.0000000000000000e+00  -2.1177293385499951e-59 7.3895023488394302e-60 0.0000000000000000e+00  -2.4186898653769109e-58 1.4925869018598596e-58 0.0000000000000000e+00  -2.5865094362926796e-58 -9.4041373517194390e-59 0.0000000000000000e+00  -5.9813566677328557e-57 2.7773847172000566e-57 0.0000000000000000e+00  -2.4850471230353913e-56 1.2369680687923653e-56 0.0000000000000000e+00  -5.5622378161170964e-56 -8.6653198737554338e-57 0.0000000000000000e+00  -1.0121375398537564e-54 6.4664608350181159e-55 0.0000000000000000e+00  -1.1201308551436062e-54 -3.4559666285838394e-55 0.0000000000000000e+00  -2.4097210135383875e-53 1.2662876243147724e-53 0.0000000000000000e+00  -6.5974136551891789e-53 2.9810516840418495e-53 0.0000000000000000e+00  -4.3583025445821742e-52 1.2210862439198015e-52 0.0000000000000000e+00  -2.6682453178652556e-51 1.6578947171954498e-51 0.0000000000000000e+00  -7.6656370647821214e-51 -2.1308387076792659e-52 0.0000000000000000e+00  -7.2035165412723235e-50 4.5808795942943272e-50 0.0000000000000000e+00  -1.6170216834606049e-49 -1.4713206451987466e-50 0.0000000000000000e+00  -1.7310023491085370e-48 1.0061310813913556e-48 0.0000000000000000e+00  -4.3409828600135886e-48 -2.0293269530546812e-49 0.0000000000000000e+00  -2.0152843612104375e-47 1.1049815605735974e-47 0.0000000000000000e+00  -1.1030391671018810e-46 1.8877231106816256e-47 0.0000000000000000e+00  -1.0250549877347506e-46 2.4484554667127649e-47 0.0000000000000000e+00  -1.2413677083614753e-45 5.2278471048714182e-46 0.0000000000000000e+00  -8.7316070008349331e-46 -5.6498717862504517e-46 0.0000000000000000e+00  -1.3438949898076903e-44 8.0290776227966913e-45 0.0000000000000000e+00  -5.7974203675878479e-44 1.3666597992739016e-44 0.0000000000000000e+00  -3.6142965188269506e-44 -1.7418178283878662e-44 0.0000000000000000e+00  -1.1429599792448934e-43 6.4651138028597419e-44 0.0000000000000000e+00  -8.4145847996890275e-43 2.3033303946964843e-43 0.0000000000000000e+00  -1.9293153805534125e-42 1.9645789708032496e-43 0.0000000000000000e+00  -2.5119166781883777e-42 6.0704392460482685e-44 0.0000000000000000e+00  -2.0146912039098235e-42 -1.9372083919582285e-43 0.0000000000000000e+00  -8.6153197369967593e-43 -2.4918848419878161e-43 0.0000000000000000e+00  -1.1329180017764922e-43 -6.4115974711529651e-44 0.0000000000000000e+00  -3.8702074364919709e-44 1.8401747369587829e-44 0.0000000000000000e+00  -6.3180227862289764e-44 -1.0765959347419591e-44 0.0000000000000000e+00  -1.4998388066192672e-44 -7.8260754791007565e-45 0.0000000000000000e+00  -9.9818865068018304e-46 5.6425162535804161e-46 0.0000000000000000e+00  -1.4047552472012923e-45 -5.3592894414137552e-46 0.0000000000000000e+00  -1.1212630865367187e-46 -2.8410956324862863e-47 0.0000000000000000e+00  -1.0185336406743538e-46 -2.1321588649487595e-47 0.0000000000000000e+00  -1.8630858877995778e-47 -1.1915363034978479e-47 0.0000000000000000e+00  -4.0854136911768616e-48 2.0205631493100131e-49 0.0000000000000000e+00  -1.4886212454668188e-48 -9.3161430708774595e-49 0.0000000000000000e+00  -1.6327404557866800e-49 2.4430748323457417e-50 0.0000000000000000e+00  -7.4670509839779556e-50 -4.4008856530049894e-50 0.0000000000000000e+00  -8.2450201061444711e-51 6.3741332423467187e-52 0.0000000000000000e+00  -3.1493615334645278e-51 -1.7759884248887698e-51 0.0000000000000000e+00  -5.1054562833382379e-52 -1.1421365142859870e-52 0.0000000000000000e+00  -8.2138666164482880e-53 -3.5328742280744163e-53 0.0000000000000000e+00  -2.6648063112500857e-53 -1.3107420664596066e-53 0.0000000000000000e+00  -1.1964767734184836e-54 3.2274117047318360e-55 0.0000000000000000e+00  -1.0651887082303919e-54 -6.7814858473529075e-55 0.0000000000000000e+00  -5.1505316141949470e-56 8.3187743225234012e-57 0.0000000000000000e+00  -2.3393932562550390e-56 -1.3196443041096215e-56 0.0000000000000000e+00  -4.8290637267432290e-57 -2.5139153259816681e-57 0.0000000000000000e+00  -2.4569447659226525e-58 8.5214106182159451e-59 0.0000000000000000e+00  -2.1609141152095505e-58 -1.3249788722127404e-58 0.0000000000000000e+00  -1.9922084207390527e-59 -6.1314187165462599e-60 0.0000000000000000e+00  -2.3755525764656687e-60 -3.3877228503438098e-61 0.0000000000000000e+00  -1.2922059284578267e-60 -7.5915951765055189e-61 0.0000000000000000e+00  -7.6942604441689387e-62 -2.1396356023134194e-62 0.0000000000000000e+00  -1.3598627705241682e-62 -2.9246227578004954e-63 0.0000000000000000e+00  -6.6450496604819024e-63 -3.7815858496547182e-63 0.0000000000000000e+00  -4.7856427571276974e-64 -1.8167435816312261e-64 0.0000000000000000e+00  -4.3637255818922264e-65 9.5657445677762512e-67 0.0000000000000000e+00  -2.9502905212645539e-65 -1.6597783504748505e-65 0.0000000000000000e+00  -3.4155623128752117e-66 -1.9862612334355832e-66 0.0000000000000000e+00  -8.9890619034635979e-68 5.4740607944939277e-68 0.0000000000000000e+00  -8.6408479459130932e-68 -4.1732104070454165e-68 0.0000000000000000e+00  -2.0693652242178880e-68 -1.2838105045607100e-68 0.0000000000000000e+00  -1.1330418831355013e-69 -5.1297101081579985e-70 0.0000000000000000e+00  -8.7933603454892632e-71 1.3779147347690140e-71 0.0000000000000000e+00  -6.9105488426955530e-71 -3.6549433486741139e-71 0.0000000000000000e+00  -1.2483205059691197e-71 -7.6584085388423767e-72 0.0000000000000000e+00  -5.9830665319621294e-73 -2.7500499542911640e-73 0.0000000000000000e+00  -3.9234622311232349e-74 7.4208587545833339e-75 0.0000000000000000e+00  -3.1569455319947280e-74 -1.4786560775966325e-74 0.0000000000000000e+00  -6.5911767208793023e-75 -3.3565967664909091e-75 0.0000000000000000e+00  -7.1800513207482401e-76 -3.1070193907942260e-76 0.0000000000000000e+00  -8.5513422140451326e-76 -1.6228985041854585e-75 0.0000000000000000e+00  -4.7731692632758300e-75 -1.3946259845551084e-74 0.0000000000000000e+00  4.3657032227935748e-75 -8.3076404808880950e-75 0.0000000000000000e+00  -1.6289066534598100e-73 -3.4276732982320865e-73 0.0000000000000000e+00  -9.2814810421007046e-71 -1.0073038330260906e-70 0.0000000000000000e+00  -7.5026393427535662e-70 -1.3180574243929424e-69 0.0000000000000000e+00  -1.0977911736064151e-69 -3.6518135260839414e-69 0.0000000000000000e+00  -7.7559051519234714e-68 -1.7118598202882412e-67 0.0000000000000000e+00  -6.5260217004541008e-68 -3.2603791517248426e-67 0.0000000000000000e+00  -6.7843358761195172e-66 -1.3505298754736754e-65 0.0000000000000000e+00  -4.5155019625767958e-66 -2.1319888060128853e-65 0.0000000000000000e+00  -9.0602354119167388e-65 -1.5583160889270034e-64 0.0000000000000000e+00  1.7200028791235277e-65 -2.1034082768650330e-64 0.0000000000000000e+00  -4.2706439680584649e-62 -6.4064116275878645e-62 0.0000000000000000e+00  -6.9894272945472372e-62 -1.7214037552799339e-61 0.0000000000000000e+00  -2.3227192266171717e-62 -2.7288776635021456e-61 0.0000000000000000e+00  -5.7320524801551966e-60 -1.1368630160871544e-59 0.0000000000000000e+00  4.7597543380134208e-60 -1.5014782425038851e-59 0.0000000000000000e+00  -2.8962163790346277e-59 -4.7522108489802278e-59 0.0000000000000000e+00  8.8059536441002074e-60 -6.0850839906514905e-59 0.0000000000000000e+00  2.3211296679720871e-59 -3.9690999571052976e-59 0.0000000000000000e+00  -5.6275408307304819e-58 -8.9543081272778326e-58 0.0000000000000000e+00  -1.3775302291289256e-59 -1.2602555789343002e-57 0.0000000000000000e+00  -4.6247640340864076e-57 -1.1643397021067930e-56 0.0000000000000000e+00  5.7369413968127616e-57 -8.6670080200943078e-57 0.0000000000000000e+00  -5.3222813529541273e-57 -7.3448139036905030e-57 0.0000000000000000e+00  -1.7631165039440123e-56 -3.7756384684540039e-56 0.0000000000000000e+00  2.1566414138029043e-56 -4.0684718764765173e-56 0.0000000000000000e+00  -4.9905694999216847e-57 -9.2069616742021500e-57 0.0000000000000000e+00  -8.0985024490152231e-56 -2.0320363274895586e-55 0.0000000000000000e+00  6.3545583704410750e-56 -5.0762387538471860e-55 0.0000000000000000e+00  -4.2784767363383201e-55 -7.2630837772924506e-55 0.0000000000000000e+00  -4.8738846094669209e-56 -1.8358231963851905e-54 0.0000000000000000e+00  1.6556944620578110e-55 -5.7378689462090112e-55 0.0000000000000000e+00  -5.1684497939874391e-55 -1.6765769425186199e-54 0.0000000000000000e+00  -2.2474490049116485e-54 -7.0743350898009892e-54 0.0000000000000000e+00  2.5744977524661552e-54 -6.0741561153681773e-54 0.0000000000000000e+00  -6.7009580001878202e-55 -2.3904372394207822e-54 0.0000000000000000e+00  5.3079592979501104e-55 -2.8186763422902857e-54 0.0000000000000000e+00  1.2779141304939671e-55 -1.4247278538133067e-54 0.0000000000000000e+00  -2.1734504919314687e-54 -3.4684496988660883e-54 0.0000000000000000e+00  5.6919410997751260e-55 -8.2269314848045095e-54 0.0000000000000000e+00  -3.9181438207776924e-54 -1.3560801315990840e-53 0.0000000000000000e+00  4.6770217348448285e-54 -7.7120944076779471e-54 0.0000000000000000e+00  2.0249440803639051e-55 -6.5053031177161097e-55 0.0000000000000000e+00  -4.7855022939855366e-54 -8.0109374420463309e-54 0.0000000000000000e+00  4.8110390126037650e-54 -7.8684508155216888e-54 0.0000000000000000e+00  -1.6564362864066021e-56 -1.3350212180853289e-55 0.0000000000000000e+00  1.1115967615245033e-56 -2.7681368103011640e-55 0.0000000000000000e+00  2.1996434491698725e-56 -9.8796868900793239e-56 0.0000000000000000e+00  -5.1874982396026607e-54 -9.3534009672226195e-54 0.0000000000000000e+00  5.5330513885241209e-54 -9.4091777255744503e-54 0.0000000000000000e+00  5.6569789997552677e-56 -1.0520546911185888e-55 0.0000000000000000e+00  -1.4283848162124941e-56 -6.2044041950195306e-56 0.0000000000000000e+00  -4.9837499671259213e-55 -9.0442383510700485e-55 0.0000000000000000e+00  -5.7969513465284382e-54 -1.0042661444245699e-53 0.0000000000000000e+00  4.4902597789518976e-54 -1.0494803349564266e-53 0.0000000000000000e+00  -3.0435241607234813e-54 -7.9831165353853086e-54 0.0000000000000000e+00  2.4318863050685785e-54 -8.5518617977228258e-54 0.0000000000000000e+00  2.2401408767190978e-54 -3.3082386879279418e-54 0.0000000000000000e+00  -5.4219997699311338e-55 -1.4793352641337971e-54 0.0000000000000000e+00  8.3349141977712098e-55 -1.5747361531311810e-54 0.0000000000000000e+00  -4.9104399597238073e-55 -9.8272840584731618e-55 0.0000000000000000e+00  5.1122547743698790e-55 -8.8609760168471386e-55 0.0000000000000000e+00  -1.5627246882579023e-56 -2.6902238090021410e-56 0.0000000000000000e+00  -4.4654383235481248e-56 -1.7213072030622569e-55 0.0000000000000000e+00  4.1633893422421153e-56 -1.7473306765533967e-55 0.0000000000000000e+00  4.7940256000577589e-57 -6.9037163882857977e-56 0.0000000000000000e+00  -2.7424976592082935e-56 -6.5391749687283362e-56 0.0000000000000000e+00  3.2809274755085799e-56 -6.4179657186500126e-56 0.0000000000000000e+00  -2.8526849000479482e-57 -2.8729795895779843e-56 0.0000000000000000e+00  1.2934814778795437e-56 -3.0037262998903231e-56 0.0000000000000000e+00  1.0005258757709741e-57 -2.4003646302555544e-57 0.0000000000000000e+00  -4.3741230551237841e-57 -7.6334758735979924e-57 0.0000000000000000e+00  4.2424548335059212e-57 -1.1012234053230267e-56 0.0000000000000000e+00  3.1191009453161431e-58 -1.0216870972969714e-57 0.0000000000000000e+00  1.4355587486529369e-58 -5.0279