<?xml version="1.0"?>
<VTKFile type="UnstructuredGrid"  version="0.1"  >
<UnstructuredGrid>
<Piece  NumberOfPoints="11902" NumberOfCells="23402">
<Points>
<DataArray  type="Float64"  NumberOfComponents="3"  format="ascii">-5 -5 0  5 -5 0  5 5 0  -5 5 0  1.263374240456201 0.001280702530697824 0  -4.9 -5 0  -4.8 -5 0  -4.7 -5 0  -4.6 -5 0  -4.5 -5 0  -4.4 -5 0  -4.3 -5 0  -4.2 -5 0  -4.1 -5 0  -4 -5 0  -3.9 -5 0  -3.8 -5 0  -3.7 -5 0  -3.6 -5 0  -3.5 -5 0  -3.4 -5 0  -3.3 -5 0  -3.2 -5 0  -3.1 -5 0  -3 -5 0  -2.9 -5 0  -2.8 -5 0  -2.7 -5 0  -2.6 -5 0  -2.5 -5 0  -2.4 -5 0  -2.3 -5 0  -2.2 -5 0  -2.1 -5 0  -2 -5 0  -1.9 -5 0  -1.8 -5 0  -1.7 -5 0  -1.6 -5 0  -1.5 -5 0  -1.4 -5 0  -1.3 -5 0  -1.2 -5 0  -1.1 -5 0  -1 -5 0  -0.9000000000000004 -5 0  -0.7999999999999998 -5 0  -0.7000000000000002 -5 0  -0.5999999999999996 -5 0  -0.5 -5 0  -0.4000000000000004 -5 0  -0.2999999999999998 -5 0  -0.2000000000000002 -5 0  -0.09999999999999964 -5 0  0 -5 0  0.09999999999999964 -5 0  0.2000000000000002 -5 0  0.2999999999999998 -5 0  0.4000000000000004 -5 0  0.5 -5 0  0.5999999999999996 -5 0  0.7000000000000002 -5 0  0.7999999999999998 -5 0  0.9000000000000004 -5 0  1 -5 0  1.1 -5 0  1.2 -5 0  1.3 -5 0  1.4 -5 0  1.5 -5 0  1.6 -5 0  1.7 -5 0  1.8 -5 0  1.9 -5 0  2 -5 0  2.1 -5 0  2.2 -5 0  2.3 -5 0  2.4 -5 0  2.5 -5 0  2.6 -5 0  2.7 -5 0  2.8 -5 0  2.9 -5 0  3 -5 0  3.1 -5 0  3.199999999999999 -5 0  3.300000000000001 -5 0  3.4 -5 0  3.5 -5 0  3.6 -5 0  3.699999999999999 -5 0  3.800000000000001 -5 0  3.9 -5 0  4 -5 0  4.1 -5 0  4.199999999999999 -5 0  4.300000000000001 -5 0  4.4 -5 0  4.5 -5 0  4.6 -5 0  4.699999999999999 -5 0  4.800000000000001 -5 0  4.9 -5 0  5 -4.9 0  5 -4.8 0  5 -4.7 0  5 -4.6 0  5 -4.5 0  5 -4.4 0  5 -4.3 0  5 -4.2 0  5 -4.1 0  5 -4 0  5 -3.9 0  5 -3.8 0  5 -3.7 0  5 -3.6 0  5 -3.5 0  5 -3.4 0  5 -3.3 0  5 -3.2 0  5 -3.1 0  5 -3 0  5 -2.9 0  5 -2.8 0  5 -2.7 0  5 -2.6 0  5 -2.5 0  5 -2.4 0  5 -2.3 0  5 -2.2 0  5 -2.1 0  5 -2 0  5 -1.9 0  5 -1.8 0  5 -1.7 0  5 -1.6 0  5 -1.5 0  5 -1.4 0  5 -1.3 0  5 -1.2 0  5 -1.1 0  5 -1 0  5 -0.9000000000000004 0  5 -0.7999999999999998 0  5 -0.7000000000000002 0  5 -0.5999999999999996 0  5 -0.5 0  5 -0.4000000000000004 0  5 -0.2999999999999998 0  5 -0.2000000000000002 0  5 -0.09999999999999964 0  5 0 0  5 0.09999999999999964 0  5 0.2000000000000002 0  5 0.2999999999999998 0  5 0.4000000000000004 0  5 0.5 0  5 0.5999999999999996 0  5 0.7000000000000002 0  5 0.7999999999999998 0  5 0.9000000000000004 0  5 1 0  5 1.1 0  5 1.2 0  5 1.3 0  5 1.4 0  5 1.5 0  5 1.6 0  5 1.7 0  5 1.8 0  5 1.9 0  5 2 0  5 2.1 0  5 2.2 0  5 2.3 0  5 2.4 0  5 2.5 0  5 2.6 0  5 2.7 0  5 2.8 0  5 2.9 0  5 3 0  5 3.1 0  5 3.199999999999999 0  5 3.300000000000001 0  5 3.4 0  5 3.5 0  5 3.6 0  5 3.699999999999999 0  5 3.800000000000001 0  5 3.9 0  5 4 0  5 4.1 0  5 4.199999999999999 0  5 4.300000000000001 0  5 4.4 0  5 4.5 0  5 4.6 0  5 4.699999999999999 0  5 4.800000000000001 0  5 4.9 0  4.9 5 0  4.8 5 0  4.7 5 0  4.6 5 0  4.5 5 0  4.4 5 0  4.3 5 0  4.2 5 0  4.1 5 0  4 5 0  3.9 5 0  3.8 5 0  3.7 5 0  3.6 5 0  3.5 5 0  3.4 5 0  3.3 5 0  3.2 5 0  3.1 5 0  3 5 0  2.9 5 0  2.8 5 0  2.7 5 0  2.6 5 0  2.5 5 0  2.4 5 0  2.3 5 0  2.2 5 0  2.1 5 0  2 5 0  1.9 5 0  1.8 5 0  1.7 5 0  1.6 5 0  1.5 5 0  1.4 5 0  1.3 5 0  1.2 5 0  1.1 5 0  1 5 0  0.9000000000000004 5 0  0.7999999999999998 5 0  0.7000000000000002 5 0  0.5999999999999996 5 0  0.5 5 0  0.4000000000000004 5 0  0.2999999999999998 5 0  0.2000000000000002 5 0  0.09999999999999964 5 0  0 5 0  -0.09999999999999964 5 0  -0.2000000000000002 5 0  -0.2999999999999998 5 0  -0.4000000000000004 5 0  -0.5 5 0  -0.5999999999999996 5 0  -0.7000000000000002 5 0  -0.7999999999999998 5 0  -0.9000000000000004 5 0  -1 5 0  -1.1 5 0  -1.2 5 0  -1.3 5 0  -1.4 5 0  -1.5 5 0  -1.6 5 0  -1.7 5 0  -1.8 5 0  -1.9 5 0  -2 5 0  -2.1 5 0  -2.2 5 0  -2.3 5 0  -2.4 5 0  -2.5 5 0  -2.6 5 0  -2.7 5 0  -2.8 5 0  -2.9 5 0  -3 5 0  -3.1 5 0  -3.199999999999999 5 0  -3.300000000000001 5 0  -3.4 5 0  -3.5 5 0  -3.6 5 0  -3.699999999999999 5 0  -3.800000000000001 5 0  -3.9 5 0  -4 5 0  -4.1 5 0  -4.199999999999999 5 0  -4.300000000000001 5 0  -4.4 5 0  -4.5 5 0  -4.6 5 0  -4.699999999999999 5 0  -4.800000000000001 5 0  -4.9 5 0  -5 4.9 0  -5 4.8 0  -5 4.7 0  -5 4.6 0  -5 4.5 0  -5 4.4 0  -5 4.3 0  -5 4.2 0  -5 4.1 0  -5 4 0  -5 3.9 0  -5 3.8 0  -5 3.7 0  -5 3.6 0  -5 3.5 0  -5 3.4 0  -5 3.3 0  -5 3.2 0  -5 3.1 0  -5 3 0  -5 2.9 0  -5 2.8 0  -5 2.7 0  -5 2.6 0  -5 2.5 0  -5 2.4 0  -5 2.3 0  -5 2.2 0  -5 2.1 0  -5 2 0  -5 1.9 0  -5 1.8 0  -5 1.7 0  -5 1.6 0  -5 1.5 0  -5 1.4 0  -5 1.3 0  -5 1.2 0  -5 1.1 0  -5 1 0  -5 0.9000000000000004 0  -5 0.7999999999999998 0  -5 0.7000000000000002 0  -5 0.5999999999999996 0  -5 0.5 0  -5 0.4000000000000004 0  -5 0.2999999999999998 0  -5 0.2000000000000002 0  -5 0.09999999999999964 0  -5 0 0  -5 -0.09999999999999964 0  -5 -0.2000000000000002 0  -5 -0.2999999999999998 0  -5 -0.4000000000000004 0  -5 -0.5 0  -5 -0.5999999999999996 0  -5 -0.7000000000000002 0  -5 -0.7999999999999998 0  -5 -0.9000000000000004 0  -5 -1 0  -5 -1.1 0  -5 -1.2 0  -5 -1.3 0  -5 -1.4 0  -5 -1.5 0  -5 -1.6 0  -5 -1.7 0  -5 -1.8 0  -5 -1.9 0  -5 -2 0  -5 -2.1 0  -5 -2.2 0  -5 -2.3 0  -5 -2.4 0  -5 -2.5 0  -5 -2.6 0  -5 -2.7 0  -5 -2.8 0  -5 -2.9 0  -5 -3 0  -5 -3.1 0  -5 -3.199999999999999 0  -5 -3.300000000000001 0  -5 -3.4 0  -5 -3.5 0  -5 -3.6 0  -5 -3.699999999999999 0  -5 -3.800000000000001 0  -5 -3.9 0  -5 -4 0  -5 -4.1 0  -5 -4.199999999999999 0  -5 -4.300000000000001 0  -5 -4.4 0  -5 -4.5 0  -5 -4.6 0  -5 -4.699999999999999 0  -5 -4.800000000000001 0  -5 -4.9 0  1.255186710186753 0.09374103422859448 0  1.233109492662627 0.1915421340518021 0  1.199491518592881 0.2881649338049729 0  1.156717678957338 0.3765297110650594 0  1.098269097632916 0.4675575826064357 0  1.031964388830503 0.5513154431594824 0  0.9533248484137004 0.6316473490918413 0  0.8660925212606259 0.7065670904858776 0  0.7742503961419586 0.7719124086125537 0  0.672078094942017 0.8293335797415816 0  0.5591492328554005 0.881571731069383 0  0.4459752521617852 0.9264273623681595 0  0.3345458636857498 0.9582311242462617 0  0.2087750826068111 0.980282182790059 0  0.08812725456244105 0.9990700063395173 0  -0.02658392922047481 1.002513337096361 0  -0.1442474987670565 0.9887352882753228 0  -0.2732515342420558 0.9692002571211357 0  -0.3930751291115708 0.9450794803049519 0  -0.5030479635974969 0.9095991744564841 0  -0.6127133596129816 0.8631387601523034 0  -0.7147668644732589 0.8081870289041706 0  -0.809369290096084 0.7434889435704523 0  -0.9008794755195435 0.6696993985854525 0  -0.9872328379873782 0.5895329176970752 0  -1.062081594608912 0.5080980314391512 0  -1.124103086952623 0.4233870165982783 0  -1.178619584782397 0.3301986273667565 0  -1.216251500295257 0.2425767191571304 0  -1.240671827795425 0.1486520517077407 0  -1.251178187999401 0.05227036721434227 0  -1.25113751378641 -0.04998629204158309 0  -1.240619724947695 -0.1456443865066938 0  -1.215864321090264 -0.2370370412152691 0  -1.173870917142029 -0.3320673654032918 0  -1.124415316085232 -0.4242669041940061 0  -1.064028666049728 -0.5079947557345439 0  -0.9897557194579418 -0.5885483270029257 0  -0.9040251108955402 -0.6676597254630096 0  -0.8132647672704331 -0.7392347673899567 0  -0.7176857889792581 -0.8000609238658868 0  -0.6129434746444109 -0.8533048538043085 0  -0.4977528285420743 -0.9029826010480214 0  -0.3851239009294004 -0.9429134683531076 0  -0.2699158259800029 -0.9690223738294564 0  -0.1425956534297178 -0.9887262439112735 0  -0.02764386901903107 -1.001752686927196 0  0.08689644024448112 -0.9943516215606359 0  0.2149832622525649 -0.9764346032577982 0  0.3373691936108548 -0.9565055276059202 0  0.4501608015468013 -0.9251059346899908 0  0.5617644248464707 -0.8808102913035097 0  0.6732583102617773 -0.8292495374596356 0  0.7741227817433863 -0.7730652455568445 0  0.8657133434271007 -0.7079350190134465 0  0.951652971926748 -0.6321067481435063 0  1.02945964759938 -0.5500723803904293 0  1.099582969378879 -0.4661590733216759 0  1.157525102871863 -0.3769372785302658 0  1.201266519474433 -0.2862341092944365 0  1.233831232517674 -0.1908069919696707 0  1.255595709656251 -0.09369891196974396 0  -2.44853160092632 4.918060830108148 0  -2.448402918742858 -4.910434173478399 0  4.91035658709393 2.44785116774689 0  4.918488932627221 -2.449316824240549 0  2.446127435369075 -4.895655376278888 0  2.440562076572912 4.899420283296005 0  -4.910383902647021 -2.447878021476886 0  -4.910381185031373 2.447882112110184 0  -1.748484483008811 4.910924802574668 0  -1.744272214746606 -4.914369287777257 0  4.920516334088093 1.744030118600363 0  4.909033478397888 -1.747785649244277 0  -4.909328401001693 -1.747520351641244 0  -4.910151808381797 1.747265894850104 0  1.745755027859174 4.904774390995865 0  1.74716420498013 -4.89290699362263 0  -1.148801712642114 4.908688775976949 0  -1.129661853138007 -4.916615229716278 0  -4.909015375121418 -1.147856903312329 0  -4.908833342399396 1.147657576000249 0  1.143798723274038 -4.912793913944461 0  1.148811475329918 4.908675021654224 0  4.909154504787166 1.146131781683215 0  4.920007526428795 -1.151922289537708 0  -0.5466479103052102 -4.909867219491211 0  -0.5464329283874759 4.918567004402288 0  -4.907723284476186 -0.5486690336878508 0  -4.907747253617138 0.5472272557111751 0  4.907039789951274 -0.5489870443844964 0  4.918723672647966 0.5457492896866153 0  0.5424283714295595 -4.896720935703442 0  0.5511606384486201 4.915383819518284 0  -4.91183359104732 -3.048243771201077 0  4.918408715453279 3.046263157571037 0  4.91134090309574 -3.048218843063339 0  -4.912681826722635 3.045335882154114 0  3.05526114966292 -4.917330436656805 0  -3.048588905201122 -4.911262233298881 0  3.052157128835987 4.913341145891268 0  -3.048034953698152 4.912152652726798 0  -4.906822175601018 -0.04990373125270877 0  0.04511855932827922 -4.911816024981866 0  0.04956568880853542 4.918856314729421 0  4.913893112577943 -0.05128636203571065 0  3.545588041765015 -4.918990342208144 0  -3.54886581247
[...]
<PointData  Vectors="f_5782"> 
<DataArray  type="Float64"  Name="f_5782"  NumberOfComponents="3" format="ascii">2.6559658580600291e-76 2.6559658580600291e-76 0.0000000000000000e+00  -2.8445085011138821e-76 2.8445085011138821e-76 0.0000000000000000e+00  -8.5659604779174143e-78 -8.5659604779174143e-78 0.0000000000000000e+00  3.0308186857311747e-76 -3.0308186857311747e-76 0.0000000000000000e+00  7.8807695680533529e-01 8.4566004827619206e-03 0.0000000000000000e+00  4.1660157388926074e-75 6.6061566356371757e-75 0.0000000000000000e+00  2.0822990642891989e-75 2.0880044960853575e-74 0.0000000000000000e+00  -3.4061229921782546e-75 6.7718005965910771e-75 0.0000000000000000e+00  4.0006309370455202e-72 6.6676914519761904e-72 0.0000000000000000e+00  5.3176351185154368e-71 1.3457608750453004e-70 0.0000000000000000e+00  -7.9215552709879787e-72 4.5553742206933892e-71 0.0000000000000000e+00  3.2350849272297192e-69 6.1617547999765082e-69 0.0000000000000000e+00  5.1628374912757219e-68 9.3977647892737872e-68 0.0000000000000000e+00  -3.0658996390022654e-68 1.5001420777929900e-67 0.0000000000000000e+00  1.2772032691988816e-67 3.9813925205188697e-67 0.0000000000000000e+00  1.2626982136882626e-68 8.7791012192537138e-67 0.0000000000000000e+00  5.4540588353621659e-64 8.8214552521877597e-64 0.0000000000000000e+00  4.7434534570279326e-65 2.4418682345314195e-63 0.0000000000000000e+00  1.3498608869327306e-62 2.1985664770645728e-62 0.0000000000000000e+00  8.0695315990715736e-63 8.3178922931331505e-62 0.0000000000000000e+00  6.9353727804147756e-61 1.1020506738380054e-60 0.0000000000000000e+00  4.0648308662402003e-60 7.0052143868665807e-60 0.0000000000000000e+00  -2.8488570496834056e-60 7.7000862817062948e-60 0.0000000000000000e+00  5.6659376528967468e-59 1.1365884477843355e-58 0.0000000000000000e+00  -1.7600723549677354e-59 1.1647087288864633e-58 0.0000000000000000e+00  -3.0055032001646378e-59 6.8396198442949824e-59 0.0000000000000000e+00  1.8035608403697212e-58 3.3035439359510466e-58 0.0000000000000000e+00  7.3039335672277080e-58 2.0891506680473703e-57 0.0000000000000000e+00  2.8627326876960873e-57 6.2317828668227653e-57 0.0000000000000000e+00  -3.4099346924679499e-57 5.7394094322187173e-57 0.0000000000000000e+00  -3.5252646803304458e-58 1.0979341886753721e-57 0.0000000000000000e+00  1.9101387052201337e-56 2.9312105021045854e-56 0.0000000000000000e+00  -1.4147600816201150e-56 3.5314483577951152e-56 0.0000000000000000e+00  1.1923621100864046e-56 2.8929473043686710e-56 0.0000000000000000e+00  8.7452802852062771e-56 2.0971992352274551e-55 0.0000000000000000e+00  -2.5141400206153109e-56 5.7434880924135148e-55 0.0000000000000000e+00  5.2152016593618794e-57 8.6103330046649990e-57 0.0000000000000000e+00  5.5498769338131973e-56 1.3814582877931512e-55 0.0000000000000000e+00  1.5503943586713424e-55 6.1688447922595966e-55 0.0000000000000000e+00  -2.2385922896727839e-55 3.5172354160696369e-55 0.0000000000000000e+00  9.8464437016804121e-55 1.7225144966313067e-54 0.0000000000000000e+00  -4.4258151241697040e-55 4.3615896131000293e-54 0.0000000000000000e+00  -2.2854779877556621e-55 2.6820682505960270e-54 0.0000000000000000e+00  -9.6296476313957521e-56 9.4399379769199369e-55 0.0000000000000000e+00  -1.1324187097274095e-55 1.8225168815126173e-55 0.0000000000000000e+00  2.7631760500271062e-54 5.2323953773094578e-54 0.0000000000000000e+00  -2.1625106242128629e-54 4.1396832817461316e-54 0.0000000000000000e+00  -7.2010269840203439e-55 8.0827994726553924e-55 0.0000000000000000e+00  -1.3221510198587538e-55 2.7134409876989004e-55 0.0000000000000000e+00  9.3149907408340091e-55 1.4449185818986466e-54 0.0000000000000000e+00  9.4669303703840100e-55 6.1541591657108705e-54 0.0000000000000000e+00  -1.1300217170860469e-54 5.8988566500028614e-54 0.0000000000000000e+00  5.1536586385018494e-55 4.6479054670573288e-54 0.0000000000000000e+00  1.9101902897883858e-56 5.7928307554618157e-54 0.0000000000000000e+00  3.0215161898464268e-55 6.1509855676078568e-54 0.0000000000000000e+00  -1.2633145340485720e-54 2.0440923667585179e-54 0.0000000000000000e+00  -6.4634567321162284e-55 1.4722707359635670e-53 0.0000000000000000e+00  4.4697196532439938e-54 7.4697070226515914e-54 0.0000000000000000e+00  -4.3530822010011793e-54 8.0950459643500990e-54 0.0000000000000000e+00  1.9244776959312990e-54 3.9573051151574364e-54 0.0000000000000000e+00  -7.3707864635681126e-55 9.4983167435496011e-54 0.0000000000000000e+00  1.3330397233006290e-54 9.3290471617974019e-54 0.0000000000000000e+00  -1.6871864707750961e-54 4.3957857864736698e-54 0.0000000000000000e+00  -9.2627788782762406e-55 2.4043095998094205e-54 0.0000000000000000e+00  3.3361854834772202e-55 1.2997485126942235e-54 0.0000000000000000e+00  2.6610340901749293e-55 2.5377027614744719e-54 0.0000000000000000e+00  -7.8360761332616181e-56 3.4897348840995945e-54 0.0000000000000000e+00  -7.1222060951911462e-55 1.4810530047111449e-54 0.0000000000000000e+00  2.3810403185636701e-55 4.4275890534344658e-55 0.0000000000000000e+00  -2.3126126744603749e-55 6.0217405154020000e-55 0.0000000000000000e+00  5.0403518943213147e-56 2.3983768766654895e-55 0.0000000000000000e+00  1.8689356855319234e-55 9.5254961784539086e-55 0.0000000000000000e+00  -3.3075831637283986e-55 5.2990600201607866e-55 0.0000000000000000e+00  -1.5926217985772322e-56 4.8206145139089261e-56 0.0000000000000000e+00  -1.1360079308607404e-57 1.1331820075657768e-56 0.0000000000000000e+00  6.7614037854572201e-57 2.3557496934424181e-56 0.0000000000000000e+00  -9.0017635421522031e-57 1.5011101126343477e-56 0.0000000000000000e+00  1.7435383037775578e-57 2.8888595589239120e-57 0.0000000000000000e+00  -1.2453689375565277e-57 2.7229909019937656e-57 0.0000000000000000e+00  5.1807398690132069e-57 7.8145252243475817e-57 0.0000000000000000e+00  -4.5363388265330218e-57 1.1245832316047493e-56 0.0000000000000000e+00  -1.8150098294882449e-58 9.3930213458992732e-58 0.0000000000000000e+00  -2.3935969564052841e-58 4.6498558713732212e-58 0.0000000000000000e+00  -7.8820771100434214e-61 8.8102524254336916e-59 0.0000000000000000e+00  -2.4470267836916539e-59 6.4202407234185145e-59 0.0000000000000000e+00  -7.1184507622633205e-60 2.4990210663700816e-59 0.0000000000000000e+00  -4.3859934874332144e-60 2.2382533509053425e-59 0.0000000000000000e+00  -3.0635672215291206e-60 7.1653000682671141e-60 0.0000000000000000e+00  -8.5253268836293217e-62 4.4344421692133764e-61 0.0000000000000000e+00  -1.0760415852291314e-61 2.2331882327332012e-61 0.0000000000000000e+00  -3.5876679437686554e-62 5.6717862974427023e-62 0.0000000000000000e+00  -3.9103105130539211e-64 6.6951989418958593e-64 0.0000000000000000e+00  -2.4313765870705312e-65 5.1693631631547334e-65 0.0000000000000000e+00  3.7085087357744987e-66 1.0388877784543712e-65 0.0000000000000000e+00  -4.8425212447832914e-66 9.2594396521921365e-66 0.0000000000000000e+00  -6.6999970044002430e-68 2.7708005299506812e-67 0.0000000000000000e+00  -7.8537119725544856e-68 1.2914864640803154e-67 0.0000000000000000e+00  -8.0612187081554383e-69 1.1729629700828636e-68 0.0000000000000000e+00  -5.6335530972040787e-70 9.5188552027053847e-70 0.0000000000000000e+00  -3.7795821811079668e-71 6.8178597716862828e-71 0.0000000000000000e+00  -1.8784941753702047e-72 3.2024085076296290e-72 0.0000000000000000e+00  -1.2177710254897263e-73 2.7266273494041622e-73 0.0000000000000000e+00  -4.4212241385855107e-75 1.2911236600867693e-74 0.0000000000000000e+00  -2.5481440286178143e-75 4.2411227463391704e-75 0.0000000000000000e+00  -9.7687620497308929e-76 3.5584400402319325e-76 0.0000000000000000e+00  -1.6211540847313091e-75 -2.3926921430510914e-76 0.0000000000000000e+00  -2.4487940827420272e-74 1.1591956052877250e-74 0.0000000000000000e+00  -3.6791124863870194e-74 1.5505912762884954e-75 0.0000000000000000e+00  -3.8828099134513018e-73 1.4337030029112143e-73 0.0000000000000000e+00  -1.0235927504765425e-71 6.2399049090511836e-72 0.0000000000000000e+00  -6.7395758815635790e-71 3.7095321849091573e-71 0.0000000000000000e+00  -1.0610240591316196e-70 3.9046684450702943e-72 0.0000000000000000e+00  -8.8991665922525010e-70 3.3103452315934953e-70 0.0000000000000000e+00  -2.1279857403497022e-68 1.2871629250146843e-68 0.0000000000000000e+00  -1.0234537604179475e-67 5.1134695607439510e-68 0.0000000000000000e+00  -1.0139406245293586e-67 -6.0305679360895108e-68 0.0000000000000000e+00  -3.1646405116087233e-66 1.7474068774365548e-66 0.0000000000000000e+00  -3.1839209981978216e-65 1.8333170211711314e-65 0.0000000000000000e+00  -5.3855254810930814e-65 5.0507122982164273e-66 0.0000000000000000e+00  -4.4355225176394694e-64 1.4478426608921745e-64 0.0000000000000000e+00  -6.9894783076976461e-63 4.3636582544989816e-63 0.0000000000000000e+00  -1.5061212058164766e-62 3.7528270980138481e-63 0.0000000000000000e+00  -8.4317029264447776e-62 1.9686431951522115e-62 0.0000000000000000e+00  -1.3541276463187797e-60 8.5288867269046051e-61 0.0000000000000000e+00  -2.4165730571006866e-60 3.3865703131074429e-61 0.0000000000000000e+00  -2.1162491147368001e-59 7.4075623276509401e-60 0.0000000000000000e+00  -2.4155273720120182e-58 1.4966899442797669e-58 0.0000000000000000e+00  -2.5885766516703717e-58 -9.4323508762487073e-59 0.0000000000000000e+00  -5.9752162974541974e-57 2.7858247014376439e-57 0.0000000000000000e+00  -2.4822324806381247e-56 1.2410691342187437e-56 0.0000000000000000e+00  -5.5643123680133234e-56 -8.7006811848332053e-57 0.0000000000000000e+00  -1.0106300698417925e-54 6.4901203575452113e-55 0.0000000000000000e+00  -1.1209441914664601e-54 -3.4696287836843094e-55 0.0000000000000000e+00  -2.4067359114667003e-53 1.2713494338461988e-53 0.0000000000000000e+00  -6.5904057920902645e-53 2.9938944285329268e-53 0.0000000000000000e+00  -4.3554108243169672e-52 1.2262476901853991e-52 0.0000000000000000e+00  -2.6644163024013980e-51 1.6656665983271610e-51 0.0000000000000000e+00  -7.6659515994286148e-51 -2.1481247202443632e-52 0.0000000000000000e+00  -7.1933402593964951e-50 4.6041391839082663e-50 0.0000000000000000e+00  -1.6172840115995390e-49 -1.4804879737335780e-50 0.0000000000000000e+00  -1.7289048283079758e-48 1.0116190891373684e-48 0.0000000000000000e+00  -4.3412050865479497e-48 -2.0440347635145617e-49 0.0000000000000000e+00  -2.0132019474647307e-47 1.1114262007277531e-47 0.0000000000000000e+00  -1.1026510305919111e-46 1.8983596494247384e-47 0.0000000000000000e+00  -1.0246653022816118e-46 2.4636760818830046e-47 0.0000000000000000e+00  -1.2405343684727883e-45 5.2603915185789910e-46 0.0000000000000000e+00  -8.7385961815850124e-46 -5.6867859413650970e-46 0.0000000000000000e+00  -1.3429142978577336e-44 8.0816427737747225e-45 0.0000000000000000e+00  -5.7956742965720010e-44 1.3755971565744145e-44 0.0000000000000000e+00  -3.6154293534530309e-44 -1.7537322982338167e-44 0.0000000000000000e+00  -1.1425265107770072e-43 6.5092740547570819e-44 0.0000000000000000e+00  -8.4130404359403582e-43 2.3191055257062787e-43 0.0000000000000000e+00  -1.9291185658531550e-42 1.9780425192373577e-43 0.0000000000000000e+00  -2.5117074158401849e-42 6.1125962865665625e-44 0.0000000000000000e+00  -2.0144932061293269e-42 -1.9504850280539041e-43 0.0000000000000000e+00  -8.6137169824611551e-43 -2.5089695722209789e-43 0.0000000000000000e+00  -1.1324901818886472e-43 -6.4554065198259955e-44 0.0000000000000000e+00  -3.8714067545277120e-44 1.8527624458245409e-44 0.0000000000000000e+00  -6.3165550030851833e-44 -1.0835906057768074e-44 0.0000000000000000e+00  -1.4988814137883346e-44 -7.8773117902104649e-45 0.0000000000000000e+00  -9.9888809620272435e-46 5.6793790245861027e-46 0.0000000000000000e+00  -1.4039026209931438e-45 -5.3926809203505526e-46 0.0000000000000000e+00  -1.1208064825794737e-46 -2.8587163676081307e-47 0.0000000000000000e+00  -1.0181098516537905e-46 -2.1443713582127421e-47 0.0000000000000000e+00  -1.8608449973829087e-47 -1.1985001783076723e-47 0.0000000000000000e+00  -4.0856244391797906e-48 2.0353880016564813e-49 0.0000000000000000e+00  -1.4866809335562187e-48 -9.3670625599159085e-49 0.0000000000000000e+00  -1.6332092408976592e-49 2.4574657820402999e-50 0.0000000000000000e+00  -7.4572703748710053e-50 -4.4232460650391981e-50 0.0000000000000000e+00  -8.2462965585080548e-51 6.4122549705855373e-52 0.0000000000000000e+00  -3.1452598433096154e-51 -1.7843305589945050e-51 0.0000000000000000e+00  -5.1027450763341951e-52 -1.1469274890374716e-52 0.0000000000000000e+00  -8.2055576956836814e-53 -3.5481034491725091e-53 0.0000000000000000e+00  -2.6617147202399217e-53 -1.3159927814230150e-53 0.0000000000000000e+00  -1.1972366825962004e-54 3.2401724204614469e-55 0.0000000000000000e+00  -1.0636069145091073e-54 -6.8063093010223616e-55 0.0000000000000000e+00  -5.1525225102617758e-56 8.3526305809652845e-57 0.0000000000000000e+00  -2.3363892573388878e-56 -1.3240185864612433e-56 0.0000000000000000e+00  -4.8235005212106172e-57 -2.5215652541665387e-57 0.0000000000000000e+00  -2.4588203050190128e-58 8.5470359510713585e-59 0.0000000000000000e+00  -2.1581015106345928e-58 -1.3286356276395983e-58 0.0000000000000000e+00  -1.9909823524611892e-59 -6.1463474377162300e-60 0.0000000000000000e+00  -2.3748723800676590e-60 -3.3960785282099212e-61 0.0000000000000000e+00  -1.2907539730908815e-60 -7.6087402056936446e-61 0.0000000000000000e+00  -7.6905205971099564e-62 -2.1437842679696631e-62 0.0000000000000000e+00  -1.3593430954144723e-62 -2.9304779755849198e-63 0.0000000000000000e+00  -6.6387392564302701e-63 -3.7884682635138339e-63 0.0000000000000000e+00  -4.7828707343808611e-64 -1.8196501312884722e-64 0.0000000000000000e+00  -4.3638706034885104e-65 9.5809482178869762e-67 0.0000000000000000e+00  -2.9479710894358137e-65 -1.6621448798078894e-65 0.0000000000000000e+00  -3.4130265704986958e-66 -1.9887846480284191e-66 0.0000000000000000e+00  -8.9960075892285144e-68 5.4809642965242197e-68 0.0000000000000000e+00  -8.6362006220156859e-68 -4.1777073253331714e-68 0.0000000000000000e+00  -2.0680840830335320e-68 -1.2850283314403359e-68 0.0000000000000000e+00  -1.1326068663901886e-69 -5.1337593303246276e-70 0.0000000000000000e+00  -8.7945100818110563e-71 1.3789849257630391e-71 0.0000000000000000e+00  -6.9079723238990708e-71 -3.6573080821764797e-71 0.0000000000000000e+00  -1.2478694747148311e-71 -7.6625043298608816e-72 0.0000000000000000e+00  -5.9818424061896504e-73 -2.7511489582933951e-73 0.0000000000000000e+00  -3.9237795240920450e-74 7.4237081696036815e-75 0.0000000000000000e+00  -3.1565069385657807e-74 -1.4790474001669573e-74 0.0000000000000000e+00  -6.5905756063190335e-75 -3.3571310096562430e-75 0.0000000000000000e+00  -7.1798836138012242e-76 -3.1071680163494861e-76 0.0000000000000000e+00  -8.5520052717638298e-76 -1.6228397208454271e-75 0.0000000000000000e+00  -4.7736010714067825e-75 -1.3945875144675054e-74 0.0000000000000000e+00  4.3672318576160771e-75 -8.3089849377363260e-75 0.0000000000000000e+00  -1.6294992280977415e-73 -3.4271523796201782e-73 0.0000000000000000e+00  -9.2861638733226639e-71 -1.0068951837687350e-70 0.0000000000000000e+00  -7.5073029113348957e-70 -1.3176544081665269e-69 0.0000000000000000e+00  -1.0985905502555220e-69 -3.6511290863233090e-69 0.0000000000000000e+00  -7.7622413661308758e-68 -1.7113219603882781e-67 0.0000000000000000e+00  -6.5322416645658898e-68 -3.2598589950071027e-67 0.0000000000000000e+00  -6.7911450844354912e-66 -1.3499631878604802e-65 0.0000000000000000e+00  -4.5209023840445172e-66 -2.1315507441195961e-65 0.0000000000000000e+00  -9.0719247809784541e-65 -1.5573801746546295e-64 0.0000000000000000e+00  1.7224967785607134e-65 -2.1036032328878725e-64 0.0000000000000000e+00  -4.2770692147162248e-62 -6.4014278708088200e-62 0.0000000000000000e+00  -7.0012312907811692e-62 -1.7205161592371456e-61 0.0000000000000000e+00  -2.3269742713957110e-62 -2.7285655888213565e-61 0.0000000000000000e+00  -5.7428134820052844e-60 -1.1360794858600221e-59 0.0000000000000000e+00  4.7706025277794284e-60 -1.5022111395628579e-59 0.0000000000000000e+00  -2.9025780409280468e-59 -4.7478529483044916e-59 0.0000000000000000e+00  8.8270757561122106e-60 -6.0864726931417757e-59 0.0000000000000000e+00  2.3271909551193870e-59 -3.9729093458000652e-59 0.0000000000000000e+00  -5.6422494926015857e-58 -8.9450686238620714e-58 0.0000000000000000e+00  -1.3814287341793834e-59 -1.2602322683449432e-57 0.0000000000000000e+00  -4.6378448814020472e-57 -1.1635557584667509e-56 0.0000000000000000e+00  5.7553112091892612e-57 -8.6770424649971007e-57 0.0000000000000000e+00  -5.3394950829902631e-57 -7.3354884738573291e-57 0.0000000000000000e+00  -1.7691429493566228e-56 -3.7725318066423155e-56 0.0000000000000000e+00  2.1645277575115592e-56 -4.0722695294785245e-56 0.0000000000000000e+00  -5.0089764100505709e-57 -9.1981823468752387e-57 0.0000000000000000e+00  -8.1290878895780307e-56 -2.0306154772536491e-55 0.0000000000000000e+00  6.3843691972853690e-56 -5.0772560602916470e-55 0.0000000000000000e+00  -4.2962857862754758e-55 -7.2558338158627788e-55 0.0000000000000000e+00  -4.8846529202823438e-56 -1.8357112738234013e-54 0.0000000000000000e+00  1.6631360655809731e-55 -5.7405141294098607e-55 0.0000000000000000e+00  -5.1911623269658141e-55 -1.6757268699104221e-54 0.0000000000000000e+00  -2.2577371556962387e-54 -7.0707982702929087e-54 0.0000000000000000e+00  2.5873561246517288e-54 -6.0776221330889549e-54 0.0000000000000000e+00  -6.7332686584154409e-55 -2.3894585706051647e-54 0.0000000000000000e+00  5.3364877824251614e-55 -2.8192313578978490e-54 0.0000000000000000e+00  1.2852463078535324e-55 -1.4248154522774446e-54 0.0000000000000000e+00  -2.1849631560927518e-54 -3.4660837382959104e-54 0.0000000000000000e+00  5.7261790293290576e-55 -8.2270440686325305e-54 0.0000000000000000e+00  -3.9392095238278181e-54 -1.3556813651018871e-53 0.0000000000000000e+00  4.7031075221641131e-54 -7.7153963196743630e-54 0.0000000000000000e+00  2.0364614585612101e-55 -6.5062631797874159e-55 0.0000000000000000e+00  -4.8125353917344785e-54 -8.0082841228627402e-54 0.0000000000000000e+00  4.8385637932381479e-54 -7.8700128508968354e-54 0.0000000000000000e+00  -1.6659346670944220e-56 -1.3349790525023989e-55 0.0000000000000000e+00  1.1181080958074296e-56 -2.7680074119353761e-55 0.0000000000000000e+00  2.2123047113553148e-56 -9.8796579823469200e-56 0.0000000000000000e+00  -5.2173512903147286e-54 -9.3538106716190731e-54 0.0000000000000000e+00  5.5647095529266752e-54 -9.4074224872242212e-54 0.0000000000000000e+00  5.6891841399908968e-56 -1.0518155591598887e-55 0.0000000000000000e+00  -1.4365794352668810e-56 -6.2048506429406464e-56 0.0000000000000000e+00  -5.0118113502957253e-55 -9.0471874749875807e-55 0.0000000000000000e+00  -5.8292150565117975e-54 -1.0046850733616069e-53 0.0000000000000000e+00  4.5148103332795155e-54 -1.0490857786843676e-53 0.0000000000000000e+00  -3.0599638594522105e-54 -7.9860552784701291e-54 0.0000000000000000e+00  2.4447914417280899e-54 -8.5492497276942123e-54 0.0000000000000000e+00  2.2517756910476390e-54 -3.3055836861545333e-54 0.0000000000000000e+00  -5.4498044338435220e-55 -1.4800075902000284e-54 0.0000000000000000e+00  8.3758183596367859e-55 -1.5735704266426676e-54 0.0000000000000000e+00  -4.9347626204100526e-55 -9.8340118326419260e-55 0.0000000000000000e+00  5.1360861979129747e-55 -8.8531575334840210e-55 0.0000000000000000e+00  -1.5699675269490885e-56 -2.6926312751023759e-56 0.0000000000000000e+00  -4.4864143925951534e-56 -1.7219880855014052e-55 0.0000000000000000e+00  4.1803029286869986e-56 -1.7466105299609638e-55 0.0000000000000000e+00  4.8097481811760089e-57 -6.9028062268023165e-56 0.0000000000000000e+00  -2.7536094296303187e-56 -6.5438861404550727e-56 0.0000000000000000e+00  3.2935473826799239e-56 -6.4122293108280120e-56 0.0000000000000000e+00  -2.8633371578405380e-57 -2.8734814162424507e-56 0.0000000000000000e+00  1.2979227983531424e-56 -3.0014388799743644e-56 0.0000000000000000e+00  1.0038168685265488e-57 -2.3986027915699599e-57 0.0000000000000000e+00  -4.3886658033982823e-57 -7.6411801325910057e-57 0.0000000000000000e+00  4.2550186642841223e-57 -1.1004920634255504e-56 0.0000000000000000e+00  3.1282922450742185e-58 -1.0211512235349453e-57 0.0000000000000000e+00  1.4395665530138491e-58 -5.025480