<?xml version="1.0"?>
<VTKFile type="UnstructuredGrid"  version="0.1"  >
<UnstructuredGrid>
<Piece  NumberOfPoints="11902" NumberOfCells="23402">
<Points>
<DataArray  type="Float64"  NumberOfComponents="3"  format="ascii">-5 -5 0  5 -5 0  5 5 0  -5 5 0  1.255570688879097 0.001352198341671386 0  -4.9 -5 0  -4.8 -5 0  -4.7 -5 0  -4.6 -5 0  -4.5 -5 0  -4.4 -5 0  -4.3 -5 0  -4.2 -5 0  -4.1 -5 0  -4 -5 0  -3.9 -5 0  -3.8 -5 0  -3.7 -5 0  -3.6 -5 0  -3.5 -5 0  -3.4 -5 0  -3.3 -5 0  -3.2 -5 0  -3.1 -5 0  -3 -5 0  -2.9 -5 0  -2.8 -5 0  -2.7 -5 0  -2.6 -5 0  -2.5 -5 0  -2.4 -5 0  -2.3 -5 0  -2.2 -5 0  -2.1 -5 0  -2 -5 0  -1.9 -5 0  -1.8 -5 0  -1.7 -5 0  -1.6 -5 0  -1.5 -5 0  -1.4 -5 0  -1.3 -5 0  -1.2 -5 0  -1.1 -5 0  -1 -5 0  -0.9000000000000004 -5 0  -0.7999999999999998 -5 0  -0.7000000000000002 -5 0  -0.5999999999999996 -5 0  -0.5 -5 0  -0.4000000000000004 -5 0  -0.2999999999999998 -5 0  -0.2000000000000002 -5 0  -0.09999999999999964 -5 0  0 -5 0  0.09999999999999964 -5 0  0.2000000000000002 -5 0  0.2999999999999998 -5 0  0.4000000000000004 -5 0  0.5 -5 0  0.5999999999999996 -5 0  0.7000000000000002 -5 0  0.7999999999999998 -5 0  0.9000000000000004 -5 0  1 -5 0  1.1 -5 0  1.2 -5 0  1.3 -5 0  1.4 -5 0  1.5 -5 0  1.6 -5 0  1.7 -5 0  1.8 -5 0  1.9 -5 0  2 -5 0  2.1 -5 0  2.2 -5 0  2.3 -5 0  2.4 -5 0  2.5 -5 0  2.6 -5 0  2.7 -5 0  2.8 -5 0  2.9 -5 0  3 -5 0  3.1 -5 0  3.199999999999999 -5 0  3.300000000000001 -5 0  3.4 -5 0  3.5 -5 0  3.6 -5 0  3.699999999999999 -5 0  3.800000000000001 -5 0  3.9 -5 0  4 -5 0  4.1 -5 0  4.199999999999999 -5 0  4.300000000000001 -5 0  4.4 -5 0  4.5 -5 0  4.6 -5 0  4.699999999999999 -5 0  4.800000000000001 -5 0  4.9 -5 0  5 -4.9 0  5 -4.8 0  5 -4.7 0  5 -4.6 0  5 -4.5 0  5 -4.4 0  5 -4.3 0  5 -4.2 0  5 -4.1 0  5 -4 0  5 -3.9 0  5 -3.8 0  5 -3.7 0  5 -3.6 0  5 -3.5 0  5 -3.4 0  5 -3.3 0  5 -3.2 0  5 -3.1 0  5 -3 0  5 -2.9 0  5 -2.8 0  5 -2.7 0  5 -2.6 0  5 -2.5 0  5 -2.4 0  5 -2.3 0  5 -2.2 0  5 -2.1 0  5 -2 0  5 -1.9 0  5 -1.8 0  5 -1.7 0  5 -1.6 0  5 -1.5 0  5 -1.4 0  5 -1.3 0  5 -1.2 0  5 -1.1 0  5 -1 0  5 -0.9000000000000004 0  5 -0.7999999999999998 0  5 -0.7000000000000002 0  5 -0.5999999999999996 0  5 -0.5 0  5 -0.4000000000000004 0  5 -0.2999999999999998 0  5 -0.2000000000000002 0  5 -0.09999999999999964 0  5 0 0  5 0.09999999999999964 0  5 0.2000000000000002 0  5 0.2999999999999998 0  5 0.4000000000000004 0  5 0.5 0  5 0.5999999999999996 0  5 0.7000000000000002 0  5 0.7999999999999998 0  5 0.9000000000000004 0  5 1 0  5 1.1 0  5 1.2 0  5 1.3 0  5 1.4 0  5 1.5 0  5 1.6 0  5 1.7 0  5 1.8 0  5 1.9 0  5 2 0  5 2.1 0  5 2.2 0  5 2.3 0  5 2.4 0  5 2.5 0  5 2.6 0  5 2.7 0  5 2.8 0  5 2.9 0  5 3 0  5 3.1 0  5 3.199999999999999 0  5 3.300000000000001 0  5 3.4 0  5 3.5 0  5 3.6 0  5 3.699999999999999 0  5 3.800000000000001 0  5 3.9 0  5 4 0  5 4.1 0  5 4.199999999999999 0  5 4.300000000000001 0  5 4.4 0  5 4.5 0  5 4.6 0  5 4.699999999999999 0  5 4.800000000000001 0  5 4.9 0  4.9 5 0  4.8 5 0  4.7 5 0  4.6 5 0  4.5 5 0  4.4 5 0  4.3 5 0  4.2 5 0  4.1 5 0  4 5 0  3.9 5 0  3.8 5 0  3.7 5 0  3.6 5 0  3.5 5 0  3.4 5 0  3.3 5 0  3.2 5 0  3.1 5 0  3 5 0  2.9 5 0  2.8 5 0  2.7 5 0  2.6 5 0  2.5 5 0  2.4 5 0  2.3 5 0  2.2 5 0  2.1 5 0  2 5 0  1.9 5 0  1.8 5 0  1.7 5 0  1.6 5 0  1.5 5 0  1.4 5 0  1.3 5 0  1.2 5 0  1.1 5 0  1 5 0  0.9000000000000004 5 0  0.7999999999999998 5 0  0.7000000000000002 5 0  0.5999999999999996 5 0  0.5 5 0  0.4000000000000004 5 0  0.2999999999999998 5 0  0.2000000000000002 5 0  0.09999999999999964 5 0  0 5 0  -0.09999999999999964 5 0  -0.2000000000000002 5 0  -0.2999999999999998 5 0  -0.4000000000000004 5 0  -0.5 5 0  -0.5999999999999996 5 0  -0.7000000000000002 5 0  -0.7999999999999998 5 0  -0.9000000000000004 5 0  -1 5 0  -1.1 5 0  -1.2 5 0  -1.3 5 0  -1.4 5 0  -1.5 5 0  -1.6 5 0  -1.7 5 0  -1.8 5 0  -1.9 5 0  -2 5 0  -2.1 5 0  -2.2 5 0  -2.3 5 0  -2.4 5 0  -2.5 5 0  -2.6 5 0  -2.7 5 0  -2.8 5 0  -2.9 5 0  -3 5 0  -3.1 5 0  -3.199999999999999 5 0  -3.300000000000001 5 0  -3.4 5 0  -3.5 5 0  -3.6 5 0  -3.699999999999999 5 0  -3.800000000000001 5 0  -3.9 5 0  -4 5 0  -4.1 5 0  -4.199999999999999 5 0  -4.300000000000001 5 0  -4.4 5 0  -4.5 5 0  -4.6 5 0  -4.699999999999999 5 0  -4.800000000000001 5 0  -4.9 5 0  -5 4.9 0  -5 4.8 0  -5 4.7 0  -5 4.6 0  -5 4.5 0  -5 4.4 0  -5 4.3 0  -5 4.2 0  -5 4.1 0  -5 4 0  -5 3.9 0  -5 3.8 0  -5 3.7 0  -5 3.6 0  -5 3.5 0  -5 3.4 0  -5 3.3 0  -5 3.2 0  -5 3.1 0  -5 3 0  -5 2.9 0  -5 2.8 0  -5 2.7 0  -5 2.6 0  -5 2.5 0  -5 2.4 0  -5 2.3 0  -5 2.2 0  -5 2.1 0  -5 2 0  -5 1.9 0  -5 1.8 0  -5 1.7 0  -5 1.6 0  -5 1.5 0  -5 1.4 0  -5 1.3 0  -5 1.2 0  -5 1.1 0  -5 1 0  -5 0.9000000000000004 0  -5 0.7999999999999998 0  -5 0.7000000000000002 0  -5 0.5999999999999996 0  -5 0.5 0  -5 0.4000000000000004 0  -5 0.2999999999999998 0  -5 0.2000000000000002 0  -5 0.09999999999999964 0  -5 0 0  -5 -0.09999999999999964 0  -5 -0.2000000000000002 0  -5 -0.2999999999999998 0  -5 -0.4000000000000004 0  -5 -0.5 0  -5 -0.5999999999999996 0  -5 -0.7000000000000002 0  -5 -0.7999999999999998 0  -5 -0.9000000000000004 0  -5 -1 0  -5 -1.1 0  -5 -1.2 0  -5 -1.3 0  -5 -1.4 0  -5 -1.5 0  -5 -1.6 0  -5 -1.7 0  -5 -1.8 0  -5 -1.9 0  -5 -2 0  -5 -2.1 0  -5 -2.2 0  -5 -2.3 0  -5 -2.4 0  -5 -2.5 0  -5 -2.6 0  -5 -2.7 0  -5 -2.8 0  -5 -2.9 0  -5 -3 0  -5 -3.1 0  -5 -3.199999999999999 0  -5 -3.300000000000001 0  -5 -3.4 0  -5 -3.5 0  -5 -3.6 0  -5 -3.699999999999999 0  -5 -3.800000000000001 0  -5 -3.9 0  -5 -4 0  -5 -4.1 0  -5 -4.199999999999999 0  -5 -4.300000000000001 0  -5 -4.4 0  -5 -4.5 0  -5 -4.6 0  -5 -4.699999999999999 0  -5 -4.800000000000001 0  -5 -4.9 0  1.247648627534347 0.09527393770369737 0  1.226242791835634 0.1927268960167184 0  1.192886801716572 0.2892317347875368 0  1.150081320375095 0.3781917674735065 0  1.092515190944156 0.468935589703841 0  1.027038024946731 0.553380314307755 0  0.9490403180028762 0.6332477832765364 0  0.8625599536793573 0.7076745006342238 0  0.7708569488726182 0.7730849004499123 0  0.6685886970165194 0.8304730063210323 0  0.5573504995558679 0.8827681469644324 0  0.4451373784344511 0.9268790413859976 0  0.332505748359732 0.9592491277727357 0  0.2085888504128964 0.9807912458680199 0  0.08918132658371832 0.9995449977625903 0  -0.02726029428011542 1.00278021713516 0  -0.1450097682552423 0.9892301274841256 0  -0.2714166803343099 0.9704790615598561 0  -0.3904077616064394 0.9461004064395351 0  -0.5012216115105512 0.9099420034256254 0  -0.6102920665426319 0.8635131210789988 0  -0.7124574693207875 0.8089778199148382 0  -0.8070511925302265 0.7441871111008324 0  -0.8977083697900785 0.6709966842625058 0  -0.9827707405585013 0.5914687760753349 0  -1.05659746627405 0.5103826687689097 0  -1.118262039836174 0.42480582766672 0  -1.170876626519606 0.3327894852596119 0  -1.208847646277829 0.2428609170911987 0  -1.233346136301758 0.1485343207709036 0  -1.244691695961179 0.05132161698207413 0  -1.24464085645642 -0.04922704747723482 0  -1.233303262259676 -0.1457163417591996 0  -1.208543880354633 -0.2386418922217739 0  -1.167632866528183 -0.3334528621295182 0  -1.118568032465992 -0.4250041175547037 0  -1.058179478165291 -0.5101678902570692 0  -0.985136086478145 -0.5904391271907462 0  -0.900697320340562 -0.6688071035831672 0  -0.8104704894359106 -0.7403078606237963 0  -0.714513708025026 -0.8013141627609263 0  -0.6099640134891658 -0.8544438849383065 0  -0.4967680829490425 -0.9038272989034826 0  -0.3839515698351402 -0.9434534335947671 0  -0.2681476240398532 -0.9700890519245263 0  -0.1435922487848213 -0.9889528283356533 0  -0.02795120578619973 -1.001972885462898 0  0.08874384454060426 -0.9948649909073107 0  0.2136982752839794 -0.9775565554141148 0  0.3349600068817594 -0.9576862751341912 0  0.4492644525126358 -0.9255513393528192 0  0.5596921967890449 -0.8819354623244998 0  0.6695030098349005 -0.8305350792000841 0  0.7708322389548379 -0.7742166375230985 0  0.8626717275246907 -0.7086629987321273 0  0.9482624457448429 -0.6333005188034577 0  1.024443667577482 -0.5524588024199296 0  1.093093998797659 -0.4678841272520612 0  1.150951805437493 -0.3784493069095717 0  1.194632631202621 -0.287217638988584 0  1.226886745433894 -0.1918506030046641 0  1.247958424487883 -0.09499759780833704 0  -2.448567402681401 4.918124919057541 0  -2.448442133337552 -4.910504245136162 0  4.910428847100079 2.447900696614689 0  4.918554475529793 -2.449361671180981 0  2.446172871393797 -4.895737512326434 0  2.44060619724395 4.899499855679827 0  -4.910455795875845 -2.44792699769987 0  -4.910453093744074 2.447930897611613 0  -1.748521730198806 4.911017822359333 0  -1.74430814651849 -4.914458783511392 0  4.920607438118879 1.744074942734529 0  4.90913748040502 -1.747836735053578 0  -4.90943160459435 -1.747570931166796 0  -4.910254101752894 1.747315723162971 0  1.745794976080407 4.904874483090403 0  1.747208687138154 -4.893019264288532 0  -1.148831443144645 4.908802110616946 0  -1.12968892941088 -4.916719045594098 0  -4.909144406656948 -1.147898532032673 0  -4.908962652701279 1.147698911002095 0  1.143826721816399 -4.912902435083138 0  1.14884139015788 4.908788788451336 0  4.909284202350557 1.146173804131011 0  4.920121456035722 -1.15195913975102 0  -0.5466637005864577 -4.909991013294583 0  -0.5464468101831672 4.918679024491229 0  -4.907873068848831 -0.5486922289285336 0  -4.907897037091992 0.5472499563946299 0  4.907191636513335 -0.5490103475790257 0  4.918856509352966 0.5457698445289012 0  0.5424455041175613 -4.896863062076283 0  0.5511753846030247 4.915500364970993 0  -4.911882171466976 -3.048284276285918 0  4.918453922097984 3.046301057640109 0  4.911389849717912 -3.048259860116129 0  -4.912730043087923 3.04537592499807 0  3.055292918488705 -4.91737711814228 0  -3.048623196231695 -4.911312266357904 0  3.052190642424511 4.913390299540391 0  -3.04806887520487 4.912202162689189 0  -4.906979706211994 -0.04990615625198978 0  0.04511946281691925 -4.911940886670929 0  0.04956709337173242 4.918971414369373 0  4.914039636768128 -0.0512883134356935 0  3.545613097109861 -4.919022879590991 0  -3.548893053257092 4.91
[...]
<PointData  Vectors="f_4534"> 
<DataArray  type="Float64"  Name="f_4534"  NumberOfComponents="3" format="ascii">2.6559658580600285e-76 2.6559658580600285e-76 0.0000000000000000e+00  -2.8445085011138809e-76 2.8445085011138809e-76 0.0000000000000000e+00  -8.5659604779170941e-78 -8.5659604779170941e-78 0.0000000000000000e+00  3.0308186857311680e-76 -3.0308186857311680e-76 0.0000000000000000e+00  7.4675940612876879e-01 1.4694028491328037e-02 0.0000000000000000e+00  4.1659193628727596e-75 6.6062439976948091e-75 0.0000000000000000e+00  2.0823939093747465e-75 2.0879960422234008e-74 0.0000000000000000e+00  -3.4058425059303641e-75 6.7715481561425812e-75 0.0000000000000000e+00  4.0002764703854409e-72 6.6680102077624481e-72 0.0000000000000000e+00  5.3171280434697717e-71 1.3458067222650577e-70 0.0000000000000000e+00  -7.9202859207558434e-72 4.5552623742257262e-71 0.0000000000000000e+00  3.2345333109545648e-69 6.1622391843907013e-69 0.0000000000000000e+00  5.1617986774853801e-68 9.3986657617472612e-68 0.0000000000000000e+00  -3.0650339635933121e-68 1.5000695666778119e-67 0.0000000000000000e+00  1.2769012152659161e-67 3.9816507612306930e-67 0.0000000000000000e+00  1.2635790242604907e-68 8.7790451026952878e-67 0.0000000000000000e+00  5.4523780888425782e-64 8.8228371547629989e-64 0.0000000000000000e+00  4.7450150383267358e-65 2.4418614937226862e-63 0.0000000000000000e+00  1.3493579737011356e-62 2.1989637356847141e-62 0.0000000000000000e+00  8.0673473692576750e-63 8.3180855905030246e-62 0.0000000000000000e+00  6.9323570735873180e-61 1.1022789549647639e-60 0.0000000000000000e+00  4.0629117612116965e-60 7.0066278940561809e-60 0.0000000000000000e+00  -2.8473925687920800e-60 7.6990419183045197e-60 0.0000000000000000e+00  5.6629819796197382e-59 1.1367981674589826e-58 0.0000000000000000e+00  -1.7590388860540635e-59 1.1646393042107590e-58 0.0000000000000000e+00  -3.0036299911837322e-59 6.8383999729120088e-59 0.0000000000000000e+00  1.8024004599898203e-58 3.3042861863990194e-58 0.0000000000000000e+00  7.2992138522369055e-58 2.0894526618296465e-57 0.0000000000000000e+00  2.8606776419767361e-57 6.2330093139914521e-57 0.0000000000000000e+00  -3.4073147992508986e-57 5.7379226267707169e-57 0.0000000000000000e+00  -3.5224274249917275e-58 1.0977791900978315e-57 0.0000000000000000e+00  1.9085627355845596e-56 2.9320529533894992e-56 0.0000000000000000e+00  -1.4134828426730516e-56 3.5308240927319760e-56 0.0000000000000000e+00  1.1913024998561886e-56 2.8934741373926170e-56 0.0000000000000000e+00  8.7372788700586648e-56 2.0975851425990301e-55 0.0000000000000000e+00  -2.5103879376955088e-56 5.7434030809252235e-55 0.0000000000000000e+00  5.2098967270889984e-57 8.6125556275267273e-57 0.0000000000000000e+00  5.5441677860190400e-56 1.3816938270819344e-55 0.0000000000000000e+00  1.5487852103618256e-55 6.1695027788199389e-55 0.0000000000000000e+00  -2.2360343817718312e-55 3.5163732936861539e-55 0.0000000000000000e+00  9.8351753484027282e-55 1.7228931806306431e-54 0.0000000000000000e+00  -4.4197886653612661e-55 4.3614747788983191e-54 0.0000000000000000e+00  -2.2823295330094348e-55 2.6820157141413310e-54 0.0000000000000000e+00  -9.6167568674023159e-56 9.4396986427340568e-55 0.0000000000000000e+00  -1.1309592872071839e-55 1.8221914050633224e-55 0.0000000000000000e+00  2.7596127395091008e-54 5.2331877665497954e-54 0.0000000000000000e+00  -2.1596407461474691e-54 4.1391523894629593e-54 0.0000000000000000e+00  -7.1913269327514963e-55 8.0812125561040716e-55 0.0000000000000000e+00  -1.3203303618656345e-55 2.7132177127512331e-55 0.0000000000000000e+00  9.3021857836724950e-55 1.4450793714757295e-54 0.0000000000000000e+00  9.4540549196923596e-55 6.1543668452823938e-54 0.0000000000000000e+00  -1.1284139279821475e-54 5.8988267180826528e-54 0.0000000000000000e+00  5.1465160837419293e-55 4.6480080826866547e-54 0.0000000000000000e+00  1.9082841255449668e-56 5.7929163033429340e-54 0.0000000000000000e+00  3.0172436082698882e-55 6.1510741127568943e-54 0.0000000000000000e+00  -1.2615281261164686e-54 2.0441362635084572e-54 0.0000000000000000e+00  -6.4548639517200714e-55 1.4723084000990308e-53 0.0000000000000000e+00  4.4634421493979240e-54 7.4693120689741733e-54 0.0000000000000000e+00  -4.3470251421924731e-54 8.0956094000522413e-54 0.0000000000000000e+00  1.9218148531220099e-54 3.9570193144927137e-54 0.0000000000000000e+00  -7.3614975955223763e-55 9.4985910022294891e-54 0.0000000000000000e+00  1.3311611601798407e-54 9.3288846090399118e-54 0.0000000000000000e+00  -1.6849474014320192e-54 4.3961924500151935e-54 0.0000000000000000e+00  -9.2508999647604774e-55 2.4045790316293596e-54 0.0000000000000000e+00  3.3317623254721001e-55 1.2996656269955154e-54 0.0000000000000000e+00  2.6573905479565995e-55 2.5376441568467185e-54 0.0000000000000000e+00  -7.8311761732833257e-56 3.4897944404319861e-54 0.0000000000000000e+00  -7.1138008461766231e-55 1.4813112005066767e-54 0.0000000000000000e+00  2.3782311220318389e-55 4.4267259825366988e-55 0.0000000000000000e+00  -2.3100609915017383e-55 6.0226614854785982e-55 0.0000000000000000e+00  5.0344822231898769e-56 2.3981880643615252e-55 0.0000000000000000e+00  1.8667944542514932e-55 9.5247762285541849e-55 0.0000000000000000e+00  -3.3042132645031626e-55 5.3004565074752229e-55 0.0000000000000000e+00  -1.5911083682978998e-56 4.8213071586193330e-56 0.0000000000000000e+00  -1.1351034623682816e-57 1.1332334950227092e-56 0.0000000000000000e+00  6.7548229778438331e-57 2.3554570998898650e-56 0.0000000000000000e+00  -8.9940104309655469e-57 1.5015052926462340e-56 0.0000000000000000e+00  1.7420376018259633e-57 2.8880942088397696e-57 0.0000000000000000e+00  -1.2443725960377424e-57 2.7235342822181363e-57 0.0000000000000000e+00  5.1767105648392540e-57 7.8122752736369430e-57 0.0000000000000000e+00  -4.5331944101799105e-57 1.1247744598470266e-56 0.0000000000000000e+00  -1.8137545049087399e-58 9.3937844264730192e-58 0.0000000000000000e+00  -2.3920454703924688e-58 4.6508376463514294e-58 0.0000000000000000e+00  -7.8772101451602544e-61 8.8102840747910778e-59 0.0000000000000000e+00  -2.4456067098750624e-59 6.4211942087131800e-59 0.0000000000000000e+00  -7.1145727092235215e-60 2.4992892105455904e-59 0.0000000000000000e+00  -4.3840603253998745e-60 2.2383996082002843e-59 0.0000000000000000e+00  -3.0621811759558423e-60 7.1663308565187620e-60 0.0000000000000000e+00  -8.5215142083983498e-62 4.4347263493526513e-61 0.0000000000000000e+00  -1.0755992772785201e-61 2.2335265068101606e-61 0.0000000000000000e+00  -3.5863557248789566e-62 5.6728217421331264e-62 0.0000000000000000e+00  -3.9089612699546160e-64 6.6962766957537447e-64 0.0000000000000000e+00  -2.4306370108956785e-65 5.1699689251733852e-65 0.0000000000000000e+00  3.7073107484932187e-66 1.0387906316336231e-65 0.0000000000000000e+00  -4.8413327733468461e-66 9.2604444311568069e-66 0.0000000000000000e+00  -6.6984187964298003e-68 2.7709344479403947e-67 0.0000000000000000e+00  -7.8521186481756557e-68 1.2916236842070356e-67 0.0000000000000000e+00  -8.0598152313871207e-69 1.1730852507471531e-68 0.0000000000000000e+00  -5.6327203277051658e-70 9.5195872607129066e-70 0.0000000000000000e+00  -3.7791276620810510e-71 6.8182625923505232e-71 0.0000000000000000e+00  -1.8783166771000979e-72 3.2025667996085435e-72 0.0000000000000000e+00  -1.2177029204976559e-73 2.7266885810644898e-73 0.0000000000000000e+00  -4.4210071968540945e-75 1.2911431480018673e-74 0.0000000000000000e+00  -2.5480837031728827e-75 4.2411770585532134e-75 0.0000000000000000e+00  -9.7688641721992915e-76 3.5583479711232532e-76 0.0000000000000000e+00  -1.6211284292244646e-75 -2.3924594847491543e-76 0.0000000000000000e+00  -2.4488715535685440e-74 1.1591254700492623e-74 0.0000000000000000e+00  -3.6791279983006598e-74 1.5504499007956863e-75 0.0000000000000000e+00  -3.8829567891471888e-73 1.4335693989844855e-73 0.0000000000000000e+00  -1.0236822557918629e-71 6.2390793861884338e-72 0.0000000000000000e+00  -6.7402140051479435e-71 3.7089372785661273e-71 0.0000000000000000e+00  -1.0610319586454347e-70 3.9039220053002408e-72 0.0000000000000000e+00  -8.8998342258013254e-70 3.3097162681959660e-70 0.0000000000000000e+00  -2.1282989194293930e-68 1.2868605574211920e-68 0.0000000000000000e+00  -1.0235925678572890e-67 5.1121053973743530e-68 0.0000000000000000e+00  -1.0137557816025259e-67 -6.0287056040980613e-68 0.0000000000000000e+00  -3.1651825038821077e-66 1.7468595631650737e-66 0.0000000000000000e+00  -3.1845449994114006e-65 1.8326705203465914e-65 0.0000000000000000e+00  -5.3857116321280283e-65 5.0487320081549305e-66 0.0000000000000000e+00  -4.4360524459480853e-64 1.4472823688670752e-64 0.0000000000000000e+00  -6.9912486833840055e-63 4.3616993246868358e-63 0.0000000000000000e+00  -1.5062830647341720e-62 3.7509782200220652e-63 0.0000000000000000e+00  -8.4325274087210386e-62 1.9677249918351757e-62 0.0000000000000000e+00  -1.3545245340304942e-60 8.5241284474799935e-61 0.0000000000000000e+00  -2.4167385226123367e-60 3.3845055755874177e-61 0.0000000000000000e+00  -2.1166105014911941e-59 7.4030796025126341e-60 0.0000000000000000e+00  -2.4162991498172433e-58 1.4956720022350825e-58 0.0000000000000000e+00  -2.5880723396069809e-58 -9.4253539309396612e-59 0.0000000000000000e+00  -5.9767142094270358e-57 2.7837316966966321e-57 0.0000000000000000e+00  -2.4829188405177233e-56 1.2400525395269764e-56 0.0000000000000000e+00  -5.5638069938601902e-56 -8.6919242569498954e-57 0.0000000000000000e+00  -1.0109975008005419e-54 6.4842583522140173e-55 0.0000000000000000e+00  -1.1207460286164334e-54 -3.4662451708696550e-55 0.0000000000000000e+00  -2.4074631639793969e-53 1.2700958794565599e-53 0.0000000000000000e+00  -6.5921123603210359e-53 2.9907152783424989e-53 0.0000000000000000e+00  -4.3561151022160676e-52 1.2249698339465198e-52 0.0000000000000000e+00  -2.6653482430352060e-51 1.6637436651193250e-51 0.0000000000000000e+00  -7.6658756495163869e-51 -2.1438594908231422e-52 0.0000000000000000e+00  -7.1958155768075275e-50 4.5983870749981412e-50 0.0000000000000000e+00  -1.6172203486851136e-49 -1.4782237228657784e-50 0.0000000000000000e+00  -1.7294147085593720e-48 1.0102625240411563e-48 0.0000000000000000e+00  -4.3411514101722022e-48 -2.0404053751032316e-49 0.0000000000000000e+00  -2.0137077614927340e-47 1.1098338705841838e-47 0.0000000000000000e+00  -1.1027453507259018e-46 1.8957309268916835e-47 0.0000000000000000e+00  -1.0247598512230102e-46 2.4599170075062382e-47 0.0000000000000000e+00  -1.2407365573304270e-45 5.2523539929693301e-46 0.0000000000000000e+00  -8.7369031515859080e-46 -5.6776722604403880e-46 0.0000000000000000e+00  -1.3431518350189944e-44 8.0686652196990018e-45 0.0000000000000000e+00  -5.7960973117779886e-44 1.3733906311979804e-44 0.0000000000000000e+00  -3.6151564544121284e-44 -1.7507916857503206e-44 0.0000000000000000e+00  -1.1426309691935665e-43 6.4983747487452539e-44 0.0000000000000000e+00  -8.4134125821805061e-43 2.3152121006600281e-43 0.0000000000000000e+00  -1.9291661547035348e-42 1.9747196550955600e-43 0.0000000000000000e+00  -2.5117582630308778e-42 6.1021933573540049e-44 0.0000000000000000e+00  -2.0145417431488084e-42 -1.9472081144158510e-43 0.0000000000000000e+00  -8.6141114566969590e-43 -2.5047528080018907e-43 0.0000000000000000e+00  -1.1325954373495282e-43 -6.4445935172797605e-44 0.0000000000000000e+00  -3.8711116167396446e-44 1.8496555593915734e-44 0.0000000000000000e+00  -6.3169142174508547e-44 -1.0818634841715073e-44 0.0000000000000000e+00  -1.4991158589793982e-44 -7.8646613594533824e-45 0.0000000000000000e+00  -9.9871682856967574e-46 5.6702773282453008e-46 0.0000000000000000e+00  -1.4041111605080201e-45 -5.3844333211021026e-46 0.0000000000000000e+00  -1.1209181580413118e-46 -2.8543639525367534e-47 0.0000000000000000e+00  -1.0182134353434250e-46 -2.1413529754059559e-47 0.0000000000000000e+00  -1.8613928140981795e-47 -1.1967793006809697e-47 0.0000000000000000e+00  -4.0855728412511539e-48 2.0317298568355232e-49 0.0000000000000000e+00  -1.4871551903115810e-48 -9.3544734692414219e-49 0.0000000000000000e+00  -1.6330946558944320e-49 2.4539096136192868e-50 0.0000000000000000e+00  -7.4596609722631411e-50 -4.4177149390492106e-50 0.0000000000000000e+00  -8.2459846354845961e-51 6.4028345857438383e-52 0.0000000000000000e+00  -3.1462624818497092e-51 -1.7822659199800833e-51 0.0000000000000000e+00  -5.1034079483985102e-52 -1.1457408275386963e-52 0.0000000000000000e+00  -8.2075891017584022e-53 -3.5443321518828821e-53 0.0000000000000000e+00  -2.6624706901921609e-53 -1.3146919024718526e-53 0.0000000000000000e+00  -1.1970508598744699e-54 3.2370106752440778e-55 0.0000000000000000e+00  -1.0639937873962019e-54 -6.8001558489771341e-55 0.0000000000000000e+00  -5.1520357145230404e-56 8.3442427241889274e-57 0.0000000000000000e+00  -2.3371241526795399e-56 -1.3229336353842159e-56 0.0000000000000000e+00  -4.8248617848148623e-57 -2.5196669564699414e-57 0.0000000000000000e+00  -2.4583613653062621e-58 8.5406767850553949e-59 0.0000000000000000e+00  -2.1587898877480964e-58 -1.3277277773101412e-58 0.0000000000000000e+00  -1.9912825135980454e-59 -6.1426389069491448e-60 0.0000000000000000e+00  -2.3750388978401342e-60 -3.3940030157935114e-61 0.0000000000000000e+00  -1.2911094898113161e-60 -7.6044798348491930e-61 0.0000000000000000e+00  -7.6914365892048984e-62 -2.1427527136801434e-62 0.0000000000000000e+00  -1.3594703691702530e-62 -2.9290223300923990e-63 0.0000000000000000e+00  -6.6402849895576519e-63 -3.7867566848659772e-63 0.0000000000000000e+00  -4.7835498773055656e-64 -1.8189270071043888e-64 0.0000000000000000e+00  -4.3638350732317391e-65 9.5771656788476031e-67 0.0000000000000000e+00  -2.9485394302663945e-65 -1.6615559368512749e-65 0.0000000000000000e+00  -3.4136479965177428e-66 -1.9881564923357117e-66 0.0000000000000000e+00  -8.9943054223577409e-68 5.4792457801015930e-68 0.0000000000000000e+00  -8.6373396890408792e-68 -4.1765875684653146e-68 0.0000000000000000e+00  -2.0683981207163206e-68 -1.2847250283999881e-68 0.0000000000000000e+00  -1.1327135098140939e-69 -5.1327506373168546e-70 0.0000000000000000e+00  -8.7942282268263282e-71 1.3787183333670153e-71 0.0000000000000000e+00  -6.9086039893775612e-71 -3.6567189256519063e-71 0.0000000000000000e+00  -1.2479800550754736e-71 -7.6614837876012771e-72 0.0000000000000000e+00  -5.9821425376258544e-73 -2.7508750936439882e-73 0.0000000000000000e+00  -3.9237017303676637e-74 7.4229981173311877e-75 0.0000000000000000e+00  -3.1566144731671396e-74 -1.4789498813629757e-74 0.0000000000000000e+00  -6.5907229864913956e-75 -3.3569978727918136e-75 0.0000000000000000e+00  -7.1799247302004057e-76 -3.1071309787693597e-76 0.0000000000000000e+00  -8.5518427075452815e-76 -1.6228543699798107e-75 0.0000000000000000e+00  -4.7734952110913245e-75 -1.3945971004673233e-74 0.0000000000000000e+00  4.3668570135521377e-75 -8.3086498192519690e-75 0.0000000000000000e+00  -1.6293539187575936e-73 -3.4272822249321419e-73 0.0000000000000000e+00  -9.2850154157862126e-71 -1.0069970621629205e-70 0.0000000000000000e+00  -7.5061590509822565e-70 -1.3177548992955203e-69 0.0000000000000000e+00  -1.0983944595356788e-69 -3.6512997793437058e-69 0.0000000000000000e+00  -7.7606869109930386e-68 -1.7114561180467746e-67 0.0000000000000000e+00  -6.5307154501091545e-68 -3.2599887725108540e-67 0.0000000000000000e+00  -6.7894741935481883e-66 -1.3501045868538819e-65 0.0000000000000000e+00  -4.5195768150212747e-66 -2.1316600970094264e-65 0.0000000000000000e+00  -9.0690551400304945e-65 -1.5576138583430516e-64 0.0000000000000000e+00  1.7218843892342832e-65 -2.1035545353570313e-64 0.0000000000000000e+00  -4.2754913309770382e-62 -6.4026729186694129e-62 0.0000000000000000e+00  -6.9983316020349868e-62 -1.7207380141244009e-61 0.0000000000000000e+00  -2.3259287395249726e-62 -2.7286436246752950e-61 0.0000000000000000e+00  -5.7401691406042920e-60 -1.1362754359365495e-59 0.0000000000000000e+00  4.7679347847552114e-60 -1.5020276219316489e-59 0.0000000000000000e+00  -2.9010138148308844e-59 -4.7489439072253367e-59 0.0000000000000000e+00  8.8218800927968242e-60 -6.0861248074839041e-59 0.0000000000000000e+00  2.3256993546401935e-59 -3.9719543424909313e-59 0.0000000000000000e+00  -5.6386298744140986e-58 -8.9473849614638835e-58 0.0000000000000000e+00  -1.3804689251485434e-59 -1.2602381170148660e-57 0.0000000000000000e+00  -4.6346244662255578e-57 -1.1637524455998370e-56 0.0000000000000000e+00  5.7507849872939467e-57 -8.6745211754990610e-57 0.0000000000000000e+00  -5.3352534205795677e-57 -7.3378319339673502e-57 0.0000000000000000e+00  -1.7676573685278150e-56 -3.7733131035472061e-56 0.0000000000000000e+00  2.1625826617470821e-56 -4.0713134621698702e-56 0.0000000000000000e+00  -5.0044361797414608e-57 -9.2003929310579064e-57 0.0000000000000000e+00  -8.1215422802397998e-56 -2.0309733784423358e-55 0.0000000000000000e+00  6.3770007217786701e-56 -5.0769985740767448e-55 0.0000000000000000e+00  -4.2918882845318318e-55 -7.2576635178217594e-55 0.0000000000000000e+00  -4.8820185530962938e-56 -1.8357393012326540e-54 0.0000000000000000e+00  1.6612971173739842e-55 -5.7398453068236936e-55 0.0000000000000000e+00  -5.1855511230947455e-55 -1.6759416775818798e-54 0.0000000000000000e+00  -2.2551943249609097e-54 -7.0716930050609020e-54 0.0000000000000000e+00  2.5841748581534504e-54 -6.0767425852322524e-54 0.0000000000000000e+00  -6.7252781041218084e-55 -2.3897065693307530e-54 0.0000000000000000e+00  5.3294233753224022e-55 -2.8190898910875908e-54 0.0000000000000000e+00  1.2834292483616700e-55 -1.4247929262004206e-54 0.0000000000000000e+00  -2.1821127619868206e-54 -3.4666861789189399e-54 0.0000000000000000e+00  5.7176890881537886e-55 -8.2270136308656054e-54 0.0000000000000000e+00  -3.9339929514905693e-54 -1.3557830237033288e-53 0.0000000000000000e+00  4.6966447888098834e-54 -7.7145496924027866e-54 0.0000000000000000e+00  2.0336073496671894e-55 -6.5060149705097348e-55 0.0000000000000000e+00  -4.8058369119780687e-54 -8.0089676034357847e-54 0.0000000000000000e+00  4.8317425098374404e-54 -7.8696047513844287e-54 0.0000000000000000e+00  -1.6635806945514965e-56 -1.3349901714248752e-55 0.0000000000000000e+00  1.1164943938997345e-56 -2.7680398211179667e-55 0.0000000000000000e+00  2.2091668974928573e-56 -9.8796592637204276e-56 0.0000000000000000e+00  -5.2099530275632033e-54 -9.3537213332419955e-54 0.0000000000000000e+00  5.5568651056901012e-54 -9.4078513226430112e-54 0.0000000000000000e+00  5.6812049996899357e-56 -1.0518745079170563e-55 0.0000000000000000e+00  -1.4345488401859855e-56 -6.2047416324424647e-56 0.0000000000000000e+00  -5.0048603467191619e-55 -9.0464550142142561e-55 0.0000000000000000e+00  -5.8212247943557917e-54 -1.0045806757048260e-53 0.0000000000000000e+00  4.5087321547243080e-54 -1.0491843600263949e-53 0.0000000000000000e+00  -3.0558945793709887e-54 -7.9853202623602741e-54 0.0000000000000000e+00  2.4415979862944883e-54 -8.5499036951226320e-54 0.0000000000000000e+00  2.2488975611428979e-54 -3.3062489079472900e-54 0.0000000000000000e+00  -5.4429276679208305e-55 -1.4798390909949913e-54 0.0000000000000000e+00  8.3657083261715996e-55 -1.5738627599975603e-54 0.0000000000000000e+00  -4.9287501387365307e-55 -9.8323248266029393e-55 0.0000000000000000e+00  5.1302000633128614e-55 -8.8551184975326017e-55 0.0000000000000000e+00  -1.5681787705242798e-56 -2.6920275628106804e-56 0.0000000000000000e+00  -4.4812331317508132e-56 -1.7218173108589484e-55 0.0000000000000000e+00  4.1761325853759299e-56 -1.7467910793467362e-55 0.0000000000000000e+00  4.8058822216363219e-57 -6.9030342127241713e-56 0.0000000000000000e+00  -2.7508695570297115e-56 -6.5427051172012149e-56 0.0000000000000000e+00  3.2904373402480874e-56 -6.4136669649108282e-56 0.0000000000000000e+00  -2.8607126478612289e-57 -2.8733557029628548e-56 0.0000000000000000e+00  1.2968294954379351e-56 -3.0020117216080934e-56 0.0000000000000000e+00  1.0030070370346628e-57 -2.3990438855596156e-57 0.0000000000000000e+00  -4.3850868295178247e-57 -7.6392511720051751e-57 0.0000000000000000e+00  4.2519296005657061e-57 -1.1006750408264670e-56 0.0000000000000000e+00  3.1260324155704113e-58 -1.0212852919756711e-57 0.0000000000000000e+00  1.4385815467070591e-58 -5.026086