<?xml version="1.0"?>
<VTKFile type="UnstructuredGrid"  version="0.1"  >
<UnstructuredGrid>
<Piece  NumberOfPoints="11902" NumberOfCells="23402">
<Points>
<DataArray  type="Float64"  NumberOfComponents="3"  format="ascii">-5 -5 0  5 -5 0  5 5 0  -5 5 0  1.265304060949899 0.001270005583110832 0  -4.9 -5 0  -4.8 -5 0  -4.7 -5 0  -4.6 -5 0  -4.5 -5 0  -4.4 -5 0  -4.3 -5 0  -4.2 -5 0  -4.1 -5 0  -4 -5 0  -3.9 -5 0  -3.8 -5 0  -3.7 -5 0  -3.6 -5 0  -3.5 -5 0  -3.4 -5 0  -3.3 -5 0  -3.2 -5 0  -3.1 -5 0  -3 -5 0  -2.9 -5 0  -2.8 -5 0  -2.7 -5 0  -2.6 -5 0  -2.5 -5 0  -2.4 -5 0  -2.3 -5 0  -2.2 -5 0  -2.1 -5 0  -2 -5 0  -1.9 -5 0  -1.8 -5 0  -1.7 -5 0  -1.6 -5 0  -1.5 -5 0  -1.4 -5 0  -1.3 -5 0  -1.2 -5 0  -1.1 -5 0  -1 -5 0  -0.9000000000000004 -5 0  -0.7999999999999998 -5 0  -0.7000000000000002 -5 0  -0.5999999999999996 -5 0  -0.5 -5 0  -0.4000000000000004 -5 0  -0.2999999999999998 -5 0  -0.2000000000000002 -5 0  -0.09999999999999964 -5 0  0 -5 0  0.09999999999999964 -5 0  0.2000000000000002 -5 0  0.2999999999999998 -5 0  0.4000000000000004 -5 0  0.5 -5 0  0.5999999999999996 -5 0  0.7000000000000002 -5 0  0.7999999999999998 -5 0  0.9000000000000004 -5 0  1 -5 0  1.1 -5 0  1.2 -5 0  1.3 -5 0  1.4 -5 0  1.5 -5 0  1.6 -5 0  1.7 -5 0  1.8 -5 0  1.9 -5 0  2 -5 0  2.1 -5 0  2.2 -5 0  2.3 -5 0  2.4 -5 0  2.5 -5 0  2.6 -5 0  2.7 -5 0  2.8 -5 0  2.9 -5 0  3 -5 0  3.1 -5 0  3.199999999999999 -5 0  3.300000000000001 -5 0  3.4 -5 0  3.5 -5 0  3.6 -5 0  3.699999999999999 -5 0  3.800000000000001 -5 0  3.9 -5 0  4 -5 0  4.1 -5 0  4.199999999999999 -5 0  4.300000000000001 -5 0  4.4 -5 0  4.5 -5 0  4.6 -5 0  4.699999999999999 -5 0  4.800000000000001 -5 0  4.9 -5 0  5 -4.9 0  5 -4.8 0  5 -4.7 0  5 -4.6 0  5 -4.5 0  5 -4.4 0  5 -4.3 0  5 -4.2 0  5 -4.1 0  5 -4 0  5 -3.9 0  5 -3.8 0  5 -3.7 0  5 -3.6 0  5 -3.5 0  5 -3.4 0  5 -3.3 0  5 -3.2 0  5 -3.1 0  5 -3 0  5 -2.9 0  5 -2.8 0  5 -2.7 0  5 -2.6 0  5 -2.5 0  5 -2.4 0  5 -2.3 0  5 -2.2 0  5 -2.1 0  5 -2 0  5 -1.9 0  5 -1.8 0  5 -1.7 0  5 -1.6 0  5 -1.5 0  5 -1.4 0  5 -1.3 0  5 -1.2 0  5 -1.1 0  5 -1 0  5 -0.9000000000000004 0  5 -0.7999999999999998 0  5 -0.7000000000000002 0  5 -0.5999999999999996 0  5 -0.5 0  5 -0.4000000000000004 0  5 -0.2999999999999998 0  5 -0.2000000000000002 0  5 -0.09999999999999964 0  5 0 0  5 0.09999999999999964 0  5 0.2000000000000002 0  5 0.2999999999999998 0  5 0.4000000000000004 0  5 0.5 0  5 0.5999999999999996 0  5 0.7000000000000002 0  5 0.7999999999999998 0  5 0.9000000000000004 0  5 1 0  5 1.1 0  5 1.2 0  5 1.3 0  5 1.4 0  5 1.5 0  5 1.6 0  5 1.7 0  5 1.8 0  5 1.9 0  5 2 0  5 2.1 0  5 2.2 0  5 2.3 0  5 2.4 0  5 2.5 0  5 2.6 0  5 2.7 0  5 2.8 0  5 2.9 0  5 3 0  5 3.1 0  5 3.199999999999999 0  5 3.300000000000001 0  5 3.4 0  5 3.5 0  5 3.6 0  5 3.699999999999999 0  5 3.800000000000001 0  5 3.9 0  5 4 0  5 4.1 0  5 4.199999999999999 0  5 4.300000000000001 0  5 4.4 0  5 4.5 0  5 4.6 0  5 4.699999999999999 0  5 4.800000000000001 0  5 4.9 0  4.9 5 0  4.8 5 0  4.7 5 0  4.6 5 0  4.5 5 0  4.4 5 0  4.3 5 0  4.2 5 0  4.1 5 0  4 5 0  3.9 5 0  3.8 5 0  3.7 5 0  3.6 5 0  3.5 5 0  3.4 5 0  3.3 5 0  3.2 5 0  3.1 5 0  3 5 0  2.9 5 0  2.8 5 0  2.7 5 0  2.6 5 0  2.5 5 0  2.4 5 0  2.3 5 0  2.2 5 0  2.1 5 0  2 5 0  1.9 5 0  1.8 5 0  1.7 5 0  1.6 5 0  1.5 5 0  1.4 5 0  1.3 5 0  1.2 5 0  1.1 5 0  1 5 0  0.9000000000000004 5 0  0.7999999999999998 5 0  0.7000000000000002 5 0  0.5999999999999996 5 0  0.5 5 0  0.4000000000000004 5 0  0.2999999999999998 5 0  0.2000000000000002 5 0  0.09999999999999964 5 0  0 5 0  -0.09999999999999964 5 0  -0.2000000000000002 5 0  -0.2999999999999998 5 0  -0.4000000000000004 5 0  -0.5 5 0  -0.5999999999999996 5 0  -0.7000000000000002 5 0  -0.7999999999999998 5 0  -0.9000000000000004 5 0  -1 5 0  -1.1 5 0  -1.2 5 0  -1.3 5 0  -1.4 5 0  -1.5 5 0  -1.6 5 0  -1.7 5 0  -1.8 5 0  -1.9 5 0  -2 5 0  -2.1 5 0  -2.2 5 0  -2.3 5 0  -2.4 5 0  -2.5 5 0  -2.6 5 0  -2.7 5 0  -2.8 5 0  -2.9 5 0  -3 5 0  -3.1 5 0  -3.199999999999999 5 0  -3.300000000000001 5 0  -3.4 5 0  -3.5 5 0  -3.6 5 0  -3.699999999999999 5 0  -3.800000000000001 5 0  -3.9 5 0  -4 5 0  -4.1 5 0  -4.199999999999999 5 0  -4.300000000000001 5 0  -4.4 5 0  -4.5 5 0  -4.6 5 0  -4.699999999999999 5 0  -4.800000000000001 5 0  -4.9 5 0  -5 4.9 0  -5 4.8 0  -5 4.7 0  -5 4.6 0  -5 4.5 0  -5 4.4 0  -5 4.3 0  -5 4.2 0  -5 4.1 0  -5 4 0  -5 3.9 0  -5 3.8 0  -5 3.7 0  -5 3.6 0  -5 3.5 0  -5 3.4 0  -5 3.3 0  -5 3.2 0  -5 3.1 0  -5 3 0  -5 2.9 0  -5 2.8 0  -5 2.7 0  -5 2.6 0  -5 2.5 0  -5 2.4 0  -5 2.3 0  -5 2.2 0  -5 2.1 0  -5 2 0  -5 1.9 0  -5 1.8 0  -5 1.7 0  -5 1.6 0  -5 1.5 0  -5 1.4 0  -5 1.3 0  -5 1.2 0  -5 1.1 0  -5 1 0  -5 0.9000000000000004 0  -5 0.7999999999999998 0  -5 0.7000000000000002 0  -5 0.5999999999999996 0  -5 0.5 0  -5 0.4000000000000004 0  -5 0.2999999999999998 0  -5 0.2000000000000002 0  -5 0.09999999999999964 0  -5 0 0  -5 -0.09999999999999964 0  -5 -0.2000000000000002 0  -5 -0.2999999999999998 0  -5 -0.4000000000000004 0  -5 -0.5 0  -5 -0.5999999999999996 0  -5 -0.7000000000000002 0  -5 -0.7999999999999998 0  -5 -0.9000000000000004 0  -5 -1 0  -5 -1.1 0  -5 -1.2 0  -5 -1.3 0  -5 -1.4 0  -5 -1.5 0  -5 -1.6 0  -5 -1.7 0  -5 -1.8 0  -5 -1.9 0  -5 -2 0  -5 -2.1 0  -5 -2.2 0  -5 -2.3 0  -5 -2.4 0  -5 -2.5 0  -5 -2.6 0  -5 -2.7 0  -5 -2.8 0  -5 -2.9 0  -5 -3 0  -5 -3.1 0  -5 -3.199999999999999 0  -5 -3.300000000000001 0  -5 -3.4 0  -5 -3.5 0  -5 -3.6 0  -5 -3.699999999999999 0  -5 -3.800000000000001 0  -5 -3.9 0  -5 -4 0  -5 -4.1 0  -5 -4.199999999999999 0  -5 -4.300000000000001 0  -5 -4.4 0  -5 -4.5 0  -5 -4.6 0  -5 -4.699999999999999 0  -5 -4.800000000000001 0  -5 -4.9 0  1.257380740262842 0.09244018452153585 0  1.235201021496801 0.1901767302262297 0  1.201232381131208 0.2870950737522934 0  1.158566429678789 0.375658091089859 0  1.099739494465476 0.4668797482413126 0  1.032840356033726 0.5501064731446428 0  0.9543644314993138 0.6307146887511181 0  0.8671208006269862 0.7055607604210004 0  0.7752993292087926 0.7706371321285658 0  0.6736995183810059 0.828119366260903 0  0.5599272421283257 0.8803663782406496 0  0.4460017309644754 0.9254494611443743 0  0.3359882398166307 0.9568591782734387 0  0.2088140487653897 0.9797666985883422 0  0.08706886863674138 0.9979229174241496 0  -0.02610769794136293 1.001554419843344 0  -0.1437740816232133 0.988057773781894 0  -0.2745656033455244 0.9678795069243377 0  -0.3950502258391747 0.943583357483852 0  -0.5040890786107117 0.9087598050522683 0  -0.6134356437532165 0.8624016415370187 0  -0.7153170652187676 0.8071306676404318 0  -0.8096107396893442 0.7429380668076654 0  -0.9013205667551331 0.6691887792494792 0  -0.9881174471243562 0.588727807537204 0  -1.06312555034418 0.5068221188911783 0  -1.125499272358489 0.4227556809422701 0  -1.181389640141447 0.3281485872450249 0  -1.218531261121898 0.2419575470863085 0  -1.242755287913737 0.1485110902183615 0  -1.252835969781491 0.05288891677638597 0  -1.252766240496177 -0.05058456019925552 0  -1.242581107407272 -0.1454694043694344 0  -1.218173684021573 -0.2356003505110461 0  -1.175689801396414 -0.3312203944566832 0  -1.12579515627843 -0.4239175815247743 0  -1.065448842845088 -0.5065607248846627 0  -0.9907209632426027 -0.5877435471189119 0  -0.9045210288693885 -0.6671564589288564 0  -0.8138589686050115 -0.7382301649070604 0  -0.7188245574549627 -0.7986633250740874 0  -0.6143719354126279 -0.8521586969038428 0  -0.497839014674045 -0.9019623419506358 0  -0.3856498777957237 -0.9418261301257193 0  -0.2712579390420943 -0.9677477778194705 0  -0.1419523189323347 -0.9881539933928264 0  -0.02743115289912416 -1.000780126340789 0  0.08516401678527741 -0.9934037204106606 0  0.2157450094377898 -0.9753298807318269 0  0.3390884404681006 -0.9549045207554423 0  0.4502793619226592 -0.9241044962062676 0  0.5628155050159821 -0.8795635409131626 0  0.6750673322936105 -0.8278904213785512 0  0.7749600259571199 -0.7719139369483499 0  0.8658799451214084 -0.7074964046295406 0  0.951425643324469 -0.6317611826646246 0  1.030532294332956 -0.5485418024650399 0  1.101752926776808 -0.464800348790197 0  1.159513358742247 -0.3758186555473588 0  1.203096431425822 -0.2851825268167834 0  1.235945325186356 -0.1896243253685911 0  1.257794977145325 -0.09267691119169359 0  -2.448511701474589 4.918026238614569 0  -2.448381035767397 -4.910396315588575 0  4.910316736955997 2.447824650768844 0  4.918452756888954 -2.449292868604233 0  2.446102081287294 -4.895611027706566 0  2.440537468143681 4.899377227165768 0  -4.910344048591868 -2.447851878712634 0  -4.910341371288018 2.447856099958825 0  -1.748463799840585 4.910874419779357 0  -1.744252147925866 -4.914320779663534 0  4.92046620575157 1.744006176147237 0  4.908976217421149 -1.747758420160779 0  -4.9092713018016 -1.747493430390473 0  -4.91009526120125 1.747239392885519 0  1.745732646234076 4.904720076336245 0  1.747139296483028 -4.892846181148952 0  -1.148785262288367 4.908627217044192 0  -1.129646742669019 -4.916558819043019 0  -4.908944103536622 -1.147834798333791 0  -4.908761956595244 1.147635628406556 0  1.143782984776076 -4.912734980418135 0  1.148794614100325 4.908613150983583 0  4.90908326410697 1.146109373684574 0  4.919944921384773 -1.151902679699582 0  -0.5466391412939817 -4.909799847666989 0  -0.5464253499598177 4.918506033034643 0  -4.907640651913373 -0.5486567431748947 0  -4.907664643668646 0.5472152093448005 0  4.906956465780667 -0.5489746610309123 0  4.91865079339799 0.5457383378975142 0  0.5424186696663675 -4.896643607925598 0  0.5511522083274734 4.915320347570623 0  -4.911806622648144 -3.048222102413478 0  4.918383740246774 3.046242828974099 0  4.911313835826038 -3.04819689417611 0  -4.912655102175492 3.045314487289654 0  3.055243465895482 -4.917305293147084 0  -3.048569790774007 -4.911235269949144 0  3.052138489441519 4.913314610693209 0  -3.048016104004715 4.912126001610913 0  -4.906735311003394 -0.04990245884796643 0  0.04511796212569608 -4.911748044657132 0  0.04956470840854541 4.918793612123443 0  4.913812748505347 -0.05128533676524156 0  3.545574116875557 -4.918972844615062 0  -3.5488506820318
[...]
<PointData  Vectors="f_6822"> 
<DataArray  type="Float64"  Name="f_6822"  NumberOfComponents="3" format="ascii">2.6559658580600310e-76 2.6559658580600310e-76 0.0000000000000000e+00  -2.8445085011138809e-76 2.8445085011138809e-76 0.0000000000000000e+00  -8.5659604779174651e-78 -8.5659604779174651e-78 0.0000000000000000e+00  3.0308186857311747e-76 -3.0308186857311747e-76 0.0000000000000000e+00  7.8385351205906950e-01 8.0712663355209519e-03 0.0000000000000000e+00  4.1660674657986617e-75 6.6061080502308285e-75 0.0000000000000000e+00  2.0822481432989365e-75 2.0880091986113076e-74 0.0000000000000000e+00  -3.4062735560589176e-75 6.7719410025113528e-75 0.0000000000000000e+00  4.0008212163477948e-72 6.6675141598866160e-72 0.0000000000000000e+00  5.3179073006708527e-71 1.3457353755797500e-70 0.0000000000000000e+00  -7.9222368862503866e-72 4.5554364425418622e-71 0.0000000000000000e+00  3.2353811499412121e-69 6.1614853206701318e-69 0.0000000000000000e+00  5.1633954502367229e-68 9.3972634892926870e-68 0.0000000000000000e+00  -3.0663648424816432e-68 1.5001824353064696e-67 0.0000000000000000e+00  1.2773655401653997e-67 3.9812488173689333e-67 0.0000000000000000e+00  1.2622232006053023e-68 8.7791325342960195e-67 0.0000000000000000e+00  5.4549623037861033e-64 8.8206860011237786e-64 0.0000000000000000e+00  4.7426081506556705e-65 2.4418720136098582e-63 0.0000000000000000e+00  1.3501313794925347e-62 2.1983452665082570e-62 0.0000000000000000e+00  8.0707043290632135e-63 8.3177847427451609e-62 0.0000000000000000e+00  6.9369957643266520e-61 1.1019235150864661e-60 0.0000000000000000e+00  4.0658640800691000e-60 7.0044268651720993e-60 0.0000000000000000e+00  -2.8496458525023644e-60 7.7006682720499043e-60 0.0000000000000000e+00  5.6675297512473004e-59 1.1364715733359783e-58 0.0000000000000000e+00  -1.7606294518205338e-59 1.1647474323771021e-58 0.0000000000000000e+00  -3.0065133702619551e-59 6.8403000384190911e-59 0.0000000000000000e+00  1.8041867447421704e-58 3.3031300174823148e-58 0.0000000000000000e+00  7.3064793612592513e-58 2.0889822575272078e-57 0.0000000000000000e+00  2.8638421309278991e-57 6.2310986769730854e-57 0.0000000000000000e+00  -3.4113499254092536e-57 5.7402390629015505e-57 0.0000000000000000e+00  -3.5267980178840146e-58 1.0980206861019836e-57 0.0000000000000000e+00  1.9109906004860199e-56 2.9307403016071273e-56 0.0000000000000000e+00  -1.4154511460059363e-56 3.5317968815362558e-56 0.0000000000000000e+00  1.1929353218926866e-56 2.8926531848785831e-56 0.0000000000000000e+00  8.7496101462352953e-56 2.0969837740745624e-55 0.0000000000000000e+00  -2.5161808073563562e-56 5.7435356213640032e-55 0.0000000000000000e+00  5.2180760198182967e-57 8.6090917655110221e-57 0.0000000000000000e+00  5.5529707160045025e-56 1.3813267466442571e-55 0.0000000000000000e+00  1.5512664290220553e-55 6.1684773100143653e-55 0.0000000000000000e+00  -2.2399804080593771e-55 3.5177168483169318e-55 0.0000000000000000e+00  9.8525589012480630e-55 1.7223030285318019e-54 0.0000000000000000e+00  -4.4290937069741362e-55 4.3616536342528614e-54 0.0000000000000000e+00  -2.2871912795555424e-55 2.6820975126897564e-54 0.0000000000000000e+00  -9.6366598670276466e-56 9.4400713341930810e-55 0.0000000000000000e+00  -1.1332121509308412e-55 1.8226983962226389e-55 0.0000000000000000e+00  2.7651133262327311e-54 5.2319534758113834e-54 0.0000000000000000e+00  -2.1640716207227891e-54 4.1399790308473076e-54 0.0000000000000000e+00  -7.2063043391173850e-55 8.0836827217417740e-55 0.0000000000000000e+00  -1.3231419088927280e-55 2.7135649241652569e-55 0.0000000000000000e+00  9.3219596292737033e-55 1.4448293029075094e-54 0.0000000000000000e+00  9.4739364838798726e-55 6.1540435803373936e-54 0.0000000000000000e+00  -1.1308971770109892e-54 5.8988722648704918e-54 0.0000000000000000e+00  5.1575465179499992e-55 4.6478484159139179e-54 0.0000000000000000e+00  1.9112257544230320e-56 5.7927827779334914e-54 0.0000000000000000e+00  3.0238429559345847e-55 6.1509362150395396e-54 0.0000000000000000e+00  -1.2642870892546065e-54 2.0440664568462060e-54 0.0000000000000000e+00  -6.4681266396630340e-55 1.4722495618300515e-53 0.0000000000000000e+00  4.4731366403328402e-54 7.4699329620568779e-54 0.0000000000000000e+00  -4.3563784987713510e-54 8.0947258193372827e-54 0.0000000000000000e+00  1.9259266602443926e-54 3.9574671856101270e-54 0.0000000000000000e+00  -7.3758309362914299e-55 9.4981625555824959e-54 0.0000000000000000e+00  1.3340622578594677e-54 9.3291396886010519e-54 0.0000000000000000e+00  -1.6884038266571591e-54 4.3955564850275800e-54 0.0000000000000000e+00  -9.2692331713007509e-55 2.4041579719531045e-54 0.0000000000000000e+00  3.3385901948962363e-55 1.2997952398423080e-54 0.0000000000000000e+00  2.6630159029484943e-55 2.5377358680698698e-54 0.0000000000000000e+00  -7.8386935450616186e-56 3.4897016425329457e-54 0.0000000000000000e+00  -7.1267666923164487e-55 1.4809080865375448e-54 0.0000000000000000e+00  2.3825645564542826e-55 4.4280734645023885e-55 0.0000000000000000e+00  -2.3139957825849202e-55 6.0212243421250406e-55 0.0000000000000000e+00  5.0435359025765958e-56 2.3984828162341518e-55 0.0000000000000000e+00  1.8700968764049974e-55 9.5258999831552399e-55 0.0000000000000000e+00  -3.3094078283276157e-55 5.2982783795365214e-55 0.0000000000000000e+00  -1.5934405396825631e-56 4.8202272037482884e-56 0.0000000000000000e+00  -1.1364961268485065e-57 1.1331532749291044e-56 0.0000000000000000e+00  6.7649648482474935e-57 2.3559133542819108e-56 0.0000000000000000e+00  -9.0059534165700495e-57 1.5008893949312136e-56 0.0000000000000000e+00  1.7443492963348515e-57 2.8892870223116155e-57 0.0000000000000000e+00  -1.2459069865179738e-57 2.7226876379435824e-57 0.0000000000000000e+00  5.1829152270152546e-57 7.8157805968703032e-57 0.0000000000000000e+00  -4.5380347789776223e-57 1.1244766397096494e-56 0.0000000000000000e+00  -1.8156868987267679e-58 9.3925960023647683e-58 0.0000000000000000e+00  -2.3944333611066333e-58 4.6493088904870799e-58 0.0000000000000000e+00  -7.8846999821431549e-61 8.8102347973235440e-59 0.0000000000000000e+00  -2.4477917915970738e-59 6.4197098878027948e-59 0.0000000000000000e+00  -7.1205391390177686e-60 2.4988718366747505e-59 0.0000000000000000e+00  -4.3870333087223518e-60 2.2381720444428779e-59 0.0000000000000000e+00  -3.0643129298844729e-60 7.1647269323986119e-60 0.0000000000000000e+00  -8.5273780912981808e-62 4.4342841654577234e-61 0.0000000000000000e+00  -1.0762794660112273e-61 2.2330002152431557e-61 0.0000000000000000e+00  -3.5883733919248519e-62 5.6712110134102078e-62 0.0000000000000000e+00  -3.9110357464792813e-64 6.6946002499547619e-64 0.0000000000000000e+00  -2.4317739846554248e-65 5.1690267740426395e-65 0.0000000000000000e+00  3.7091525370019988e-66 1.0389417327731633e-65 0.0000000000000000e+00  -4.8431595780121634e-66 9.2588819178904456e-66 0.0000000000000000e+00  -6.7008446243485353e-68 2.7707261983687856e-67 0.0000000000000000e+00  -7.8545675369807119e-68 1.2914103150951129e-67 0.0000000000000000e+00  -8.0619722106776076e-69 1.1728951223794122e-68 0.0000000000000000e+00  -5.6340001393371863e-70 9.5184490708332191e-70 0.0000000000000000e+00  -3.7798261437713410e-71 6.8176363213429217e-71 0.0000000000000000e+00  -1.8785894385017497e-72 3.2023207090224631e-72 0.0000000000000000e+00  -1.2178075725653151e-73 2.7265933909559982e-73 0.0000000000000000e+00  -4.4213405569656223e-75 1.2911128521742842e-74 0.0000000000000000e+00  -2.5481763997761537e-75 4.2410926264610108e-75 0.0000000000000000e+00  -9.7687072505222894e-76 3.5584910983627219e-76 0.0000000000000000e+00  -1.6211678509538245e-75 -2.3928211611685456e-76 0.0000000000000000e+00  -2.4487525128335285e-74 1.1592344986148179e-74 0.0000000000000000e+00  -3.6791041633078757e-74 1.5506696716999674e-75 0.0000000000000000e+00  -3.8827311043378277e-73 1.4337770902316505e-73 0.0000000000000000e+00  -1.0235447307185945e-71 6.2403626270727601e-72 0.0000000000000000e+00  -6.7392335629417792e-71 3.7098620010472185e-71 0.0000000000000000e+00  -1.0610198220417163e-70 3.9050822154115909e-72 0.0000000000000000e+00  -8.8988084804411745e-70 3.3106938933335739e-70 0.0000000000000000e+00  -2.1278177961913757e-68 1.2873304980338912e-68 0.0000000000000000e+00  -1.0233793376426536e-67 5.1142254451176448e-68 0.0000000000000000e+00  -1.0140397042865139e-67 -6.0315995895860717e-68 0.0000000000000000e+00  -3.1643499990542504e-66 1.7477100594723517e-66 0.0000000000000000e+00  -3.1835866161268498e-65 1.8336750509031446e-65 0.0000000000000000e+00  -5.3854257556151923e-65 5.0518086737500340e-66 0.0000000000000000e+00  -4.4352386068932948e-64 1.4481528834820299e-64 0.0000000000000000e+00  -6.9885302511771073e-63 4.3647423643027386e-63 0.0000000000000000e+00  -1.5060345557579610e-62 3.7538499691634103e-63 0.0000000000000000e+00  -8.4312614455803117e-62 1.9691513161408786e-62 0.0000000000000000e+00  -1.3539152745365520e-60 8.5315179110764832e-61 0.0000000000000000e+00  -2.4164845508116954e-60 3.3877115982601448e-61 0.0000000000000000e+00  -2.1160558033189046e-59 7.4100403078006300e-60 0.0000000000000000e+00  -2.4151147601897478e-58 1.4972523133775517e-58 0.0000000000000000e+00  -2.5888461524193904e-58 -9.4362145620769941e-59 0.0000000000000000e+00  -5.9744158754765026e-57 2.7869803764343863e-57 0.0000000000000000e+00  -2.4818658892436911e-56 1.2416301681705871e-56 0.0000000000000000e+00  -5.5645819641123496e-56 -8.7055078315601882e-57 0.0000000000000000e+00  -1.0104339313941468e-54 6.4933534476235198e-55 0.0000000000000000e+00  -1.1210499235127888e-54 -3.4714939663903120e-55 0.0000000000000000e+00  -2.4063479048119470e-53 1.2720403938454481e-53 0.0000000000000000e+00  -6.5894957284116902e-53 2.9956458032080178e-53 0.0000000000000000e+00  -4.3550352125373675e-52 1.2269517789120377e-52 0.0000000000000000e+00  -2.6639196040916739e-51 1.6667252323124995e-51 0.0000000000000000e+00  -7.6659917842115074e-51 -2.1504640995746008e-52 0.0000000000000000e+00  -7.1920217167968884e-50 4.6073037927204256e-50 0.0000000000000000e+00  -1.6173178614148801e-49 -1.4817315374329748e-50 0.0000000000000000e+00  -1.7286333685514883e-48 1.0123649516477258e-48 0.0000000000000000e+00  -4.3412335465354020e-48 -2.0460254432700421e-49 0.0000000000000000e+00  -2.0129327908810109e-47 1.1123011457076696e-47 0.0000000000000000e+00  -1.1026008309648256e-46 1.8998045999711745e-47 0.0000000000000000e+00  -1.0246150175934529e-46 2.4657403130082449e-47 0.0000000000000000e+00  -1.2404268394375141e-45 5.2648051479054677e-46 0.0000000000000000e+00  -8.7394961225887736e-46 -5.6917880077501644e-46 0.0000000000000000e+00  -1.3427880369500133e-44 8.0887653893440340e-45 0.0000000000000000e+00  -5.7954494451539344e-44 1.3768082144141144e-44 0.0000000000000000e+00  -3.6155742549202868e-44 -1.7553454478416699e-44 0.0000000000000000e+00  -1.1424710427665967e-43 6.5152532466156108e-44 0.0000000000000000e+00  -8.4128428291542953e-43 2.3212413423382723e-43 0.0000000000000000e+00  -1.9290932823368823e-42 1.9798653817593876e-43 0.0000000000000000e+00  -2.5116803777967982e-42 6.1183035416654944e-44 0.0000000000000000e+00  -2.0144673563334455e-42 -1.9522823838049615e-43 0.0000000000000000e+00  -8.6135067380008288e-43 -2.5112824883675866e-43 0.0000000000000000e+00  -1.1324340829049192e-43 -6.4613376904244955e-44 0.0000000000000000e+00  -3.8715640598092113e-44 1.8544666252856678e-44 0.0000000000000000e+00  -6.3163636268986251e-44 -1.0845383808239418e-44 0.0000000000000000e+00  -1.4987564969145923e-44 -7.8842533675405665e-45 0.0000000000000000e+00  -9.9897935212884089e-46 5.6843734215845350e-46 0.0000000000000000e+00  -1.4037914783815804e-45 -5.3972085131892407e-46 0.0000000000000000e+00  -1.1207469612504945e-46 -2.8611057538491518e-47 0.0000000000000000e+00  -1.0180546146815839e-46 -2.1460295329972320e-47 0.0000000000000000e+00  -1.8605528923692917e-47 -1.1994453808002157e-47 0.0000000000000000e+00  -4.0856518439565069e-48 2.0373939705845657e-49 0.0000000000000000e+00  -1.4864279209405127e-48 -9.3739809823817678e-49 0.0000000000000000e+00  -1.6332703283260451e-49 2.4594190119400379e-50 0.0000000000000000e+00  -7.4559942919250445e-50 -4.4262874697447357e-50 0.0000000000000000e+00  -8.2464628000592082e-51 6.4174292594264975e-52 0.0000000000000000e+00  -3.1447243286408511e-51 -1.7854665081798471e-51 0.0000000000000000e+00  -5.1023907553571911e-52 -1.1475809230452653e-52 0.0000000000000000e+00  -8.2044720444946941e-53 -3.5501796461093710e-53 0.0000000000000000e+00  -2.6613105031805366e-53 -1.3167093048130681e-53 0.0000000000000000e+00  -1.1973360507383214e-54 3.2419140453551921e-55 0.0000000000000000e+00  -1.0633999327310663e-54 -6.8097005354333646e-55 0.0000000000000000e+00  -5.1527827750932165e-56 8.3572505616229188e-57 0.0000000000000000e+00  -2.3359958438508345e-56 -1.3246168607207347e-56 0.0000000000000000e+00  -4.8227714408274967e-57 -2.5226125255462260e-57 0.0000000000000000e+00  -2.4590661240649421e-58 8.5505444271851549e-59 0.0000000000000000e+00  -2.1577326356766968e-58 -1.3291367215524652e-58 0.0000000000000000e+00  -1.9908214110449924e-59 -6.1483956001423610e-60 0.0000000000000000e+00  -2.3747831022950289e-60 -3.3972247060135547e-61 0.0000000000000000e+00  -1.2905632918690761e-60 -7.6110938172353824e-61 0.0000000000000000e+00  -7.6900290070326374e-62 -2.1443544895923434e-62 0.0000000000000000e+00  -1.3592748005125605e-62 -2.9312824994888409e-63 0.0000000000000000e+00  -6.6379095480506504e-63 -3.7894145407960350e-63 0.0000000000000000e+00  -4.7825060435452887e-64 -1.8200500813139371e-64 0.0000000000000000e+00  -4.3638896828638856e-65 9.5830402891406303e-67 0.0000000000000000e+00  -2.9476658112969175e-65 -1.6624707059635549e-65 0.0000000000000000e+00  -3.4126926922457207e-66 -1.9891322573177178e-66 0.0000000000000000e+00  -8.9969221368581591e-68 5.4819153021452582e-68 0.0000000000000000e+00  -8.6355884504617874e-68 -4.1783271548645759e-68 0.0000000000000000e+00  -2.0679152783294500e-68 -1.2851962522452127e-68 0.0000000000000000e+00  -1.1325495301877213e-69 -5.1343179033808288e-70 0.0000000000000000e+00  -8.7946616194370318e-71 1.3791325535724840e-71 0.0000000000000000e+00  -6.9076326654951678e-71 -3.6576343786756119e-71 0.0000000000000000e+00  -1.2478100074908157e-71 -7.6630696025477531e-72 0.0000000000000000e+00  -5.9816809865354605e-73 -2.7513006666145298e-73 0.0000000000000000e+00  -3.9238213637309704e-74 7.4241015041202814e-75 0.0000000000000000e+00  -3.1564491004248316e-74 -1.4791014237692085e-74 0.0000000000000000e+00  -6.5904963350180678e-75 -3.3572047669194733e-75 0.0000000000000000e+00  -7.1798614985158975e-76 -3.1071885350567484e-76 0.0000000000000000e+00  -8.5520927109314595e-76 -1.6228316052034345e-75 0.0000000000000000e+00  -4.7736580067880440e-75 -1.3945822042037455e-74 0.0000000000000000e+00  4.3674335060049648e-75 -8.3091706212701479e-75 0.0000000000000000e+00  -1.6295773982750781e-73 -3.4270804339261447e-73 0.0000000000000000e+00  -9.2867817687032875e-71 -1.0068387272438364e-70 0.0000000000000000e+00  -7.5079184136513931e-70 -1.3175987129463826e-69 0.0000000000000000e+00  -1.0986960788341175e-69 -3.6510344704693070e-69 0.0000000000000000e+00  -7.7630780113519926e-68 -1.7112475873666779e-67 0.0000000000000000e+00  -6.5330632792449566e-68 -3.2597870349022769e-67 0.0000000000000000e+00  -6.7920446410604286e-66 -1.3498847784584027e-65 0.0000000000000000e+00  -4.5216162711409909e-66 -2.1314900837631427e-65 0.0000000000000000e+00  -9.0734704932911245e-65 -1.5572505221506744e-64 0.0000000000000000e+00  1.7228267401694486e-65 -2.1036302601417371e-64 0.0000000000000000e+00  -4.2779194799886478e-62 -6.4007367911615007e-62 0.0000000000000000e+00  -7.0027944400599929e-62 -1.7203929642544427e-61 0.0000000000000000e+00  -2.3275380674778958e-62 -2.7285222411566884e-61 0.0000000000000000e+00  -5.7442395527418384e-60 -1.1359706277755792e-59 0.0000000000000000e+00  4.7720425294194810e-60 -1.5023131954222819e-59 0.0000000000000000e+00  -2.9034222451798906e-59 -4.7472463741466136e-59 0.0000000000000000e+00  8.8298812054682671e-60 -6.0866662262970380e-59 0.0000000000000000e+00  2.3279967799585921e-59 -3.9734409526683444e-59 0.0000000000000000e+00  -5.6442049722924664e-58 -8.9437792153277067e-58 0.0000000000000000e+00  -1.3819475543778523e-59 -1.2602290104408142e-57 0.0000000000000000e+00  -4.6395856118824313e-57 -1.1634462000300735e-56 0.0000000000000000e+00  5.7577602034518160e-57 -8.6784486292038911e-57 0.0000000000000000e+00  -5.3417903050783088e-57 -7.3341813384501694e-57 0.0000000000000000e+00  -1.7699472133709737e-56 -3.7720957230873890e-56 0.0000000000000000e+00  2.1655814704315826e-56 -4.0728036535585778e-56 0.0000000000000000e+00  -5.0114361943181686e-57 -9.1969471918062414e-57 0.0000000000000000e+00  -8.1331768651147537e-56 -2.0304154303051233e-55 0.0000000000000000e+00  6.3883713022814954e-56 -5.0774006306875858e-55 0.0000000000000000e+00  -4.2986713433880624e-55 -7.2548092846699687e-55 0.0000000000000000e+00  -4.8860659033134877e-56 -1.8356957025361864e-54 0.0000000000000000e+00  1.6641345812191412e-55 -5.7408893281561526e-55 0.0000000000000000e+00  -5.1942081637536773e-55 -1.6756064443106261e-54 0.0000000000000000e+00  -2.2591181606831082e-54 -7.0702960824445413e-54 0.0000000000000000e+00  2.5890858950148700e-54 -6.0781175123249463e-54 0.0000000000000000e+00  -6.7376112730209440e-55 -2.3893191245762026e-54 0.0000000000000000e+00  5.3403328912583592e-55 -2.8193114691692743e-54 0.0000000000000000e+00  1.2862362082429790e-55 -1.4248283537900207e-54 0.0000000000000000e+00  -2.1865143204351061e-54 -3.4657429731847264e-54 0.0000000000000000e+00  5.7308072950029872e-55 -8.2270626692361931e-54 0.0000000000000000e+00  -3.9420489524749171e-54 -1.3556237753072442e-53 0.0000000000000000e+00  4.7066270861085429e-54 -7.7158799021327650e-54 0.0000000000000000e+00  2.0380161923814732e-55 -6.5064066730882912e-55 0.0000000000000000e+00  -4.8161839589801881e-54 -8.0078910717165037e-54 0.0000000000000000e+00  4.8422797787341507e-54 -7.8702524389172270e-54 0.0000000000000000e+00  -1.6672170498581342e-56 -1.3349724401440690e-55 0.0000000000000000e+00  1.1189870497267730e-56 -2.7679895763208867e-55 0.0000000000000000e+00  2.2140140420940463e-56 -9.8796625947277564e-56 0.0000000000000000e+00  -5.2213813804840096e-54 -9.3538480794097793e-54 0.0000000000000000e+00  5.5689818061788208e-54 -9.4071959159220442e-54 0.0000000000000000e+00  5.6935291475369953e-56 -1.0517839338436434e-55 0.0000000000000000e+00  -1.4376853966723647e-56 -6.2049081712889423e-56 0.0000000000000000e+00  -5.0155954368527349e-55 -9.0475855376607746e-55 0.0000000000000000e+00  -5.8335637267211506e-54 -1.0047421423057654e-53 0.0000000000000000e+00  4.5181170550913278e-54 -1.0490316332106985e-53 0.0000000000000000e+00  -3.0621771061468062e-54 -7.9864597908587181e-54 0.0000000000000000e+00  2.4465277014461933e-54 -8.5488890761888568e-54 0.0000000000000000e+00  2.2533398402811935e-54 -3.3052161889209551e-54 0.0000000000000000e+00  -5.4535407750518622e-55 -1.4801007458898797e-54 0.0000000000000000e+00  8.3813069688960780e-55 -1.5734085025793259e-54 0.0000000000000000e+00  -4.9380272596253010e-55 -9.8349459731185661e-55 0.0000000000000000e+00  5.1392788992501105e-55 -8.8520699621874533e-55 0.0000000000000000e+00  -1.5709376742577466e-56 -2.6929661046375653e-56 0.0000000000000000e+00  -4.4892250053563273e-56 -1.7220827912657403e-55 0.0000000000000000e+00  4.1825601401899613e-56 -1.7465102288934761e-55 0.0000000000000000e+00  4.8118334147388867e-57 -6.9026794193806040e-56 0.0000000000000000e+00  -2.7550924417004790e-56 -6.5445421863603156e-56 0.0000000000000000e+00  3.2952295983120500e-56 -6.4114304925495047e-56 0.0000000000000000e+00  -2.8647562407697300e-57 -2.8735512709995277e-56 0.0000000000000000e+00  1.2985133509282202e-56 -3.0011204941843915e-56 0.0000000000000000e+00  1.0042541019992684e-57 -2.3983576230823977e-57 0.0000000000000000e+00  -4.3905983610590922e-57 -7.6422522700979153e-57 0.0000000000000000e+00  4.2566847377915208e-57 -1.1003903600727660e-56 0.0000000000000000e+00  3.1295110533604018e-58 -1.0210767059156459e-57 0.0000000000000000e+00  1.4400975507944848e-58 -5.025143