<?xml version="1.0"?>
<VTKFile type="UnstructuredGrid"  version="0.1"  >
<UnstructuredGrid>
<Piece  NumberOfPoints="11902" NumberOfCells="23402">
<Points>
<DataArray  type="Float64"  NumberOfComponents="3"  format="ascii">-5 -5 0  5 -5 0  5 5 0  -5 5 0  1.015079880798714 9.651599180928134e-05 0  -4.9 -5 0  -4.8 -5 0  -4.7 -5 0  -4.6 -5 0  -4.5 -5 0  -4.4 -5 0  -4.3 -5 0  -4.2 -5 0  -4.1 -5 0  -4 -5 0  -3.9 -5 0  -3.8 -5 0  -3.7 -5 0  -3.6 -5 0  -3.5 -5 0  -3.4 -5 0  -3.3 -5 0  -3.2 -5 0  -3.1 -5 0  -3 -5 0  -2.9 -5 0  -2.8 -5 0  -2.7 -5 0  -2.6 -5 0  -2.5 -5 0  -2.4 -5 0  -2.3 -5 0  -2.2 -5 0  -2.1 -5 0  -2 -5 0  -1.9 -5 0  -1.8 -5 0  -1.7 -5 0  -1.6 -5 0  -1.5 -5 0  -1.4 -5 0  -1.3 -5 0  -1.2 -5 0  -1.1 -5 0  -1 -5 0  -0.9000000000000004 -5 0  -0.7999999999999998 -5 0  -0.7000000000000002 -5 0  -0.5999999999999996 -5 0  -0.5 -5 0  -0.4000000000000004 -5 0  -0.2999999999999998 -5 0  -0.2000000000000002 -5 0  -0.09999999999999964 -5 0  0 -5 0  0.09999999999999964 -5 0  0.2000000000000002 -5 0  0.2999999999999998 -5 0  0.4000000000000004 -5 0  0.5 -5 0  0.5999999999999996 -5 0  0.7000000000000002 -5 0  0.7999999999999998 -5 0  0.9000000000000004 -5 0  1 -5 0  1.1 -5 0  1.2 -5 0  1.3 -5 0  1.4 -5 0  1.5 -5 0  1.6 -5 0  1.7 -5 0  1.8 -5 0  1.9 -5 0  2 -5 0  2.1 -5 0  2.2 -5 0  2.3 -5 0  2.4 -5 0  2.5 -5 0  2.6 -5 0  2.7 -5 0  2.8 -5 0  2.9 -5 0  3 -5 0  3.1 -5 0  3.199999999999999 -5 0  3.300000000000001 -5 0  3.4 -5 0  3.5 -5 0  3.6 -5 0  3.699999999999999 -5 0  3.800000000000001 -5 0  3.9 -5 0  4 -5 0  4.1 -5 0  4.199999999999999 -5 0  4.300000000000001 -5 0  4.4 -5 0  4.5 -5 0  4.6 -5 0  4.699999999999999 -5 0  4.800000000000001 -5 0  4.9 -5 0  5 -4.9 0  5 -4.8 0  5 -4.7 0  5 -4.6 0  5 -4.5 0  5 -4.4 0  5 -4.3 0  5 -4.2 0  5 -4.1 0  5 -4 0  5 -3.9 0  5 -3.8 0  5 -3.7 0  5 -3.6 0  5 -3.5 0  5 -3.4 0  5 -3.3 0  5 -3.2 0  5 -3.1 0  5 -3 0  5 -2.9 0  5 -2.8 0  5 -2.7 0  5 -2.6 0  5 -2.5 0  5 -2.4 0  5 -2.3 0  5 -2.2 0  5 -2.1 0  5 -2 0  5 -1.9 0  5 -1.8 0  5 -1.7 0  5 -1.6 0  5 -1.5 0  5 -1.4 0  5 -1.3 0  5 -1.2 0  5 -1.1 0  5 -1 0  5 -0.9000000000000004 0  5 -0.7999999999999998 0  5 -0.7000000000000002 0  5 -0.5999999999999996 0  5 -0.5 0  5 -0.4000000000000004 0  5 -0.2999999999999998 0  5 -0.2000000000000002 0  5 -0.09999999999999964 0  5 0 0  5 0.09999999999999964 0  5 0.2000000000000002 0  5 0.2999999999999998 0  5 0.4000000000000004 0  5 0.5 0  5 0.5999999999999996 0  5 0.7000000000000002 0  5 0.7999999999999998 0  5 0.9000000000000004 0  5 1 0  5 1.1 0  5 1.2 0  5 1.3 0  5 1.4 0  5 1.5 0  5 1.6 0  5 1.7 0  5 1.8 0  5 1.9 0  5 2 0  5 2.1 0  5 2.2 0  5 2.3 0  5 2.4 0  5 2.5 0  5 2.6 0  5 2.7 0  5 2.8 0  5 2.9 0  5 3 0  5 3.1 0  5 3.199999999999999 0  5 3.300000000000001 0  5 3.4 0  5 3.5 0  5 3.6 0  5 3.699999999999999 0  5 3.800000000000001 0  5 3.9 0  5 4 0  5 4.1 0  5 4.199999999999999 0  5 4.300000000000001 0  5 4.4 0  5 4.5 0  5 4.6 0  5 4.699999999999999 0  5 4.800000000000001 0  5 4.9 0  4.9 5 0  4.8 5 0  4.7 5 0  4.6 5 0  4.5 5 0  4.4 5 0  4.3 5 0  4.2 5 0  4.1 5 0  4 5 0  3.9 5 0  3.8 5 0  3.7 5 0  3.6 5 0  3.5 5 0  3.4 5 0  3.3 5 0  3.2 5 0  3.1 5 0  3 5 0  2.9 5 0  2.8 5 0  2.7 5 0  2.6 5 0  2.5 5 0  2.4 5 0  2.3 5 0  2.2 5 0  2.1 5 0  2 5 0  1.9 5 0  1.8 5 0  1.7 5 0  1.6 5 0  1.5 5 0  1.4 5 0  1.3 5 0  1.2 5 0  1.1 5 0  1 5 0  0.9000000000000004 5 0  0.7999999999999998 5 0  0.7000000000000002 5 0  0.5999999999999996 5 0  0.5 5 0  0.4000000000000004 5 0  0.2999999999999998 5 0  0.2000000000000002 5 0  0.09999999999999964 5 0  0 5 0  -0.09999999999999964 5 0  -0.2000000000000002 5 0  -0.2999999999999998 5 0  -0.4000000000000004 5 0  -0.5 5 0  -0.5999999999999996 5 0  -0.7000000000000002 5 0  -0.7999999999999998 5 0  -0.9000000000000004 5 0  -1 5 0  -1.1 5 0  -1.2 5 0  -1.3 5 0  -1.4 5 0  -1.5 5 0  -1.6 5 0  -1.7 5 0  -1.8 5 0  -1.9 5 0  -2 5 0  -2.1 5 0  -2.2 5 0  -2.3 5 0  -2.4 5 0  -2.5 5 0  -2.6 5 0  -2.7 5 0  -2.8 5 0  -2.9 5 0  -3 5 0  -3.1 5 0  -3.199999999999999 5 0  -3.300000000000001 5 0  -3.4 5 0  -3.5 5 0  -3.6 5 0  -3.699999999999999 5 0  -3.800000000000001 5 0  -3.9 5 0  -4 5 0  -4.1 5 0  -4.199999999999999 5 0  -4.300000000000001 5 0  -4.4 5 0  -4.5 5 0  -4.6 5 0  -4.699999999999999 5 0  -4.800000000000001 5 0  -4.9 5 0  -5 4.9 0  -5 4.8 0  -5 4.7 0  -5 4.6 0  -5 4.5 0  -5 4.4 0  -5 4.3 0  -5 4.2 0  -5 4.1 0  -5 4 0  -5 3.9 0  -5 3.8 0  -5 3.7 0  -5 3.6 0  -5 3.5 0  -5 3.4 0  -5 3.3 0  -5 3.2 0  -5 3.1 0  -5 3 0  -5 2.9 0  -5 2.8 0  -5 2.7 0  -5 2.6 0  -5 2.5 0  -5 2.4 0  -5 2.3 0  -5 2.2 0  -5 2.1 0  -5 2 0  -5 1.9 0  -5 1.8 0  -5 1.7 0  -5 1.6 0  -5 1.5 0  -5 1.4 0  -5 1.3 0  -5 1.2 0  -5 1.1 0  -5 1 0  -5 0.9000000000000004 0  -5 0.7999999999999998 0  -5 0.7000000000000002 0  -5 0.5999999999999996 0  -5 0.5 0  -5 0.4000000000000004 0  -5 0.2999999999999998 0  -5 0.2000000000000002 0  -5 0.09999999999999964 0  -5 0 0  -5 -0.09999999999999964 0  -5 -0.2000000000000002 0  -5 -0.2999999999999998 0  -5 -0.4000000000000004 0  -5 -0.5 0  -5 -0.5999999999999996 0  -5 -0.7000000000000002 0  -5 -0.7999999999999998 0  -5 -0.9000000000000004 0  -5 -1 0  -5 -1.1 0  -5 -1.2 0  -5 -1.3 0  -5 -1.4 0  -5 -1.5 0  -5 -1.6 0  -5 -1.7 0  -5 -1.8 0  -5 -1.9 0  -5 -2 0  -5 -2.1 0  -5 -2.2 0  -5 -2.3 0  -5 -2.4 0  -5 -2.5 0  -5 -2.6 0  -5 -2.7 0  -5 -2.8 0  -5 -2.9 0  -5 -3 0  -5 -3.1 0  -5 -3.199999999999999 0  -5 -3.300000000000001 0  -5 -3.4 0  -5 -3.5 0  -5 -3.6 0  -5 -3.699999999999999 0  -5 -3.800000000000001 0  -5 -3.9 0  -5 -4 0  -5 -4.1 0  -5 -4.199999999999999 0  -5 -4.300000000000001 0  -5 -4.4 0  -5 -4.5 0  -5 -4.6 0  -5 -4.699999999999999 0  -5 -4.800000000000001 0  -5 -4.9 0  1.010053950867705 0.09978963442310579 0  0.9949549064756614 0.1985750708451404 0  0.9698595053447565 0.2954282502920925 0  0.9353052602852935 0.3892137282846889 0  0.8914367608923928 0.4792826730971633 0  0.8387616739624071 0.5645342594747611 0  0.7776805091155206 0.6441061074889008 0  0.7087522985204161 0.717268609206672 0  0.6329021763005972 0.7833645613913885 0  0.5507718688097161 0.8417145667650174 0  0.4631147950079634 0.8916072033801171 0  0.3708080003561264 0.9326668306465623 0  0.2749927853082333 0.9645184617016628 0  0.1763196907072404 0.9866741493043959 0  0.07597074326643127 0.9991134885985529 0  -0.02517842080844479 1.001613871182351 0  -0.1260878686088556 0.9941038416702801 0  -0.2257410501014528 0.9768391182044828 0  -0.3231269344698026 0.9498309942362816 0  -0.4172909625681975 0.9133211896039122 0  -0.5072896599340054 0.8678131947132181 0  -0.5922658081184515 0.8136306575600353 0  -0.6713636874018101 0.7513881770882289 0  -0.7437870285909414 0.681715090154868 0  -0.8088392752501549 0.6051368360720383 0  -0.8657969229340131 0.5225625723509965 0  -0.9142506088456422 0.4348701199164192 0  -0.9535307683588161 0.3427894901634936 0  -0.9833091632288311 0.2473433134380402 0  -1.003377675754517 0.1494488046461649 0  -1.013482054558858 0.05002465986079858 0  -1.013485035889812 -0.04990681286498842 0  -1.003385139713301 -0.1493148286148249 0  -0.9835066058705697 -0.2471937822019837 0  -0.9535346562768758 -0.3426908537565034 0  -0.9142751842674189 -0.4347040784631218 0  -0.8658514371726733 -0.522427107590489 0  -0.8088984683451391 -0.604960030378912 0  -0.7438386999302816 -0.6814605132009586 0  -0.6713515276071054 -0.7511197265519025 0  -0.5921892406479794 -0.8132865876186721 0  -0.5073345567788055 -0.8675653419207235 0  -0.4171719576523565 -0.9130538559168246 0  -0.3229934398346661 -0.9496030779651168 0  -0.2255673821687919 -0.9766354922909815 0  -0.1259366617002838 -0.9939569868872138 0  -0.02507586309029483 -1.001549266572389 0  0.07599532135719585 -0.9990084050426208 0  0.1764269382840704 -0.9865227214542062 0  0.2750222622825961 -0.9643446588350408 0  0.3710110423858267 -0.9324942487207971 0  0.4631665705964542 -0.8914364105586893 0  0.5508317545665964 -0.8415453214749028 0  0.6329468404480921 -0.783377346452299 0  0.7087927658033589 -0.7172967977442113 0  0.7776335540745161 -0.6440423091489719 0  0.8386873815980036 -0.5644012458495629 0  0.8914915166879036 -0.479192681553911 0  0.9354762675116647 -0.3892095550427274 0  0.9699927944304008 -0.2953865798354932 0  0.994964339452118 -0.1985145725532982 0  1.010066566746846 -0.09976815378089857 0  -2.449877134830295 4.920551731621465 0  -2.449867768360199 -4.913150323450322 0  4.913137294634438 2.449811567295466 0  4.921012296465794 -2.451099379399792 0  2.447831691034517 -4.898846201253772 0  2.442211107952416 4.902507147782533 0  -4.91314185814883 -2.449816988773452 0  -4.913146029970062 2.449820447775287 0  -1.7498704461405 4.914500895336085 0  -1.745597810258599 -4.917801650464463 0  4.924021646224966 1.745800354143986 0  4.913035406784341 -1.749814909541276 0  -4.91328661747063 -1.749519568305033 0  -4.914081674100998 1.74924364478107 0  1.747226844652764 4.908617329175348 0  1.748812671702334 -4.897220648360905 0  -1.149901930720278 4.913009382068246 0  -1.130650741777939 -4.920564257922657 0  -4.91396153203188 -1.149498914329486 0  -4.913795740628787 1.149296910971471 0  1.144826834572427 -4.916927972782499 0  1.149898953582156 4.913008458452766 0  4.914141178674017 1.147786516158895 0  4.924388301648299 -1.153385984677454 0  -0.5472200697009058 -4.914551711655927 0  -0.54694935094258 4.922812488842336 0  -4.913462003362229 -0.5495806953242899 0  -4.913489066947086 0.5481285946590971 0  4.912873810262159 -0.5499158972527356 0  4.923827431229998 0.5465538330797292 0  0.5430544988020742 -4.902102449536661 0  0.5516869392286832 4.919799133753557 0  -4.913697038393961 -3.0498487833474 0  4.920148069110363 3.04776516351589 0  4.913225352287322 -3.049849875323746 0  -4.914536467085033 3.046927868330413 0  3.056464590563314 -4.919160479258668 0  -3.04988248032417 -4.913218351257597 0  3.053423564831527 4.915264539927083 0  -3.049320912194113 4.914093786763922 0  -4.912857371459071 -0.04999482684309531 0  0.04515355033483071 -4.916534092160741 0  0.04960554221549705 4.923209781944744 0  4.919521122034968 -0.05137144572488522 0  3.546543604067044 -4.920273886960914 0 
[...]
<PointData  Vectors="f_270"> 
<DataArray  type="Float64"  Name="f_270"  NumberOfComponents="3" format="ascii">2.6559658580597432e-76 2.6559658580597432e-76 0.0000000000000000e+00  -2.8445085011135618e-76 2.8445085011135618e-76 0.0000000000000000e+00  -8.5659604778750293e-78 -8.5659604778750293e-78 0.0000000000000000e+00  3.0308186857302629e-76 -3.0308186857302629e-76 0.0000000000000000e+00  -9.9656921152157618e-01 -2.1207247808525762e-02 0.0000000000000000e+00  4.1621818018354930e-75 6.6095156540475596e-75 0.0000000000000000e+00  2.0860622459448695e-75 2.0876803404322854e-74 0.0000000000000000e+00  -3.3949800838424188e-75 6.7621079488639336e-75 0.0000000000000000e+00  3.9865509753421041e-72 6.6799285516865464e-72 0.0000000000000000e+00  5.2974948330096698e-71 1.3475208716865211e-70 0.0000000000000000e+00  -7.8712281472246409e-72 4.5510888825843459e-71 0.0000000000000000e+00  3.2132208135202536e-69 6.1803079738485022e-69 0.0000000000000000e+00  5.1217019145061398e-68 9.4322389902456657e-68 0.0000000000000000e+00  -3.0316936438806855e-68 1.4973741983501139e-67 0.0000000000000000e+00  1.2652527600183706e-67 3.9912639467832090e-67 0.0000000000000000e+00  1.2970115474741591e-68 8.7770020570219340e-67 0.0000000000000000e+00  5.3877332136688292e-64 8.8741322342803737e-64 0.0000000000000000e+00  4.8034408801282082e-65 2.4416250168912535e-63 0.0000000000000000e+00  1.3300589989824394e-62 2.2136723074488177e-62 0.0000000000000000e+00  7.9829769706214215e-63 8.3252867394020487e-62 0.0000000000000000e+00  6.8168982039910044e-61 1.1107093268246075e-60 0.0000000000000000e+00  3.9895427452341406e-60 7.0587447033718927e-60 0.0000000000000000e+00  -2.7914951575428971e-60 7.6606060196540990e-60 0.0000000000000000e+00  5.5501923287270535e-59 1.1445143456028061e-58 0.0000000000000000e+00  -1.7197060160681911e-59 1.1620925511204638e-58 0.0000000000000000e+00  -2.9324346868815294e-59 6.7937221659442011e-59 0.0000000000000000e+00  1.7583317916473009e-58 3.3314465978520265e-58 0.0000000000000000e+00  7.1199962715180574e-58 2.1005016849187304e-57 0.0000000000000000e+00  2.7828687241384219e-57 6.2777321772816607e-57 0.0000000000000000e+00  -3.3083280678132786e-57 5.6838349571412367e-57 0.0000000000000000e+00  -3.4153898094230832e-58 1.0921496013750106e-57 0.0000000000000000e+00  1.8491556413549658e-56 2.9626176430693943e-56 0.0000000000000000e+00  -1.3654860941333676e-56 3.5082600445937072e-56 0.0000000000000000e+00  1.1514604861049051e-56 2.9125293841521364e-56 0.0000000000000000e+00  8.4367819450929059e-56 2.1115254625864708e-55 0.0000000000000000e+00  -2.3718369133851966e-56 5.7404409947307973e-55 0.0000000000000000e+00  5.0115062704440655e-57 8.6924402913352667e-57 0.0000000000000000e+00  5.3307627300838929e-56 1.3901545305837078e-55 0.0000000000000000e+00  1.4886539637163506e-55 6.1931249840494782e-55 0.0000000000000000e+00  -2.1408841875322778e-55 3.4855821293187779e-55 0.0000000000000000e+00  9.4160375046104761e-55 1.7364166636825482e-54 0.0000000000000000e+00  -4.1975229763643085e-55 4.3574323523416390e-54 0.0000000000000000e+00  -2.1662705145166842e-55 2.6801703936675546e-54 0.0000000000000000e+00  -9.1410374207283587e-56 9.4312536316117756e-55 0.0000000000000000e+00  -1.0770035866090057e-55 1.8106578368990677e-55 0.0000000000000000e+00  2.6278795190374256e-54 5.2612654373639634e-54 0.0000000000000000e+00  -2.0537100641979518e-54 4.1203824958310884e-54 0.0000000000000000e+00  -6.8335960396597726e-55 8.0251711068567602e-55 0.0000000000000000e+00  -1.2532648646324832e-55 2.7053521608940251e-55 0.0000000000000000e+00  8.8304600747491536e-55 1.4507441341049372e-54 0.0000000000000000e+00  8.9794565023425213e-55 6.1616902867484627e-54 0.0000000000000000e+00  -1.0692916829398162e-54 5.8978006884997144e-54 0.0000000000000000e+00  4.8835322899958567e-55 4.6516205596195484e-54 0.0000000000000000e+00  1.8372786213222873e-56 5.7959364091177811e-54 0.0000000000000000e+00  2.8601659548079248e-55 6.1541925108766167e-54 0.0000000000000000e+00  -1.1958033190499163e-54 2.0457175746717131e-54 0.0000000000000000e+00  -6.1370738239486397e-55 1.4736410381907238e-53 0.0000000000000000e+00  4.2323568375011654e-54 7.4552441512847012e-54 0.0000000000000000e+00  -4.1239039311826078e-54 8.1156418597398861e-54 0.0000000000000000e+00  1.8236869983998834e-54 3.9468598627587551e-54 0.0000000000000000e+00  -7.0169714110197287e-55 9.5083484018579080e-54 0.0000000000000000e+00  1.2620101012149844e-54 9.3231211954173533e-54 0.0000000000000000e+00  -1.6022104603933896e-54 4.4106665086918584e-54 0.0000000000000000e+00  -8.8110242376161477e-55 2.4141853955879558e-54 0.0000000000000000e+00  3.1682980608895473e-55 1.2967164889243684e-54 0.0000000000000000e+00  2.5229596423144750e-55 2.5355670514177802e-54 0.0000000000000000e+00  -7.6395550478999441e-56 3.4919504028738674e-54 0.0000000000000000e+00  -6.8010870855877202e-55 1.4905617770484957e-54 0.0000000000000000e+00  2.2737159941052766e-55 4.3958026674039424e-55 0.0000000000000000e+00  -2.2147965379314897e-55 6.0557801346043672e-55 0.0000000000000000e+00  4.8159165248773570e-56 2.3914193422447042e-55 0.0000000000000000e+00  1.7869819195828157e-55 9.4989454934360055e-55 0.0000000000000000e+00  -3.1779368514267767e-55 5.3508836497195010e-55 0.0000000000000000e+00  -1.5342202391262243e-56 4.8464000744675195e-56 0.0000000000000000e+00  -1.1008368389274001e-57 1.1351118393546514e-56 0.0000000000000000e+00  6.5076986476905685e-57 2.3448685694853946e-56 0.0000000000000000e+00  -8.7014824916861431e-57 1.5158829272924784e-56 0.0000000000000000e+00  1.6854142756975283e-57 2.8602478363074037e-57 0.0000000000000000e+00  -1.2066835583168838e-57 2.7433602198175560e-57 0.0000000000000000e+00  5.0241494896451778e-57 7.7300960134794578e-57 0.0000000000000000e+00  -4.4136969791463249e-57 1.1317866381460012e-56 0.0000000000000000e+00  -1.7660486252794135e-58 9.4217672639118648e-58 0.0000000000000000e+00  -2.3329762127178419e-58 4.6869119053386261e-58 0.0000000000000000e+00  -7.6916811338042313e-61 8.8114483746947943e-59 0.0000000000000000e+00  -2.3913935524331909e-59 6.4563344132380797e-59 0.0000000000000000e+00  -6.9663043284765412e-60 2.5091872018228597e-59 0.0000000000000000e+00  -4.3098181172095060e-60 2.2438238655322016e-59 0.0000000000000000e+00  -3.0089916747048351e-60 7.2045330304140179e-60 0.0000000000000000e+00  -8.3751841822770030e-62 4.4452601136085180e-61 0.0000000000000000e+00  -1.0585996725120727e-61 2.2460843301175497e-61 0.0000000000000000e+00  -3.5358400351313832e-62 5.7113289573568730e-62 0.0000000000000000e+00  -3.8569783853630475e-64 6.7363913717669130e-64 0.0000000000000000e+00  -2.4020990293848095e-65 5.1925526012432985e-65 0.0000000000000000e+00  3.6611117504484077e-66 1.0351712068846993e-65 0.0000000000000000e+00  -4.7953827908011529e-66 9.2979829860625702e-66 0.0000000000000000e+00  -6.6373834760141098e-68 2.7759391148240358e-67 0.0000000000000000e+00  -7.7904322536188633e-68 1.2967575699367161e-67 0.0000000000000000e+00  -8.0054331602397682e-69 1.1776642607848534e-68 0.0000000000000000e+00  -5.6004256438806112e-70 9.5470237682062931e-70 0.0000000000000000e+00  -3.7614868726957381e-71 6.8333726863130697e-71 0.0000000000000000e+00  -1.8714229886657957e-72 3.2085085718709417e-72 0.0000000000000000e+00  -1.2150548796404653e-73 2.7289896670142080e-73 0.0000000000000000e+00  -4.4125724453613783e-75 1.2918754756156146e-74 0.0000000000000000e+00  -2.5457367898089574e-75 4.2432193046607161e-75 0.0000000000000000e+00  -9.7728367758162618e-76 3.5548863124336034e-76 0.0000000000000000e+00  -1.6201309314479750e-75 -2.3837161430152330e-76 0.0000000000000000e+00  -2.4518838831423029e-74 1.1564895969017758e-74 0.0000000000000000e+00  -3.6797308214222497e-74 1.5451394224226212e-75 0.0000000000000000e+00  -3.8886650264547295e-73 1.4285505418782903e-73 0.0000000000000000e+00  -1.0271588545959946e-71 6.2080845617720129e-72 0.0000000000000000e+00  -6.7649929232228535e-71 3.6866068330802958e-71 0.0000000000000000e+00  -1.0613386190578500e-70 3.8759099975661219e-72 0.0000000000000000e+00  -8.9257522337077183e-70 3.2861127092836924e-70 0.0000000000000000e+00  -2.1404527676582889e-68 1.2755161562859961e-68 0.0000000000000000e+00  -1.0289783579909871e-67 5.0609307882220699e-68 0.0000000000000000e+00  -1.0065853478357127e-67 -5.9588523911712091e-68 0.0000000000000000e+00  -3.1862069923427156e-66 1.7263309830069783e-66 0.0000000000000000e+00  -3.2087472587235885e-65 1.8084230672161407e-65 0.0000000000000000e+00  -5.3929306522770859e-65 4.9744636598216455e-66 0.0000000000000000e+00  -4.4566042377347437e-64 1.4262684050046798e-64 0.0000000000000000e+00  -7.0598925325011963e-63 4.2882370544041589e-63 0.0000000000000000e+00  -1.5125583316578144e-62 3.6816431556930118e-63 0.0000000000000000e+00  -8.4644956072075486e-62 1.9332893064088727e-62 0.0000000000000000e+00  -1.3699096499293073e-60 8.3456917237443787e-61 0.0000000000000000e+00  -2.4231521485688293e-60 3.3070760065613880e-61 0.0000000000000000e+00  -2.1306184706793000e-59 7.2349708566408137e-60 0.0000000000000000e+00  -2.4462099049076495e-58 1.4574994233477018e-58 0.0000000000000000e+00  -2.5685291102654017e-58 -9.1629612974601523e-59 0.0000000000000000e+00  -6.0347608900102577e-57 2.7052414380732279e-57 0.0000000000000000e+00  -2.5095127015746161e-56 1.2019317556020756e-56 0.0000000000000000e+00  -5.5442330383281952e-56 -8.3636305365716639e-57 0.0000000000000000e+00  -1.0252315704184089e-54 6.2644681065227847e-55 0.0000000000000000e+00  -1.1130703636837741e-54 -3.3393914717432920e-55 0.0000000000000000e+00  -2.4356320686868209e-53 1.2230998970060932e-53 0.0000000000000000e+00  -6.6582041925338088e-53 2.8715437025484067e-53 0.0000000000000000e+00  -4.3833910204878250e-52 1.1770660856590461e-52 0.0000000000000000e+00  -2.7014347992795474e-51 1.5916750230170155e-51 0.0000000000000000e+00  -7.6629388924568418e-51 -1.9842201339169755e-52 0.0000000000000000e+00  -7.2916535493686688e-50 4.3828548339099527e-50 0.0000000000000000e+00  -1.6147558770552288e-49 -1.3934305038883127e-50 0.0000000000000000e+00  -1.7491551890032461e-48 9.5944390763121589e-49 0.0000000000000000e+00  -4.3390704598489321e-48 -1.9045994708605287e-49 0.0000000000000000e+00  -2.0332936255257990e-47 1.0502005624470371e-47 0.0000000000000000e+00  -1.1063964881075879e-46 1.7972647616813690e-47 0.0000000000000000e+00  -1.0284232452039830e-46 2.3191892950520970e-47 0.0000000000000000e+00  -1.2485705324738899e-45 4.9514596600911454e-46 0.0000000000000000e+00  -8.6712047700708334e-46 -5.3365912200487611e-46 0.0000000000000000e+00  -1.3523703339830867e-44 7.5829840950923923e-45 0.0000000000000000e+00  -5.8125083744262106e-44 1.2908123704668804e-44 0.0000000000000000e+00  -3.6044920108076045e-44 -1.6407708243807341e-44 0.0000000000000000e+00  -1.1467111972317496e-43 6.0905814538403609e-44 0.0000000000000000e+00  -8.4279483770784359e-43 2.1695435315498960e-43 0.0000000000000000e+00  -1.9310157306132218e-42 1.8503984839946778e-43 0.0000000000000000e+00  -2.5137206066056463e-42 5.7130487674356251e-44 0.0000000000000000e+00  -2.0163915195087731e-42 -1.8246050358208505e-43 0.0000000000000000e+00  -8.6290608334339890e-43 -2.3469871906376200e-43 0.0000000000000000e+00  -1.1365869715421971e-43 -6.0400273775369578e-44 0.0000000000000000e+00  -3.8599236314611939e-44 1.7334129826170302e-44 0.0000000000000000e+00  -6.3306499666043424e-44 -1.0172207997447347e-44 0.0000000000000000e+00  -1.5080732604786566e-44 -7.3912104804500505e-45 0.0000000000000000e+00  -9.9217229976483245e-46 5.3296359368498971e-46 0.0000000000000000e+00  -1.4120991060727610e-45 -5.0756703094874730e-46 0.0000000000000000e+00  -1.1251964922892889e-46 -2.6914222162009158e-47 0.0000000000000000e+00  -1.0221899051485992e-46 -2.0283079191346801e-47 0.0000000000000000e+00  -1.8824139336504396e-47 -1.1323366817600507e-47 0.0000000000000000e+00  -4.0836116796667001e-48 1.8948661104149696e-49 0.0000000000000000e+00  -1.5053756575612296e-48 -8.8829107507134970e-49 0.0000000000000000e+00  -1.6286980856139809e-49 2.3207334229336934e-50 0.0000000000000000e+00  -7.5515958368687196e-50 -4.2104766376162483e-50 0.0000000000000000e+00  -8.2340168955196771e-51 6.0500088730703804e-52 0.0000000000000000e+00  -3.1848533801277361e-51 -1.7048933098141894e-51 0.0000000000000000e+00  -5.1289464602262418e-52 -1.1012614737654856e-52 0.0000000000000000e+00  -8.2858350529630055e-53 -3.4029829834925903e-53 0.0000000000000000e+00  -2.6916047032576605e-53 -1.2659320580278373e-53 0.0000000000000000e+00  -1.1898889582732951e-54 3.1185023527653228e-55 0.0000000000000000e+00  -1.0789112301110325e-54 -6.5695115076352419e-55 0.0000000000000000e+00  -5.1332760108329951e-56 8.0298501974992219e-57 0.0000000000000000e+00  -2.3654749536414917e-56 -1.2822674271567640e-56 0.0000000000000000e+00  -4.8773958042839103e-57 -2.4485164910465822e-57 0.0000000000000000e+00  -2.4406491595234980e-58 8.3023286679874801e-59 0.0000000000000000e+00  -2.1853654123512998e-58 -1.2937015193148173e-58 0.0000000000000000e+00  -2.0028756590075220e-59 -6.0036440306554474e-60 0.0000000000000000e+00  -2.3814699074518833e-60 -3.3162150084459216e-61 0.0000000000000000e+00  -1.3048429766244429e-60 -7.4448180765294563e-61 0.0000000000000000e+00  -7.7268334942176039e-62 -2.1041004666896655e-62 0.0000000000000000e+00  -1.3643883108950447e-62 -2.8744759244548833e-63 0.0000000000000000e+00  -6.7000274898114582e-63 -3.7226210427030980e-63 0.0000000000000000e+00  -4.8098062268629711e-64 -1.7918315605278868e-64 0.0000000000000000e+00  -4.3624614338640397e-65 9.4354344844126531e-67 0.0000000000000000e+00  -2.9705167130369510e-65 -1.6394890147308852e-65 0.0000000000000000e+00  -3.4376829702458566e-66 -1.9646208193872577e-66 0.0000000000000000e+00  -8.9284694821289561e-68 5.4148562903168143e-68 0.0000000000000000e+00  -8.6814099736728421e-68 -4.1346294246568727e-68 0.0000000000000000e+00  -2.0805511539255829e-68 -1.2733590992683654e-68 0.0000000000000000e+00  -1.1368420100114733e-69 -5.0949448076281315e-70 0.0000000000000000e+00  -8.7833164562730768e-71 1.3687262053594445e-71 0.0000000000000000e+00  -6.9330664223432737e-71 -3.6346324489317603e-71 0.0000000000000000e+00  -1.2522638651899760e-71 -7.6232169582357007e-72 0.0000000000000000e+00  -5.9937751035136415e-73 -2.7406022093353103e-73 0.0000000000000000e+00  -3.9206865264633143e-74 7.3963629620198438e-75 0.0000000000000000e+00  -3.1607843124627034e-74 -1.4752903572909975e-74 0.0000000000000000e+00  -6.5964404067444828e-75 -3.3519997411423512e-75 0.0000000000000000e+00  -7.1815209923359405e-76 -3.1057395298064042e-76 0.0000000000000000e+00  -8.5455334666300393e-76 -1.6234045457389093e-75 0.0000000000000000e+00  -4.7693844715384954e-75 -1.3949573291004442e-74 0.0000000000000000e+00  4.3523316020424239e-75 -8.2960842998298137e-75 0.0000000000000000e+00  -1.6237234807355555e-73 -3.4321505213378919e-73 0.0000000000000000e+00  -9.2405631407465704e-71 -1.0108124093395458e-70 0.0000000000000000e+00  -7.4619136484502150e-70 -1.3215154622185400e-69 0.0000000000000000e+00  -1.0908153812508395e-69 -3.6576819057185710e-69 0.0000000000000000e+00  -7.7006407101051647e-68 -1.7164688476008578e-67 0.0000000000000000e+00  -6.4718281781024981e-68 -3.2648315640216086e-67 0.0000000000000000e+00  -6.7250255826049740e-66 -1.3553790437695051e-65 0.0000000000000000e+00  -4.4685289359789901e-66 -2.1357316579209849e-65 0.0000000000000000e+00  -8.9586314232806101e-65 -1.5663066748396942e-64 0.0000000000000000e+00  1.6983526263959849e-65 -2.1017460003358169e-64 0.0000000000000000e+00  -4.2148872553013539e-62 -6.4488864496738029e-62 0.0000000000000000e+00  -6.8871332661251904e-62 -1.7289571077188449e-61 0.0000000000000000e+00  -2.2858858125391613e-62 -2.7315301383849024e-61 0.0000000000000000e+00  -5.6389305801377321e-60 -1.1435201929361615e-59 0.0000000000000000e+00  4.6661701780355392e-60 -1.4952729962420829e-59 0.0000000000000000e+00  -2.8413055353428996e-59 -4.7891325605480505e-59 0.0000000000000000e+00  8.6239445033699663e-60 -6.0733401908401912e-59 0.0000000000000000e+00  2.2689877517504453e-59 -3.9369472256254331e-59 0.0000000000000000e+00  -5.5010125521771776e-58 -9.0322915432116672e-58 0.0000000000000000e+00  -1.3440542510081870e-59 -1.2604519286524119e-57 0.0000000000000000e+00  -4.5124301649553824e-57 -1.1709432913207839e-56 0.0000000000000000e+00  5.5796934233987566e-57 -8.5827854724840725e-57 0.0000000000000000e+00  -5.1749678375090749e-57 -7.4230615456539227e-57 0.0000000000000000e+00  -1.7116193476543907e-56 -3.8016595640303074e-56 0.0000000000000000e+00  2.0893856443192657e-56 -4.0367380842830208e-56 0.0000000000000000e+00  -4.8336339823794778e-57 -9.2803005528548256e-57 0.0000000000000000e+00  -7.8379260775344886e-56 -2.0438949462370832e-55 0.0000000000000000e+00  6.1023632556778775e-56 -5.0678320210815765e-55 0.0000000000000000e+00  -4.1272530191093998e-55 -7.3233548670787358e-55 0.0000000000000000e+00  -4.7794680389170993e-56 -1.8367673676412170e-54 0.0000000000000000e+00  1.5926879759989108e-55 -5.7159555646742813e-55 0.0000000000000000e+00  -4.9759752973061587e-55 -1.6836264094784004e-54 0.0000000000000000e+00  -2.1603978204887276e-54 -7.1036060709107078e-54 0.0000000000000000e+00  2.4660965034132811e-54 -6.0456068908864803e-54 0.0000000000000000e+00  -6.4281459021622034e-55 -2.3985143039277972e-54 0.0000000000000000e+00  5.0682320110124226e-55 -2.8141296472986808e-54 0.0000000000000000e+00  1.2164794974130415e-55 -1.4240170621847773e-54 0.0000000000000000e+00  -2.0766537098185125e-54 -3.4878613789161824e-54 0.0000000000000000e+00  5.4057095913855484e-55 -8.2260579078000466e-54 0.0000000000000000e+00  -3.7411457255876528e-54 -1.3593474254454006e-53 0.0000000000000000e+00  4.4582358455201344e-54 -7.6851507275596926e-54 0.0000000000000000e+00  1.9284398985117440e-55 -6.4975064537719395e-55 0.0000000000000000e+00  -4.5589153878440613e-54 -8.0325312054230438e-54 0.0000000000000000e+00  4.5804789385737259e-54 -7.8558267302136942e-54 0.0000000000000000e+00  -1.5768824576736768e-56 -1.3353605787174229e-55 0.0000000000000000e+00  1.0571202817974003e-56 -2.7692021170077878e-55 0.0000000000000000e+00  2.0936194526297510e-56 -9.8800097496509867e-56 0.0000000000000000e+00  -4.9375099710466797e-54 -9.3498409965489187e-54 0.0000000000000000e+00  5.2678703744582984e-54 -9.4237828933327296e-54 0.0000000000000000e+00  5.3871470564341659e-56 -1.0540376030836328e-55 0.0000000000000000e+00  -1.3597520519998622e-56 -6.2006906532841172e-56 0.0000000000000000e+00  -4.7485064536975940e-55 -9.0198496053417599e-55 0.0000000000000000e+00  -5.5263255653144827e-54 -1.0008045770129530e-53 0.0000000000000000e+00  4.2841523241752287e-54 -1.0527394660896881e-53 0.0000000000000000e+00  -2.9054290291995522e-54 -7.9588391956909588e-54 0.0000000000000000e+00  2.3233916169153622e-54 -8.5734484344710443e-54 0.0000000000000000e+00  2.1422312120968552e-54 -3.3301945164663072e-54 0.0000000000000000e+00  -5.1878841479612067e-55 -1.4737730093984701e-54 0.0000000000000000e+00  7.9898268756333243e-55 -1.5843949812082799e-54 0.0000000000000000e+00  -4.7053233652819573e-55 -9.7715596984284430e-55 0.0000000000000000e+00  4.9107723169528572e-55 -8.9258837513416144e-55 0.0000000000000000e+00  -1.5014768876627744e-56 -2.6702348374246412e-56 0.0000000000000000e+00  -4.2881348489101469e-56 -1.7156571630013949e-55 0.0000000000000000e+00  4.0196330296236011e-56 -1.7533388264803924e-55 0.0000000000000000e+00  4.6592124327026926e-57 -6.9113549696363031e-56 0.0000000000000000e+00  -2.6480574461110488e-56 -6.4998620603518438e-56 0.0000000000000000e+00  3.1734867708205928e-56 -6.4659191555042884e-56 0.0000000000000000e+00  -2.7619082525457913e-57 -2.8687806593835196e-56 0.0000000000000000e+00  1.2555342884467303e-56 -3.0229165268328566e-56 0.0000000000000000e+00  9.7237199252062027e-58 -2.4151641984647326e-57 0.0000000000000000e+00  -4.2497548391135960e-57 -7.5687797109703392e-57 0.0000000000000000e+00  4.1346795455147295e-57 -1.1073842435423239e-56 0.0000000000000000e+00  3.0402512394263272e-58 -1.0262018094699956e-57 0.0000000000000000e+00  1.4011337893954641e-58 -5.048352