<?xml version="1.0"?>
<VTKFile type="UnstructuredGrid"  version="0.1"  >
<UnstructuredGrid>
<Piece  NumberOfPoints="11902" NumberOfCells="23402">
<Points>
<DataArray  type="Float64"  NumberOfComponents="3"  format="ascii">-5 -5 0  5 -5 0  5 5 0  -5 5 0  1.043457032861113 0.0002828119446795349 0  -4.9 -5 0  -4.8 -5 0  -4.7 -5 0  -4.6 -5 0  -4.5 -5 0  -4.4 -5 0  -4.3 -5 0  -4.2 -5 0  -4.1 -5 0  -4 -5 0  -3.9 -5 0  -3.8 -5 0  -3.7 -5 0  -3.6 -5 0  -3.5 -5 0  -3.4 -5 0  -3.3 -5 0  -3.2 -5 0  -3.1 -5 0  -3 -5 0  -2.9 -5 0  -2.8 -5 0  -2.7 -5 0  -2.6 -5 0  -2.5 -5 0  -2.4 -5 0  -2.3 -5 0  -2.2 -5 0  -2.1 -5 0  -2 -5 0  -1.9 -5 0  -1.8 -5 0  -1.7 -5 0  -1.6 -5 0  -1.5 -5 0  -1.4 -5 0  -1.3 -5 0  -1.2 -5 0  -1.1 -5 0  -1 -5 0  -0.9000000000000004 -5 0  -0.7999999999999998 -5 0  -0.7000000000000002 -5 0  -0.5999999999999996 -5 0  -0.5 -5 0  -0.4000000000000004 -5 0  -0.2999999999999998 -5 0  -0.2000000000000002 -5 0  -0.09999999999999964 -5 0  0 -5 0  0.09999999999999964 -5 0  0.2000000000000002 -5 0  0.2999999999999998 -5 0  0.4000000000000004 -5 0  0.5 -5 0  0.5999999999999996 -5 0  0.7000000000000002 -5 0  0.7999999999999998 -5 0  0.9000000000000004 -5 0  1 -5 0  1.1 -5 0  1.2 -5 0  1.3 -5 0  1.4 -5 0  1.5 -5 0  1.6 -5 0  1.7 -5 0  1.8 -5 0  1.9 -5 0  2 -5 0  2.1 -5 0  2.2 -5 0  2.3 -5 0  2.4 -5 0  2.5 -5 0  2.6 -5 0  2.7 -5 0  2.8 -5 0  2.9 -5 0  3 -5 0  3.1 -5 0  3.199999999999999 -5 0  3.300000000000001 -5 0  3.4 -5 0  3.5 -5 0  3.6 -5 0  3.699999999999999 -5 0  3.800000000000001 -5 0  3.9 -5 0  4 -5 0  4.1 -5 0  4.199999999999999 -5 0  4.300000000000001 -5 0  4.4 -5 0  4.5 -5 0  4.6 -5 0  4.699999999999999 -5 0  4.800000000000001 -5 0  4.9 -5 0  5 -4.9 0  5 -4.8 0  5 -4.7 0  5 -4.6 0  5 -4.5 0  5 -4.4 0  5 -4.3 0  5 -4.2 0  5 -4.1 0  5 -4 0  5 -3.9 0  5 -3.8 0  5 -3.7 0  5 -3.6 0  5 -3.5 0  5 -3.4 0  5 -3.3 0  5 -3.2 0  5 -3.1 0  5 -3 0  5 -2.9 0  5 -2.8 0  5 -2.7 0  5 -2.6 0  5 -2.5 0  5 -2.4 0  5 -2.3 0  5 -2.2 0  5 -2.1 0  5 -2 0  5 -1.9 0  5 -1.8 0  5 -1.7 0  5 -1.6 0  5 -1.5 0  5 -1.4 0  5 -1.3 0  5 -1.2 0  5 -1.1 0  5 -1 0  5 -0.9000000000000004 0  5 -0.7999999999999998 0  5 -0.7000000000000002 0  5 -0.5999999999999996 0  5 -0.5 0  5 -0.4000000000000004 0  5 -0.2999999999999998 0  5 -0.2000000000000002 0  5 -0.09999999999999964 0  5 0 0  5 0.09999999999999964 0  5 0.2000000000000002 0  5 0.2999999999999998 0  5 0.4000000000000004 0  5 0.5 0  5 0.5999999999999996 0  5 0.7000000000000002 0  5 0.7999999999999998 0  5 0.9000000000000004 0  5 1 0  5 1.1 0  5 1.2 0  5 1.3 0  5 1.4 0  5 1.5 0  5 1.6 0  5 1.7 0  5 1.8 0  5 1.9 0  5 2 0  5 2.1 0  5 2.2 0  5 2.3 0  5 2.4 0  5 2.5 0  5 2.6 0  5 2.7 0  5 2.8 0  5 2.9 0  5 3 0  5 3.1 0  5 3.199999999999999 0  5 3.300000000000001 0  5 3.4 0  5 3.5 0  5 3.6 0  5 3.699999999999999 0  5 3.800000000000001 0  5 3.9 0  5 4 0  5 4.1 0  5 4.199999999999999 0  5 4.300000000000001 0  5 4.4 0  5 4.5 0  5 4.6 0  5 4.699999999999999 0  5 4.800000000000001 0  5 4.9 0  4.9 5 0  4.8 5 0  4.7 5 0  4.6 5 0  4.5 5 0  4.4 5 0  4.3 5 0  4.2 5 0  4.1 5 0  4 5 0  3.9 5 0  3.8 5 0  3.7 5 0  3.6 5 0  3.5 5 0  3.4 5 0  3.3 5 0  3.2 5 0  3.1 5 0  3 5 0  2.9 5 0  2.8 5 0  2.7 5 0  2.6 5 0  2.5 5 0  2.4 5 0  2.3 5 0  2.2 5 0  2.1 5 0  2 5 0  1.9 5 0  1.8 5 0  1.7 5 0  1.6 5 0  1.5 5 0  1.4 5 0  1.3 5 0  1.2 5 0  1.1 5 0  1 5 0  0.9000000000000004 5 0  0.7999999999999998 5 0  0.7000000000000002 5 0  0.5999999999999996 5 0  0.5 5 0  0.4000000000000004 5 0  0.2999999999999998 5 0  0.2000000000000002 5 0  0.09999999999999964 5 0  0 5 0  -0.09999999999999964 5 0  -0.2000000000000002 5 0  -0.2999999999999998 5 0  -0.4000000000000004 5 0  -0.5 5 0  -0.5999999999999996 5 0  -0.7000000000000002 5 0  -0.7999999999999998 5 0  -0.9000000000000004 5 0  -1 5 0  -1.1 5 0  -1.2 5 0  -1.3 5 0  -1.4 5 0  -1.5 5 0  -1.6 5 0  -1.7 5 0  -1.8 5 0  -1.9 5 0  -2 5 0  -2.1 5 0  -2.2 5 0  -2.3 5 0  -2.4 5 0  -2.5 5 0  -2.6 5 0  -2.7 5 0  -2.8 5 0  -2.9 5 0  -3 5 0  -3.1 5 0  -3.199999999999999 5 0  -3.300000000000001 5 0  -3.4 5 0  -3.5 5 0  -3.6 5 0  -3.699999999999999 5 0  -3.800000000000001 5 0  -3.9 5 0  -4 5 0  -4.1 5 0  -4.199999999999999 5 0  -4.300000000000001 5 0  -4.4 5 0  -4.5 5 0  -4.6 5 0  -4.699999999999999 5 0  -4.800000000000001 5 0  -4.9 5 0  -5 4.9 0  -5 4.8 0  -5 4.7 0  -5 4.6 0  -5 4.5 0  -5 4.4 0  -5 4.3 0  -5 4.2 0  -5 4.1 0  -5 4 0  -5 3.9 0  -5 3.8 0  -5 3.7 0  -5 3.6 0  -5 3.5 0  -5 3.4 0  -5 3.3 0  -5 3.2 0  -5 3.1 0  -5 3 0  -5 2.9 0  -5 2.8 0  -5 2.7 0  -5 2.6 0  -5 2.5 0  -5 2.4 0  -5 2.3 0  -5 2.2 0  -5 2.1 0  -5 2 0  -5 1.9 0  -5 1.8 0  -5 1.7 0  -5 1.6 0  -5 1.5 0  -5 1.4 0  -5 1.3 0  -5 1.2 0  -5 1.1 0  -5 1 0  -5 0.9000000000000004 0  -5 0.7999999999999998 0  -5 0.7000000000000002 0  -5 0.5999999999999996 0  -5 0.5 0  -5 0.4000000000000004 0  -5 0.2999999999999998 0  -5 0.2000000000000002 0  -5 0.09999999999999964 0  -5 0 0  -5 -0.09999999999999964 0  -5 -0.2000000000000002 0  -5 -0.2999999999999998 0  -5 -0.4000000000000004 0  -5 -0.5 0  -5 -0.5999999999999996 0  -5 -0.7000000000000002 0  -5 -0.7999999999999998 0  -5 -0.9000000000000004 0  -5 -1 0  -5 -1.1 0  -5 -1.2 0  -5 -1.3 0  -5 -1.4 0  -5 -1.5 0  -5 -1.6 0  -5 -1.7 0  -5 -1.8 0  -5 -1.9 0  -5 -2 0  -5 -2.1 0  -5 -2.2 0  -5 -2.3 0  -5 -2.4 0  -5 -2.5 0  -5 -2.6 0  -5 -2.7 0  -5 -2.8 0  -5 -2.9 0  -5 -3 0  -5 -3.1 0  -5 -3.199999999999999 0  -5 -3.300000000000001 0  -5 -3.4 0  -5 -3.5 0  -5 -3.6 0  -5 -3.699999999999999 0  -5 -3.800000000000001 0  -5 -3.9 0  -5 -4 0  -5 -4.1 0  -5 -4.199999999999999 0  -5 -4.300000000000001 0  -5 -4.4 0  -5 -4.5 0  -5 -4.6 0  -5 -4.699999999999999 0  -5 -4.800000000000001 0  -5 -4.9 0  1.038326723436807 0.1001229340115526 0  1.022761688390864 0.1992107632568817 0  0.9967318158615821 0.2964484137315027 0  0.9613206212437994 0.390321503337029 0  0.9162758409938422 0.4807813485357334 0  0.8622891296269892 0.5663023855145862 0  0.7995132593108705 0.6460193873709782 0  0.7284766661563041 0.7192683607093147 0  0.6505485907361238 0.7855427594098752 0  0.5661752305102239 0.8441292691857697 0  0.4760070650931359 0.8940812659036479 0  0.381006718661722 0.9352258528191241 0  0.2827190427727744 0.9672580018349963 0  0.1812654587468653 0.9893604617195217 0  0.07826834605046799 1.001882739409486 0  -0.02565377355484143 1.004407952994532 0  -0.129337363676117 0.9967841493850853 0  -0.2317451658770041 0.9796086040111006 0  -0.3318036547896904 0.9526048601624323 0  -0.4285225780454713 0.9159645658851754 0  -0.5209222805643882 0.8704447263388432 0  -0.6082145061212733 0.8161178370368569 0  -0.6894789544932454 0.7537634333251797 0  -0.7639000759098369 0.6840104879927369 0  -0.8307988725881399 0.6070862362276038 0  -0.8892785142366963 0.5242077268649786 0  -0.9392052052719846 0.4363300348947782 0  -0.9795524857515597 0.3439142740839719 0  -1.010086521656034 0.2482220035692579 0  -1.030746000226519 0.1500882347272883 0  -1.041184114197997 0.05032128316805466 0  -1.041194196007759 -0.04997446052268889 0  -1.030769435253776 -0.1496906128634276 0  -1.010636175877518 -0.2477915223540049 0  -0.9795560391852197 -0.3436530622393181 0  -0.9392842904827399 -0.4358680354003288 0  -0.8894464539983963 -0.5238306568001987 0  -0.8309884989566522 -0.6065939931772528 0  -0.7640667797062486 -0.683287452584409 0  -0.6894647218102247 -0.7529878819704262 0  -0.608011481204655 -0.8151234108515584 0  -0.5210564167938334 -0.8696856778602661 0  -0.4281554621960516 -0.9151746028795748 0  -0.3313984739220744 -0.9519460994872824 0  -0.2312313678815782 -0.9790357931543152 0  -0.1289043045978633 -0.9963751747111115 0  -0.02535646821808483 -1.004235186898186 0  0.07836055157857028 -1.001576764221235 0  0.1816100332109787 -0.9889228462763586 0  0.2828354662416765 -0.9667621583569009 0  0.3816204663365138 -0.9347461041784033 0  0.4761879999883004 -0.8936239129973893 0  0.5663440617641856 -0.8436907954060158 0  0.6506704509339041 -0.7856138746702643 0  0.7285840539473357 -0.7193646500386283 0  0.7993804388486432 -0.6458379688193739 0  0.862058700656457 -0.5659487479923511 0  0.9164103892100979 -0.480550175038319 0  0.9617917342643209 -0.3903274233544357 0  0.9971117089821121 -0.2963047480889631 0  1.022789290475756 -0.1990332140987938 0  1.038356308206233 -0.1000507298130524 0  -2.449662528274861 4.9201519629879 0  -2.449634241161575 -4.912714470651063 0  4.91269114176973 2.449495059655326 0  4.920607439889591 -2.450811537107246 0  2.447559987682561 -4.898334237728386 0  2.441948199419719 4.902011872093555 0  -4.912699347609179 -2.449503885707481 0  -4.912702377252576 2.449507443950527 0  -1.749650694222655 4.913930312851528 0  -1.745387756602794 -4.91725410445928 0  4.92346151173824 1.745515694060133 0  4.912395964584029 -1.74948851284238 0  -4.912654068241063 -1.749198014619379 0  -4.91345363125982 1.748925536441482 0  1.746993589502023 4.908004285529334 0  1.748551434479269 -4.896532552947635 0  -1.149728248468866 4.91232300624879 0  -1.130494756888031 -4.919937093933674 0  -4.913173791819312 -1.149235705395154 0  -4.913005402903243 1.149034114479607 0  1.14466465591417 -4.916271373062763 0  1.14972739101093 4.912320131443552 0  4.913347098739643 1.147521319893122 0  4.923690677704953 -1.153151321967264 0  -0.5471300700761363 -4.91380986113407 0  -0.5468680574101937 4.922140036977133 0  -4.912550354278595 -0.54943493117724 0  -4.912576925156793 0.5479844580896477 0  4.911947155731481 -0.549767311685107 0  4.923016754804203 0.5464252367266925 0  0.5429560416512426 -4.901250240155232 0  0.551604183839988 4.919099823604841 0  -4.913397161352486 -3.04958884440313 0  4.919868138296317 3.0475219360158 0  4.912922104317277 -3.04958573449568 0  -4.914237968722666 3.046670037841048 0  3.0562717490276 -4.918865366045092 0  -3.049675223205834 -4.912902913775349 0  3.053220617561836 4.914954383286251 0  -3.049114797911812 4.913780736162464 0  -4.911899429964325 -0.04998028555033853 0  0.04514807145527416 -4.91578760953901 0  0.04959932256105071 4.922520883512963 0  4.918627924670665 -0.05135780078437203 0  3.54638992267255 -4.920066154484984 0  -3.549737907228181
[...]
<PointData  Vectors="f_478"> 
<DataArray  type="Float64"  Name="f_478"  NumberOfComponents="3" format="ascii">2.6559658580597346e-76 2.6559658580597346e-76 0.0000000000000000e+00  -2.8445085011135673e-76 2.8445085011135673e-76 0.0000000000000000e+00  -8.5659604778748461e-78 -8.5659604778748461e-78 0.0000000000000000e+00  3.0308186857302592e-76 -3.0308186857302592e-76 0.0000000000000000e+00  -9.1218997539105573e-01 -1.9384736253607007e-02 0.0000000000000000e+00  4.1628070350794639e-75 6.6089713278378325e-75 0.0000000000000000e+00  2.0854497961184320e-75 2.0877327611105394e-74 0.0000000000000000e+00  -3.3967953096342778e-75 6.7636769450396060e-75 0.0000000000000000e+00  3.9888444083901508e-72 6.6779478909064821e-72 0.0000000000000000e+00  5.3007749585974335e-71 1.3472360434135421e-70 0.0000000000000000e+00  -7.8794148991842340e-72 4.5517815695613505e-71 0.0000000000000000e+00  3.2167767417112483e-69 6.1773096331243243e-69 0.0000000000000000e+00  5.1283877195377746e-68 9.4266713539444888e-68 0.0000000000000000e+00  -3.0372454746384558e-68 1.4978205777188001e-67 0.0000000000000000e+00  1.2671940011936857e-67 3.9896706306453148e-67 0.0000000000000000e+00  1.2914925201920125e-68 8.7773365996212578e-67 0.0000000000000000e+00  5.3984888488011574e-64 8.8656441715280941e-64 0.0000000000000000e+00  4.7938760977578699e-65 2.4416629698450299e-63 0.0000000000000000e+00  1.3332657302687839e-62 2.2112416347390308e-62 0.0000000000000000e+00  7.9970475937215870e-63 8.3240930173652270e-62 0.0000000000000000e+00  6.8360577649320356e-61 1.1093179971011934e-60 0.0000000000000000e+00  4.0017079712855852e-60 7.0501503942896958e-60 0.0000000000000000e+00  -2.8007551150733661e-60 7.6669385631735469e-60 0.0000000000000000e+00  5.5688748989400037e-59 1.1432432293338063e-58 0.0000000000000000e+00  -1.7262116805288917e-59 1.1625114837853136e-58 0.0000000000000000e+00  -2.9442019566272771e-59 6.8010659834398576e-59 0.0000000000000000e+00  1.7656125834624016e-58 3.3269840404411887e-58 0.0000000000000000e+00  7.1496018417426914e-58 2.0986864607246391e-57 0.0000000000000000e+00  2.7957030185602451e-57 6.2703959959469056e-57 0.0000000000000000e+00  -3.3246373259922854e-57 5.6926974541862620e-57 0.0000000000000000e+00  -3.4330129221898293e-58 1.0930711096730231e-57 0.0000000000000000e+00  1.8589319397450129e-56 2.9576156019111970e-56 0.0000000000000000e+00  -1.3733721929583543e-56 3.5119464965066957e-56 0.0000000000000000e+00  1.1580086343142076e-56 2.9094151247692257e-56 0.0000000000000000e+00  8.4861371634812457e-56 2.1092485072018361e-55 0.0000000000000000e+00  -2.3944005713936256e-56 5.7409170102987148e-55 0.0000000000000000e+00  5.0440220224261070e-57 8.6794212987104279e-57 0.0000000000000000e+00  5.3657303847150105e-56 1.3887760244166410e-55 0.0000000000000000e+00  1.4985052679271312e-55 6.1892771453128548e-55 0.0000000000000000e+00  -2.1564368611635632e-55 3.4905867526839320e-55 0.0000000000000000e+00  9.4845450112186015e-55 1.7342187212071823e-54 0.0000000000000000e+00  -4.2336956240546823e-55 4.3580855995787480e-54 0.0000000000000000e+00  -2.1851557998463748e-55 2.6804682670471487e-54 0.0000000000000000e+00  -9.2184890724731995e-56 9.4326195295316657e-55 0.0000000000000000e+00  -1.0857957635296297e-55 1.8125266202827229e-55 0.0000000000000000e+00  2.6493453081024151e-54 5.2567160826195322e-54 0.0000000000000000e+00  -2.0709576588016212e-54 4.1234214486182695e-54 0.0000000000000000e+00  -6.8918152426930064e-55 8.0342418013992570e-55 0.0000000000000000e+00  -1.2641729389823506e-55 2.7066241418727751e-55 0.0000000000000000e+00  8.9071897880727879e-55 1.4498277933949082e-54 0.0000000000000000e+00  9.0566781284977346e-55 6.1605056736395672e-54 0.0000000000000000e+00  -1.0788987771738770e-54 5.8979665994121508e-54 0.0000000000000000e+00  4.9262984346454518e-55 4.6510365124687790e-54 0.0000000000000000e+00  1.8489513177876627e-56 5.7954482442305672e-54 0.0000000000000000e+00  2.8856942381122745e-55 6.1536883941350952e-54 0.0000000000000000e+00  -1.2064852966134036e-54 2.0454624516345764e-54 0.0000000000000000e+00  -6.1888167609472887e-55 1.4734256417113191e-53 0.0000000000000000e+00  4.2699217824409588e-54 7.4575161569975191e-54 0.0000000000000000e+00  -4.1601843074993392e-54 8.1124047336635264e-54 0.0000000000000000e+00  1.8396455693084579e-54 3.9485018782298154e-54 0.0000000000000000e+00  -7.0731592410508557e-55 9.5067685831516992e-54 0.0000000000000000e+00  1.2732505330272652e-54 9.3240512583845930e-54 0.0000000000000000e+00  -1.6156820110809045e-54 4.4083236943137317e-54 0.0000000000000000e+00  -8.8827141815330847e-55 2.4126289279418066e-54 0.0000000000000000e+00  3.1949152969860718e-55 1.2971937664637307e-54 0.0000000000000000e+00  2.5448324399287975e-55 2.5359025906674237e-54 0.0000000000000000e+00  -7.6715389289365169e-56 3.4915985145698770e-54 0.0000000000000000e+00  -6.8521636365962177e-55 1.4890595814303566e-54 0.0000000000000000e+00  2.2907868250328015e-55 4.4008242726544753e-55 0.0000000000000000e+00  -2.2303817017254572e-55 6.0503929080796508e-55 0.0000000000000000e+00  4.8516296279983972e-56 2.3925187963139194e-55 0.0000000000000000e+00  1.8000295695197358e-55 9.5031427480714168e-55 0.0000000000000000e+00  -3.1986317707604811e-55 5.3426654758317428e-55 0.0000000000000000e+00  -1.5435575569400661e-56 4.8423045880461126e-56 0.0000000000000000e+00  -1.1064823481850976e-57 1.1348042556300405e-56 0.0000000000000000e+00  6.5482406787507773e-57 2.3465958687358508e-56 0.0000000000000000e+00  -8.7495846846217406e-57 1.5135317291222543e-56 0.0000000000000000e+00  1.6947252940996235e-57 2.8648015952966161e-57 0.0000000000000000e+00  -1.2128888407833477e-57 2.7401136812587263e-57 0.0000000000000000e+00  5.0492794964372043e-57 7.7435591307579878e-57 0.0000000000000000e+00  -4.4334178500827178e-57 1.1306357189430293e-56 0.0000000000000000e+00  -1.7739216661854326e-58 9.4171742747591985e-58 0.0000000000000000e+00  -2.3427338488950788e-58 4.6809851965988174e-58 0.0000000000000000e+00  -7.7223452512703676e-61 8.8112569209604986e-59 0.0000000000000000e+00  -2.4003614755901982e-59 6.4505528676125488e-59 0.0000000000000000e+00  -6.9908501502757878e-60 2.5075574356606709e-59 0.0000000000000000e+00  -4.3221376312899869e-60 2.2429286824342661e-59 0.0000000000000000e+00  -3.0178146297176654e-60 7.1982303187647650e-60 0.0000000000000000e+00  -8.3994588852071472e-62 4.4435220665563273e-61 0.0000000000000000e+00  -1.0614219131136409e-61 2.2440107188255992e-61 0.0000000000000000e+00  -3.5442338294228297e-62 5.7049648080651681e-62 0.0000000000000000e+00  -3.8656201053305635e-64 6.7297584351711569e-64 0.0000000000000000e+00  -2.4068474463955922e-65 5.1888151115279924e-65 0.0000000000000000e+00  3.6687961443406734e-66 1.0357699955124258e-65 0.0000000000000000e+00  -4.8030371102389005e-66 9.2917633940100967e-66 0.0000000000000000e+00  -6.6475524586848776e-68 2.7751097682812922e-67 0.0000000000000000e+00  -7.8007164964855450e-68 1.2959062492373898e-67 0.0000000000000000e+00  -8.0145043099075133e-69 1.1769045592014275e-68 0.0000000000000000e+00  -5.6058154154545959e-70 9.5424693529336340e-70 0.0000000000000000e+00  -3.7644326377957683e-71 6.8308630463042293e-71 0.0000000000000000e+00  -1.8725746623204373e-72 3.2075212509470664e-72 0.0000000000000000e+00  -1.2154976186375884e-73 2.7286070006554594e-73 0.0000000000000000e+00  -4.4139826675160661e-75 1.2917536928356226e-74 0.0000000000000000e+00  -2.5461293582053158e-75 4.2428795291175676e-75 0.0000000000000000e+00  -9.7721723436859354e-76 3.5554621833228026e-76 0.0000000000000000e+00  -1.6202976832726647e-75 -2.3851699318953174e-76 0.0000000000000000e+00  -2.4513802684188538e-74 1.1569279107882184e-74 0.0000000000000000e+00  -3.6796300935958549e-74 1.5460220068251544e-75 0.0000000000000000e+00  -3.8877111419220154e-73 1.4293847296847803e-73 0.0000000000000000e+00  -1.0265782747243363e-71 6.2132327855779640e-72 0.0000000000000000e+00  -6.7608565629007185e-71 3.6903144271486242e-71 0.0000000000000000e+00  -1.0612874494896549e-70 3.8805589438038378e-72 0.0000000000000000e+00  -8.9214273083684476e-70 3.2900302510326356e-70 0.0000000000000000e+00  -2.1384259136016177e-68 1.2773978248663224e-68 0.0000000000000000e+00  -1.0280805593273097e-67 5.0694154305699888e-68 0.0000000000000000e+00  -1.0077800072787566e-67 -5.9704276213669656e-68 0.0000000000000000e+00  -3.1827043046558815e-66 1.7297325527517371e-66 0.0000000000000000e+00  -3.2047170825356752e-65 1.8124388875112019e-65 0.0000000000000000e+00  -5.3917291124524715e-65 4.9867578117065064e-66 0.0000000000000000e+00  -4.4531831870473223e-64 1.4297474858076288e-64 0.0000000000000000e+00  -7.0484752808513308e-63 4.3003890940458319e-63 0.0000000000000000e+00  -1.5115151250418259e-62 3.6931064696782186e-63 0.0000000000000000e+00  -8.4591790865713529e-62 1.9389853159562158e-62 0.0000000000000000e+00  -1.3673539746104040e-60 8.3751696370583504e-61 0.0000000000000000e+00  -2.4220873897808019e-60 3.3198596784244797e-61 0.0000000000000000e+00  -2.1282927619967102e-59 7.2627286405412466e-60 0.0000000000000000e+00  -2.4412483454259460e-58 1.4637963520884944e-58 0.0000000000000000e+00  -2.5717686738897495e-58 -9.2062152814828255e-59 0.0000000000000000e+00  -6.0251398274952402e-57 2.7181789081680542e-57 0.0000000000000000e+00  -2.5051083525614781e-56 1.2082098446849131e-56 0.0000000000000000e+00  -5.5474678979064943e-56 -8.4175837523602171e-57 0.0000000000000000e+00  -1.0228764922992136e-54 6.3006277598720196e-55 0.0000000000000000e+00  -1.1143392821034773e-54 -3.3602432451047163e-55 0.0000000000000000e+00  -2.4309758433653274e-53 1.2308240398407156e-53 0.0000000000000000e+00  -6.6472889212466150e-53 2.8911123971326395e-53 0.0000000000000000e+00  -4.3788853616119138e-52 1.1849345610674997e-52 0.0000000000000000e+00  -2.6954813108226077e-51 1.6034960511030261e-51 0.0000000000000000e+00  -7.6634164389911227e-51 -2.0102365958391582e-52 0.0000000000000000e+00  -7.2758596083559484e-50 4.4181674067450753e-50 0.0000000000000000e+00  -1.6151604696798097e-49 -1.4072828574778663e-50 0.0000000000000000e+00  -1.7459054540652576e-48 9.6776095692282354e-49 0.0000000000000000e+00  -4.3394101124101416e-48 -1.9267305491199500e-49 0.0000000000000000e+00  -2.0300727706404082e-47 1.0599494922896696e-47 0.0000000000000000e+00  -1.1057958412379235e-46 1.8133727985270836e-47 0.0000000000000000e+00  -1.0278214317196185e-46 2.3421693207118513e-47 0.0000000000000000e+00  -1.2472836327124196e-45 5.0005926232539594e-46 0.0000000000000000e+00  -8.6819884469262381e-46 -5.3922357129280662e-46 0.0000000000000000e+00  -1.3508572826634928e-44 7.6622158921935291e-45 0.0000000000000000e+00  -5.8098149121423900e-44 1.3042840728754124e-44 0.0000000000000000e+00  -3.6062409879350556e-44 -1.6587039586884552e-44 0.0000000000000000e+00  -1.1460420092192126e-43 6.1570525957169635e-44 0.0000000000000000e+00  -8.4255646791077469e-43 2.1932865927807901e-43 0.0000000000000000e+00  -1.9307124790301495e-42 1.8706618235162730e-43 0.0000000000000000e+00  -2.5133989191944978e-42 5.7764551611021493e-44 0.0000000000000000e+00  -2.0160883201677784e-42 -1.8445885118637364e-43 0.0000000000000000e+00  -8.6266103498855234e-43 -2.3727015995290424e-43 0.0000000000000000e+00  -1.1359326016704470e-43 -6.1059725797661041e-44 0.0000000000000000e+00  -3.8617577090371571e-44 1.7523603637938878e-44 0.0000000000000000e+00  -6.3283961766091152e-44 -1.0277684195433106e-44 0.0000000000000000e+00  -1.5066034777644271e-44 -7.4684495831377791e-45 0.0000000000000000e+00  -9.9324621769291243e-46 5.3852106141779829e-46 0.0000000000000000e+00  -1.4107872104584913e-45 -5.1260895204531017e-46 0.0000000000000000e+00  -1.1244937502450891e-46 -2.7180314713992172e-47 0.0000000000000000e+00  -1.0215359369816136e-46 -2.0467955601773197e-47 0.0000000000000000e+00  -1.8789575177450136e-47 -1.1428715162449456e-47 0.0000000000000000e+00  -4.0839315169813204e-48 1.9171633644092564e-49 0.0000000000000000e+00  -1.5023765449565823e-48 -8.9600869200425213e-49 0.0000000000000000e+00  -1.6294207672510149e-49 2.3425049208986836e-50 0.0000000000000000e+00  -7.5364468031215913e-50 -4.2444325791792716e-50 0.0000000000000000e+00  -8.2359831206772975e-51 6.1076946897894373e-52 0.0000000000000000e+00  -3.1784874183198915e-51 -1.7175853057834356e-51 0.0000000000000000e+00  -5.1247276507471250e-52 -1.1085692152707820e-52 0.0000000000000000e+00  -8.2729133342626605e-53 -3.4261959574650075e-53 0.0000000000000000e+00  -2.6867892701738954e-53 -1.2739467701289166e-53 0.0000000000000000e+00  -1.1910728898888129e-54 3.1379842343664557e-55 0.0000000000000000e+00  -1.0764431862298839e-54 -6.6074598283750258e-55 0.0000000000000000e+00  -5.1363762708269014e-56 8.0815253010871661e-57 0.0000000000000000e+00  -2.3607797965931958e-56 -1.2889651058653686e-56 0.0000000000000000e+00  -4.8686889029177999e-57 -2.4602444714273800e-57 0.0000000000000000e+00  -2.4435850406750590e-58 8.3416201069998962e-59 0.0000000000000000e+00  -2.1809572414056168e-58 -1.2993149145954310e-58 0.0000000000000000e+00  -2.0009507666748535e-59 -6.0265989098060032e-60 0.0000000000000000e+00  -2.3804022547464341e-60 -3.3290594736736002e-61 0.0000000000000000e+00  -1.3025616332495016e-60 -7.4711977232803511e-61 0.0000000000000000e+00  -7.7209479972185146e-62 -2.1104929211304561e-62 0.0000000000000000e+00  -1.3635707656766061e-62 -2.8834949207011204e-63 0.0000000000000000e+00  -6.6900905589447752e-63 -3.7332316814509164e-63 0.0000000000000000e+00  -4.8054360823041647e-64 -1.7963173769653358e-64 0.0000000000000000e+00  -4.3626900663471480e-65 9.4588989187523120e-67 0.0000000000000000e+00  -2.9668569842620485e-65 -1.6431441151932860e-65 0.0000000000000000e+00  -3.4336787528722211e-66 -1.9685210115553749e-66 0.0000000000000000e+00  -8.9394380226736249e-68 5.4255268254767080e-68 0.0000000000000000e+00  -8.6740634785414896e-68 -4.1415867241835047e-68 0.0000000000000000e+00  -2.0785244150072325e-68 -1.2752445331755898e-68 0.0000000000000000e+00  -1.1361531339260544e-69 -5.1012196941870802e-70 0.0000000000000000e+00  -8.7851372203174744e-71 1.3703846974908429e-71 0.0000000000000000e+00  -6.9289827749899299e-71 -3.6382999863357305e-71 0.0000000000000000e+00  -1.2515484663521963e-71 -7.6295738078701275e-72 0.0000000000000000e+00  -5.9918314199265315e-73 -2.7423096549061683e-73 0.0000000000000000e+00  -3.9211903424178325e-74 7.4007900083944098e-75 0.0000000000000000e+00  -3.1600872524320148e-74 -1.4758988850064262e-74 0.0000000000000000e+00  -6.5954842580906898e-75 -3.3528311961982485e-75 0.0000000000000000e+00  -7.1812538700375894e-76 -3.1059711519838811e-76 0.0000000000000000e+00  -8.5465889955565676e-76 -1.6233129867537147e-75 0.0000000000000000e+00  -4.7700724538802064e-75 -1.3948973583374639e-74 0.0000000000000000e+00  4.3547588600109264e-75 -8.2981729848738148e-75 0.0000000000000000e+00  -1.6246643052496789e-73 -3.4313413353208858e-73 0.0000000000000000e+00  -9.2479850953397642e-71 -1.0101787382484539e-70 0.0000000000000000e+00  -7.4692980219451403e-70 -1.3208911488773355e-69 0.0000000000000000e+00  -1.0920796477863186e-69 -3.6566229164683999e-69 0.0000000000000000e+00  -7.7106533614875928e-68 -1.7156373894683507e-67 0.0000000000000000e+00  -6.4816401920570719e-68 -3.2640288926022923e-67 0.0000000000000000e+00  -6.7357620585443912e-66 -1.3545050081317785e-65 0.0000000000000000e+00  -4.4770247246419720e-66 -2.1350576089604344e-65 0.0000000000000000e+00  -8.9770002734283867e-65 -1.5648682578442867e-64 0.0000000000000000e+00  1.7022638210740321e-65 -2.1020450127355599e-64 0.0000000000000000e+00  -4.2249574070132044e-62 -6.4412479068963801e-62 0.0000000000000000e+00  -6.9055939448497532e-62 -1.7275998108769436e-61 0.0000000000000000e+00  -2.2925286834735818e-62 -2.7310538126400806e-61 0.0000000000000000e+00  -5.6557218713180883e-60 -1.1423249434904468e-59 0.0000000000000000e+00  4.6830144493442249e-60 -1.4963850845735370e-59 0.0000000000000000e+00  -2.8511921621286903e-59 -4.7825132634914318e-59 0.0000000000000000e+00  8.6566832445049662e-60 -6.0754436087215589e-59 0.0000000000000000e+00  2.2783578061827611e-59 -3.9427005019395246e-59 0.0000000000000000e+00  -5.5237498271238155e-58 -9.0183376537498408e-58 0.0000000000000000e+00  -1.3500638740571374e-59 -1.2604168298682592e-57 0.0000000000000000e+00  -4.5325973800818967e-57 -1.1697628423097981e-56 0.0000000000000000e+00  5.6078735542152159e-57 -8.5978146228333794e-57 0.0000000000000000e+00  -5.2013638908027649e-57 -7.4091005515364765e-57 0.0000000000000000e+00  -1.7208393300750712e-56 -3.7970207757698314e-56 0.0000000000000000e+00  2.1014139291796743e-56 -4.0423889539380609e-56 0.0000000000000000e+00  -4.8616970607264422e-57 -9.2672425057655413e-57 0.0000000000000000e+00  -7.8845032023061694e-56 -2.0417844201921676e-55 0.0000000000000000e+00  6.1472719613694967e-56 -5.0693214630764225e-55 0.0000000000000000e+00  -4.1542354638322544e-55 -7.3126473344598929e-55 0.0000000000000000e+00  -4.7965899464328038e-56 -1.8365985531165850e-54 0.0000000000000000e+00  1.6039125969278881e-55 -5.7198427055467571e-55 0.0000000000000000e+00  -5.0102803085682546e-55 -1.6823753830263482e-54 0.0000000000000000e+00  -2.1759006862980298e-54 -7.0984160293357894e-54 0.0000000000000000e+00  2.4853646231268825e-54 -6.0506594557463709e-54 0.0000000000000000e+00  -6.4766766522583100e-55 -2.3970837865880353e-54 0.0000000000000000e+00  5.1107713690294283e-55 -2.8149327679218045e-54 0.0000000000000000e+00  1.2273647126716072e-55 -1.4241422329966383e-54 0.0000000000000000e+00  -2.0938353066853940e-54 -3.4844304611950303e-54 0.0000000000000000e+00  5.4563690933777215e-55 -8.2262099341651871e-54 0.0000000000000000e+00  -3.7725523109565477e-54 -1.3587702045039730e-53 0.0000000000000000e+00  4.4970219795116396e-54 -7.6899070473196075e-54 0.0000000000000000e+00  1.9455396168897935e-55 -6.4988820924217140e-55 0.0000000000000000e+00  -4.5990715187181857e-54 -8.0287202801616274e-54 0.0000000000000000e+00  4.6213260645095680e-54 -7.8580543586167226e-54 0.0000000000000000e+00  -1.5909758638497394e-56 -1.3353006836200581e-55 0.0000000000000000e+00  1.0667661053157454e-56 -2.7690142576965752e-55 0.0000000000000000e+00  2.1124004630017303e-56 -9.8799531767949270e-56 0.0000000000000000e+00  -4.9817929153224680e-54 -9.3504678013114849e-54 0.0000000000000000e+00  5.3148517617352700e-54 -9.4212077712078279e-54 0.0000000000000000e+00  5.4349588702683177e-56 -1.0536878968590883e-55 0.0000000000000000e+00  -1.3719107696661701e-56 -6.2013451944202467e-56 0.0000000000000000e+00  -4.7902015047632113e-55 -9.0241522827817573e-55 0.0000000000000000e+00  -5.5743058586980629e-54 -1.0014155033975645e-53 0.0000000000000000e+00  4.3207103892924173e-54 -1.0521639916774560e-53 0.0000000000000000e+00  -2.9299308557083061e-54 -7.9631272833216754e-54 0.0000000000000000e+00  2.3426498144254164e-54 -8.5696338126544493e-54 0.0000000000000000e+00  2.1596191512895843e-54 -3.3263124223833754e-54 0.0000000000000000e+00  -5.2294733491886733e-55 -1.4747567891142847e-54 0.0000000000000000e+00  8.0511923602336847e-55 -1.5826849089039011e-54 0.0000000000000000e+00  -4.7417909064254984e-55 -9.7814232763681172e-55 0.0000000000000000e+00  4.9466412439070417e-55 -8.9143788432873240e-55 0.0000000000000000e+00  -1.5123816646695471e-56 -2.6737776994973617e-56 0.0000000000000000e+00  -4.3196956717708284e-56 -1.7166583379135920e-55 0.0000000000000000e+00  4.0452972791488008e-56 -1.7522709536236730e-55 0.0000000000000000e+00  4.6833933633980988e-57 -6.9099929975268362e-56 0.0000000000000000e+00  -2.6649173094558589e-56 -6.5068499799850034e-56 0.0000000000000000e+00  3.1926849495422497e-56 -6.4573868071540477e-56 0.0000000000000000e+00  -2.7781382507563115e-57 -2.8695279518877328e-56 0.0000000000000000e+00  1.2623281125762939e-56 -3.0194955923598562e-56 0.0000000000000000e+00  9.7741599246898327e-58 -2.4125241862003400e-57 0.0000000000000000e+00  -4.2720322239142799e-57 -7.5803185235232283e-57 0.0000000000000000e+00  4.1540172781842051e-57 -1.1062835765902683e-56 0.0000000000000000e+00  3.0543994905560228e-58 -1.0253951828420739e-57 0.0000000000000000e+00  1.4073150173277688e-58 -5.044696