<?xml version="1.0"?>
<VTKFile type="UnstructuredGrid"  version="0.1"  >
<UnstructuredGrid>
<Piece  NumberOfPoints="11902" NumberOfCells="23402">
<Points>
<DataArray  type="Float64"  NumberOfComponents="3"  format="ascii">-5 -5 0  5 -5 0  5 5 0  -5 5 0  1.239801104054961 0.001381117188121178 0  -4.9 -5 0  -4.8 -5 0  -4.7 -5 0  -4.6 -5 0  -4.5 -5 0  -4.4 -5 0  -4.3 -5 0  -4.2 -5 0  -4.1 -5 0  -4 -5 0  -3.9 -5 0  -3.8 -5 0  -3.7 -5 0  -3.6 -5 0  -3.5 -5 0  -3.4 -5 0  -3.3 -5 0  -3.2 -5 0  -3.1 -5 0  -3 -5 0  -2.9 -5 0  -2.8 -5 0  -2.7 -5 0  -2.6 -5 0  -2.5 -5 0  -2.4 -5 0  -2.3 -5 0  -2.2 -5 0  -2.1 -5 0  -2 -5 0  -1.9 -5 0  -1.8 -5 0  -1.7 -5 0  -1.6 -5 0  -1.5 -5 0  -1.4 -5 0  -1.3 -5 0  -1.2 -5 0  -1.1 -5 0  -1 -5 0  -0.9000000000000004 -5 0  -0.7999999999999998 -5 0  -0.7000000000000002 -5 0  -0.5999999999999996 -5 0  -0.5 -5 0  -0.4000000000000004 -5 0  -0.2999999999999998 -5 0  -0.2000000000000002 -5 0  -0.09999999999999964 -5 0  0 -5 0  0.09999999999999964 -5 0  0.2000000000000002 -5 0  0.2999999999999998 -5 0  0.4000000000000004 -5 0  0.5 -5 0  0.5999999999999996 -5 0  0.7000000000000002 -5 0  0.7999999999999998 -5 0  0.9000000000000004 -5 0  1 -5 0  1.1 -5 0  1.2 -5 0  1.3 -5 0  1.4 -5 0  1.5 -5 0  1.6 -5 0  1.7 -5 0  1.8 -5 0  1.9 -5 0  2 -5 0  2.1 -5 0  2.2 -5 0  2.3 -5 0  2.4 -5 0  2.5 -5 0  2.6 -5 0  2.7 -5 0  2.8 -5 0  2.9 -5 0  3 -5 0  3.1 -5 0  3.199999999999999 -5 0  3.300000000000001 -5 0  3.4 -5 0  3.5 -5 0  3.6 -5 0  3.699999999999999 -5 0  3.800000000000001 -5 0  3.9 -5 0  4 -5 0  4.1 -5 0  4.199999999999999 -5 0  4.300000000000001 -5 0  4.4 -5 0  4.5 -5 0  4.6 -5 0  4.699999999999999 -5 0  4.800000000000001 -5 0  4.9 -5 0  5 -4.9 0  5 -4.8 0  5 -4.7 0  5 -4.6 0  5 -4.5 0  5 -4.4 0  5 -4.3 0  5 -4.2 0  5 -4.1 0  5 -4 0  5 -3.9 0  5 -3.8 0  5 -3.7 0  5 -3.6 0  5 -3.5 0  5 -3.4 0  5 -3.3 0  5 -3.2 0  5 -3.1 0  5 -3 0  5 -2.9 0  5 -2.8 0  5 -2.7 0  5 -2.6 0  5 -2.5 0  5 -2.4 0  5 -2.3 0  5 -2.2 0  5 -2.1 0  5 -2 0  5 -1.9 0  5 -1.8 0  5 -1.7 0  5 -1.6 0  5 -1.5 0  5 -1.4 0  5 -1.3 0  5 -1.2 0  5 -1.1 0  5 -1 0  5 -0.9000000000000004 0  5 -0.7999999999999998 0  5 -0.7000000000000002 0  5 -0.5999999999999996 0  5 -0.5 0  5 -0.4000000000000004 0  5 -0.2999999999999998 0  5 -0.2000000000000002 0  5 -0.09999999999999964 0  5 0 0  5 0.09999999999999964 0  5 0.2000000000000002 0  5 0.2999999999999998 0  5 0.4000000000000004 0  5 0.5 0  5 0.5999999999999996 0  5 0.7000000000000002 0  5 0.7999999999999998 0  5 0.9000000000000004 0  5 1 0  5 1.1 0  5 1.2 0  5 1.3 0  5 1.4 0  5 1.5 0  5 1.6 0  5 1.7 0  5 1.8 0  5 1.9 0  5 2 0  5 2.1 0  5 2.2 0  5 2.3 0  5 2.4 0  5 2.5 0  5 2.6 0  5 2.7 0  5 2.8 0  5 2.9 0  5 3 0  5 3.1 0  5 3.199999999999999 0  5 3.300000000000001 0  5 3.4 0  5 3.5 0  5 3.6 0  5 3.699999999999999 0  5 3.800000000000001 0  5 3.9 0  5 4 0  5 4.1 0  5 4.199999999999999 0  5 4.300000000000001 0  5 4.4 0  5 4.5 0  5 4.6 0  5 4.699999999999999 0  5 4.800000000000001 0  5 4.9 0  4.9 5 0  4.8 5 0  4.7 5 0  4.6 5 0  4.5 5 0  4.4 5 0  4.3 5 0  4.2 5 0  4.1 5 0  4 5 0  3.9 5 0  3.8 5 0  3.7 5 0  3.6 5 0  3.5 5 0  3.4 5 0  3.3 5 0  3.2 5 0  3.1 5 0  3 5 0  2.9 5 0  2.8 5 0  2.7 5 0  2.6 5 0  2.5 5 0  2.4 5 0  2.3 5 0  2.2 5 0  2.1 5 0  2 5 0  1.9 5 0  1.8 5 0  1.7 5 0  1.6 5 0  1.5 5 0  1.4 5 0  1.3 5 0  1.2 5 0  1.1 5 0  1 5 0  0.9000000000000004 5 0  0.7999999999999998 5 0  0.7000000000000002 5 0  0.5999999999999996 5 0  0.5 5 0  0.4000000000000004 5 0  0.2999999999999998 5 0  0.2000000000000002 5 0  0.09999999999999964 5 0  0 5 0  -0.09999999999999964 5 0  -0.2000000000000002 5 0  -0.2999999999999998 5 0  -0.4000000000000004 5 0  -0.5 5 0  -0.5999999999999996 5 0  -0.7000000000000002 5 0  -0.7999999999999998 5 0  -0.9000000000000004 5 0  -1 5 0  -1.1 5 0  -1.2 5 0  -1.3 5 0  -1.4 5 0  -1.5 5 0  -1.6 5 0  -1.7 5 0  -1.8 5 0  -1.9 5 0  -2 5 0  -2.1 5 0  -2.2 5 0  -2.3 5 0  -2.4 5 0  -2.5 5 0  -2.6 5 0  -2.7 5 0  -2.8 5 0  -2.9 5 0  -3 5 0  -3.1 5 0  -3.199999999999999 5 0  -3.300000000000001 5 0  -3.4 5 0  -3.5 5 0  -3.6 5 0  -3.699999999999999 5 0  -3.800000000000001 5 0  -3.9 5 0  -4 5 0  -4.1 5 0  -4.199999999999999 5 0  -4.300000000000001 5 0  -4.4 5 0  -4.5 5 0  -4.6 5 0  -4.699999999999999 5 0  -4.800000000000001 5 0  -4.9 5 0  -5 4.9 0  -5 4.8 0  -5 4.7 0  -5 4.6 0  -5 4.5 0  -5 4.4 0  -5 4.3 0  -5 4.2 0  -5 4.1 0  -5 4 0  -5 3.9 0  -5 3.8 0  -5 3.7 0  -5 3.6 0  -5 3.5 0  -5 3.4 0  -5 3.3 0  -5 3.2 0  -5 3.1 0  -5 3 0  -5 2.9 0  -5 2.8 0  -5 2.7 0  -5 2.6 0  -5 2.5 0  -5 2.4 0  -5 2.3 0  -5 2.2 0  -5 2.1 0  -5 2 0  -5 1.9 0  -5 1.8 0  -5 1.7 0  -5 1.6 0  -5 1.5 0  -5 1.4 0  -5 1.3 0  -5 1.2 0  -5 1.1 0  -5 1 0  -5 0.9000000000000004 0  -5 0.7999999999999998 0  -5 0.7000000000000002 0  -5 0.5999999999999996 0  -5 0.5 0  -5 0.4000000000000004 0  -5 0.2999999999999998 0  -5 0.2000000000000002 0  -5 0.09999999999999964 0  -5 0 0  -5 -0.09999999999999964 0  -5 -0.2000000000000002 0  -5 -0.2999999999999998 0  -5 -0.4000000000000004 0  -5 -0.5 0  -5 -0.5999999999999996 0  -5 -0.7000000000000002 0  -5 -0.7999999999999998 0  -5 -0.9000000000000004 0  -5 -1 0  -5 -1.1 0  -5 -1.2 0  -5 -1.3 0  -5 -1.4 0  -5 -1.5 0  -5 -1.6 0  -5 -1.7 0  -5 -1.8 0  -5 -1.9 0  -5 -2 0  -5 -2.1 0  -5 -2.2 0  -5 -2.3 0  -5 -2.4 0  -5 -2.5 0  -5 -2.6 0  -5 -2.7 0  -5 -2.8 0  -5 -2.9 0  -5 -3 0  -5 -3.1 0  -5 -3.199999999999999 0  -5 -3.300000000000001 0  -5 -3.4 0  -5 -3.5 0  -5 -3.6 0  -5 -3.699999999999999 0  -5 -3.800000000000001 0  -5 -3.9 0  -5 -4 0  -5 -4.1 0  -5 -4.199999999999999 0  -5 -4.300000000000001 0  -5 -4.4 0  -5 -4.5 0  -5 -4.6 0  -5 -4.699999999999999 0  -5 -4.800000000000001 0  -5 -4.9 0  1.232795253020232 0.0969400045319279 0  1.212437928065716 0.1942216873212257 0  1.17951512948413 0.2908923964179106 0  1.137194486293672 0.3807898328631193 0  1.081272113652109 0.4712997574964168 0  1.016706652501567 0.5560900630140014 0  0.9402679289851126 0.6358408799762035 0  0.8550425954606532 0.7094701577970545 0  0.7636705755712696 0.7748295049045056 0  0.6624003529542736 0.8326079558993298 0  0.553379352553707 0.8846586292581801 0  0.4420316560183987 0.9276686924930513 0  0.3291832828451564 0.9604840375251106 0  0.2075993619035347 0.9822729211442979 0  0.08942424103218581 0.9997333184638577 0  -0.02760221531059486 1.002742936078409 0  -0.1452652447548665 0.9904279743720132 0  -0.2688116062307704 0.9721536215512092 0  -0.3865777444445123 0.9471001626117614 0  -0.4973811354226485 0.9107534071352752 0  -0.6051387821213874 0.8645275123454556 0  -0.7069623187324987 0.8100622506572911 0  -0.8011089049985153 0.7459138918038006 0  -0.8904024296671064 0.6737611984549919 0  -0.9734560713515318 0.5948713225962239 0  -1.045414911697917 0.51342166162166 0  -1.106509773326752 0.4272385897224256 0  -1.157052858638853 0.3356637520341643 0  -1.194459540918086 0.2437480690137329 0  -1.218936912326197 0.1488267022225349 0  -1.230983157720385 0.05079141997995486 0  -1.230940433284226 -0.04870057987146666 0  -1.218815462701286 -0.146167917382676 0  -1.194418392551712 -0.2406358950170477 0  -1.155311111833386 -0.3357148854268558 0  -1.106734478532142 -0.4267308230050647 0  -1.04672918109364 -0.5129538842064926 0  -0.9755580920987617 -0.5937579533120146 0  -0.8930990795049303 -0.6713742473101911 0  -0.8039632988560836 -0.7420746646283687 0  -0.7082037986053972 -0.8030501906111264 0  -0.6048434358541508 -0.8566337622089357 0  -0.4936061257829865 -0.9052693860316433 0  -0.3812925276746458 -0.9441569693869817 0  -0.2655000123710722 -0.9714336371623502 0  -0.1439178463105734 -0.9898948852673347 0  -0.0279184208886858 -1.001860815989247 0  0.08966575755575959 -0.995591615763004 0  0.2119145683242446 -0.979425875219014 0  0.3314285702918387 -0.958879225934662 0  0.4460380089902387 -0.9263096331604795 0  0.5555418688346931 -0.8837537138207529 0  0.66325776467521 -0.8325577736523004 0  0.7637259526513051 -0.7759965014647189 0  0.8551132961291317 -0.7103932271862938 0  0.9396688812595203 -0.6356234350928177 0  1.014493252714961 -0.555399323476529 0  1.081299347612068 -0.4704325961482669 0  1.138136087060739 -0.3808798743568296 0  1.181173017702398 -0.288979829462731 0  1.212941001393079 -0.1933294269740741 0  1.23295612455657 -0.09654224621773867 0  -2.448624852797319 4.918229896589978 0  -2.448504753065141 -4.910618804240131 0  4.910545905576148 2.44798224008104 0  4.918660740341013 -2.449435814544878 0  2.446245742853145 -4.89587197812769 0  2.440676639427009 4.899629904208831 0  -4.910572032434129 -2.448007733364827 0  -4.910569525257293 2.448011607966659 0  -1.74858141072915 4.911169734024691 0  -1.744365291342849 -4.914604715758054 0  4.920755400074422 1.744148802834528 0  4.909306464699119 -1.74792138547606 0  -4.909598870579911 -1.74765441014219 0  -4.910420063594723 1.747398340944821 0  1.74585840029896 4.905037679550175 0  1.747279819682106 -4.893202528282216 0  -1.148879122795292 4.908986754145432 0  -1.129731821006407 -4.916887978891211 0  -4.909353922631762 -1.147967258053628 0  -4.909172763652427 1.147767599603211 0  1.143871420870539 -4.913079161402122 0  1.148888575198771 4.908973938279508 0  4.909495230936694 1.146243034438764 0  4.920306871057838 -1.152020351917339 0  -0.5466885779540286 -4.910192193704431 0  -0.5464692780860771 4.918861201561318 0  -4.90811660259076 -0.5487304310395144 0  -4.908140649116465 0.5472878356601873 0  4.907439028999629 -0.5490492559145842 0  4.919072911212032 0.5458035857439653 0  0.5424729102375588 -4.897094116584122 0  0.5511983421449287 4.915689806366442 0  -4.911960562657804 -3.048350970471714 0  4.918527001108166 3.046363397756944 0  4.911469068932098 -3.048327562314117 0  -4.912807990692746 3.045442064766542 0  3.055343996846164 -4.917453715610181 0  -3.048678114725674 -4.911394230422462 0  3.052244350714753 4.913470785809203 0  -3.048123405578186 4.912283445943319 0  -4.907235964297975 -0.04990991978426932 0  0.04512107926438375 -4.912143743150751 0  0.04956886240883177 4.919158458653314 0  4.914278433756346 -0.05129186024754031 0  3.545653448267764 -4.919076348584611 0  -3.548936904206037 4.9
[...]
<PointData  Vectors="f_3530"> 
<DataArray  type="Float64"  Name="f_3530"  NumberOfComponents="3" format="ascii">-9.4597822760634624e-41 -1.2417857157178285e-40 0.0000000000000000e+00  1.0573248978088181e-40 -1.3113105877026350e-40 0.0000000000000000e+00  -1.8611756288963543e-40 -1.7839312791371142e-40 0.0000000000000000e+00  -2.0175421890600348e-40 2.0344488827420590e-40 0.0000000000000000e+00  1.6266618317925161e+01 5.4560951432072652e-02 0.0000000000000000e+00  2.3521087853650615e-40 2.7542133102415598e-40 0.0000000000000000e+00  7.2672628205503958e-40 7.0125770503497771e-40 0.0000000000000000e+00  -1.7690316140574812e-39 -1.8698091865903333e-39 0.0000000000000000e+00  1.4616033909396207e-38 1.7086461854576855e-38 0.0000000000000000e+00  -4.9743836870879625e-38 -5.7853061389235014e-38 0.0000000000000000e+00  1.8098131816066135e-37 2.3859121717463352e-37 0.0000000000000000e+00  -6.6668990881573321e-37 -9.2578523172975690e-37 0.0000000000000000e+00  3.7140114187857684e-36 5.0083311320650454e-36 0.0000000000000000e+00  -2.2330669547019864e-35 -2.8214160137137966e-35 0.0000000000000000e+00  9.4199126000607137e-35 1.2021380073498166e-34 0.0000000000000000e+00  -2.1004694513505956e-34 -2.5512015841878830e-34 0.0000000000000000e+00  4.1684613478395177e-34 4.7014496007200463e-34 0.0000000000000000e+00  1.6454339855075425e-33 1.9160146572912824e-33 0.0000000000000000e+00  -6.8403844318264262e-33 -8.8686777009875581e-33 0.0000000000000000e+00  1.7572804767612187e-32 2.5715012357484233e-32 0.0000000000000000e+00  -1.0633402092737044e-31 -1.5035519971368901e-31 0.0000000000000000e+00  2.8527538318459273e-31 4.0510507721318289e-31 0.0000000000000000e+00  2.0717048497167430e-31 2.4589348500407927e-31 0.0000000000000000e+00  -1.6373305158884884e-30 -2.0757947959237706e-30 0.0000000000000000e+00  -5.0049239001899386e-31 -1.0926133607604706e-30 0.0000000000000000e+00  -7.8104635372500867e-31 -2.0863759963882410e-30 0.0000000000000000e+00  3.6222140579546519e-30 7.2591004189487485e-30 0.0000000000000000e+00  -8.1680459426779828e-30 -2.7389199864824744e-29 0.0000000000000000e+00  2.9948529676327517e-29 7.7930160761757998e-29 0.0000000000000000e+00  1.6812791055326088e-29 4.6948383394737107e-29 0.0000000000000000e+00  -1.5099327915141491e-28 -3.7632457131315126e-28 0.0000000000000000e+00  -5.9225680898716721e-29 -1.6466719633954897e-28 0.0000000000000000e+00  -9.1987023472376255e-29 -3.5518943488320458e-28 0.0000000000000000e+00  1.4849251124748919e-28 4.8255659640744828e-28 0.0000000000000000e+00  4.0205754698004146e-28 1.4905123443823791e-27 0.0000000000000000e+00  3.7467525722960843e-29 -8.7838345055683268e-29 0.0000000000000000e+00  1.6563115122848296e-28 4.3974691911878218e-28 0.0000000000000000e+00  -5.6456520992680456e-29 -2.7333533089350501e-28 0.0000000000000000e+00  -4.5755789962642338e-28 -1.5205395651725103e-27 0.0000000000000000e+00  -4.4251781241421912e-28 -1.4461153161575998e-27 0.0000000000000000e+00  -2.3350932979644409e-29 -5.1542025582108268e-29 0.0000000000000000e+00  4.2445686573838569e-28 1.6677179411462136e-27 0.0000000000000000e+00  2.7725455069966561e-28 9.7944948603499906e-28 0.0000000000000000e+00  1.3182620957062078e-29 -1.2820572969535576e-28 0.0000000000000000e+00  1.3597436072245348e-28 3.8837205159838564e-28 0.0000000000000000e+00  -2.2938956274535376e-28 8.7267708220066599e-28 0.0000000000000000e+00  -9.4533880280642512e-29 1.5367013318777031e-27 0.0000000000000000e+00  1.2717895176665046e-28 -9.0922563961574069e-28 0.0000000000000000e+00  8.7079439807670430e-29 4.9999489290359862e-27 0.0000000000000000e+00  -2.4360331098735504e-28 -3.2561501296946161e-29 0.0000000000000000e+00  -5.5715040428325265e-28 -4.3328548875592224e-27 0.0000000000000000e+00  -5.7786209745883896e-28 -2.4644657468607180e-27 0.0000000000000000e+00  -3.7271296931307765e-28 -3.6196117890905270e-27 0.0000000000000000e+00  3.3360694907516871e-29 -9.2666646155275406e-27 0.0000000000000000e+00  1.7985338303368739e-28 -1.0614803390641398e-26 0.0000000000000000e+00  -3.8927171398144733e-29 -1.8155743215701790e-27 0.0000000000000000e+00  -2.1187159042522889e-29 -5.7255863671260745e-27 0.0000000000000000e+00  -4.2566205433896321e-29 -2.0550904124606677e-27 0.0000000000000000e+00  8.8464674545706591e-29 -3.6898355330827075e-27 0.0000000000000000e+00  -1.1148223312911417e-28 1.7797277262885774e-27 0.0000000000000000e+00  3.5855675109300926e-28 -4.9293490531825155e-27 0.0000000000000000e+00  5.0891435934857778e-28 -4.5090915830543336e-27 0.0000000000000000e+00  -3.5119750161763536e-29 1.0127699715302549e-27 0.0000000000000000e+00  -6.5350017817899207e-28 6.8966130836632180e-27 0.0000000000000000e+00  -3.4197071150515234e-28 2.7579924420807259e-27 0.0000000000000000e+00  -3.1635900846614380e-28 1.5042449512519292e-27 0.0000000000000000e+00  -6.3682586985314855e-28 3.9898104037018741e-27 0.0000000000000000e+00  -3.7086312440264071e-28 2.1095803621227635e-27 0.0000000000000000e+00  3.7609656771087648e-28 -2.4726083414212871e-27 0.0000000000000000e+00  2.6230257793514086e-28 -1.1695239309894243e-27 0.0000000000000000e+00  5.7525354272751777e-29 -1.5741000188566787e-28 0.0000000000000000e+00  2.7493972064567452e-28 -8.3774771196360053e-28 0.0000000000000000e+00  1.7839597895971119e-28 -6.5506970474427636e-28 0.0000000000000000e+00  -1.5581804008261885e-28 5.7648549097824302e-28 0.0000000000000000e+00  -9.0098097247167913e-29 2.8955877437067175e-28 0.0000000000000000e+00  -7.0542400616798340e-29 2.4419042188745194e-28 0.0000000000000000e+00  1.8631021887836398e-29 -6.0637002433194345e-29 0.0000000000000000e+00  4.7990774237637888e-29 -1.5255658405363910e-28 0.0000000000000000e+00  7.2807881418258412e-29 -2.1280494412785868e-28 0.0000000000000000e+00  -8.5185779327012986e-30 1.4189395542299891e-29 0.0000000000000000e+00  -6.0856775605667856e-29 1.5266036078144028e-28 0.0000000000000000e+00  9.8842430899038181e-30 -2.4346184275476567e-29 0.0000000000000000e+00  3.5297384033045144e-30 -8.3235559161984978e-30 0.0000000000000000e+00  -1.1517606859984314e-29 2.1675104341959639e-29 0.0000000000000000e+00  -1.1857157238094513e-30 1.5419561401818417e-30 0.0000000000000000e+00  1.4333028840035214e-30 -2.2883989439361088e-30 0.0000000000000000e+00  -6.9234456175584318e-31 1.0751959278443677e-30 0.0000000000000000e+00  1.0209341657057335e-31 -1.6126728583390579e-31 0.0000000000000000e+00  -1.0821237597124144e-32 1.7162532491641759e-32 0.0000000000000000e+00  -2.5237432672622217e-33 3.2446489301087503e-33 0.0000000000000000e+00  6.3694133910563430e-33 -7.9614566741838133e-33 0.0000000000000000e+00  -2.1716932754980703e-35 1.0223951862140896e-34 0.0000000000000000e+00  -2.5688533328146284e-34 2.8732184364100813e-34 0.0000000000000000e+00  1.9517466577858550e-35 -1.3921442953801790e-35 0.0000000000000000e+00  -7.0573104191219535e-36 8.7495168150580610e-36 0.0000000000000000e+00  2.9089738484066820e-36 -3.3746405778140892e-36 0.0000000000000000e+00  -1.6655719442324434e-36 1.7603453564312582e-36 0.0000000000000000e+00  5.0067169249957923e-37 -5.6523592484840178e-37 0.0000000000000000e+00  -2.4441994584356316e-37 2.5908122757313978e-37 0.0000000000000000e+00  8.0109994197183901e-38 -8.1988932513777767e-38 0.0000000000000000e+00  -1.4736250371201775e-38 1.5470692684225224e-38 0.0000000000000000e+00  5.7267437233142038e-39 -5.7796640321331821e-39 0.0000000000000000e+00  -4.4796747340885195e-40 3.8965166008743015e-40 0.0000000000000000e+00  -1.8814214652159669e-40 2.2921313211612689e-40 0.0000000000000000e+00  5.9371402374394122e-42 -6.7708904727646065e-43 0.0000000000000000e+00  3.7596240139846767e-40 -3.1006216071514338e-40 0.0000000000000000e+00  -8.3618220458195666e-40 6.8553319542795322e-40 0.0000000000000000e+00  2.5623232545265834e-39 -2.3757627262294855e-39 0.0000000000000000e+00  -5.7316101514277214e-40 1.1295325987662519e-39 0.0000000000000000e+00  -1.4953472823349929e-38 1.1557817377342812e-38 0.0000000000000000e+00  4.9852002818462479e-38 -4.1911315970292728e-38 0.0000000000000000e+00  -5.4467460869663232e-38 5.1962321192302707e-38 0.0000000000000000e+00  -1.5974078782713448e-37 1.1044613650318028e-37 0.0000000000000000e+00  8.1571893148604520e-37 -6.3517449350315675e-37 0.0000000000000000e+00  -1.2388649653903747e-36 1.0344176449454287e-36 0.0000000000000000e+00  -1.6855387857589198e-36 1.0711274396711837e-36 0.0000000000000000e+00  1.1543009798353471e-35 -8.5223351614692496e-36 0.0000000000000000e+00  -2.0066410915916414e-35 1.5421104448660206e-35 0.0000000000000000e+00  -2.1312737194386394e-35 1.3541422888395780e-35 0.0000000000000000e+00  1.6772985034457783e-34 -1.1838017664008963e-34 0.0000000000000000e+00  -2.4466962600161005e-34 1.7672585191980929e-34 0.0000000000000000e+00  -4.1278437624306947e-34 2.7197017707659910e-34 0.0000000000000000e+00  2.2507323083823232e-33 -1.5150601723232332e-33 0.0000000000000000e+00  -1.9806188075011167e-33 1.3361139800550839e-33 0.0000000000000000e+00  -8.6295850398566493e-33 5.5673455940598013e-33 0.0000000000000000e+00  2.5431077865063191e-32 -1.6140129287955402e-32 0.0000000000000000e+00  5.1740933602642652e-33 -3.4474960284335634e-33 0.0000000000000000e+00  -1.4366855644618594e-31 8.7305354007613409e-32 0.0000000000000000e+00  1.7703544291860408e-31 -1.0142939021174763e-31 0.0000000000000000e+00  5.0044910694193306e-31 -2.9554118689841760e-31 0.0000000000000000e+00  -1.4032569724184724e-30 7.7195401596676093e-31 0.0000000000000000e+00  -9.5063224090012158e-31 5.9142913976524371e-31 0.0000000000000000e+00  7.7326276582947574e-30 -4.0644221503813096e-30 0.0000000000000000e+00  -1.8453317157904091e-30 4.0676409991264186e-31 0.0000000000000000e+00  -3.4952645974472402e-29 1.7609819811715405e-29 0.0000000000000000e+00  2.7498841456056827e-29 -9.8244579904324041e-30 0.0000000000000000e+00  1.4522385997061715e-28 -7.0518966227977314e-29 0.0000000000000000e+00  -1.6072189774003093e-28 5.2482744373749523e-29 0.0000000000000000e+00  -6.1477899166709739e-28 2.8238189136971976e-28 0.0000000000000000e+00  6.4631660321960867e-28 -1.5836001286358164e-28 0.0000000000000000e+00  2.5871280961052463e-27 -1.0821041893062859e-27 0.0000000000000000e+00  -1.9733943279280893e-27 1.9323602670746463e-28 0.0000000000000000e+00  -1.0045513520370026e-26 3.3219341467442990e-27 0.0000000000000000e+00  2.7838683498800282e-27 1.1405324245049786e-27 0.0000000000000000e+00  3.1910007493913327e-26 -7.5077708865446739e-27 0.0000000000000000e+00  1.5930109708912822e-26 -7.8984105662778737e-27 0.0000000000000000e+00  -8.7712399760868215e-26 1.1915721574511095e-26 0.0000000000000000e+00  -1.3033091962271363e-25 2.0823094736636370e-26 0.0000000000000000e+00  1.5743629631507074e-25 -3.7055852449389633e-26 0.0000000000000000e+00  8.7164006696531737e-25 -1.7396447758618874e-25 0.0000000000000000e+00  1.5555174224859724e-24 -2.8795445123708425e-25 0.0000000000000000e+00  1.8516679926630818e-24 -2.9180602839607427e-25 0.0000000000000000e+00  1.7640094547216832e-24 -1.6386757453576898e-25 0.0000000000000000e+00  1.7544493881354072e-24 2.0002945163444001e-26 0.0000000000000000e+00  1.8808252191383379e-24 1.8299542249751910e-25 0.0000000000000000e+00  1.7630224645188756e-24 2.4588224543196072e-25 0.0000000000000000e+00  1.1778324075154589e-24 1.8592087229653841e-25 0.0000000000000000e+00  3.7498402150899896e-25 5.8949913138749551e-26 0.0000000000000000e+00  -1.2840636397807040e-25 -2.9515737297457768e-26 0.0000000000000000e+00  -1.9107492657404612e-25 -3.6919608056770562e-26 0.0000000000000000e+00  -3.3501811358508493e-26 1.4487374491640728e-29 0.0000000000000000e+00  5.6679466254235675e-26 1.9363440577291459e-26 0.0000000000000000e+00  3.4774877633716937e-26 1.0284459020828664e-26 0.0000000000000000e+00  -4.3306728022227927e-27 -1.8458550907683444e-27 0.0000000000000000e+00  -9.6016921296575976e-27 -3.1196550301355543e-27 0.0000000000000000e+00  -4.5804763682540046e-28 2.1974078092650143e-29 0.0000000000000000e+00  2.4550662819236771e-27 9.1395222695325052e-28 0.0000000000000000e+00  2.6602780398641881e-28 6.3547950956764828e-29 0.0000000000000000e+00  -5.9760233924560920e-28 -2.4106100201001590e-28 0.0000000000000000e+00  -5.6250919329457970e-29 -1.4413744657437040e-29 0.0000000000000000e+00  1.3966902765458400e-28 5.9898227027123429e-29 0.0000000000000000e+00  1.7483546592393092e-31 -2.2671413834308727e-30 0.0000000000000000e+00  -3.0747770225914897e-29 -1.3887256901222458e-29 0.0000000000000000e+00  3.7419707985819309e-30 2.3502454417728738e-30 0.0000000000000000e+00  5.6790028887284218e-30 2.6703830422411877e-30 0.0000000000000000e+00  -1.8672795727983381e-30 -1.0651575960821033e-30 0.0000000000000000e+00  -7.9999824423700633e-31 -3.7524208526734927e-31 0.0000000000000000e+00  5.6109876705472746e-31 3.2210522889111695e-31 0.0000000000000000e+00  1.8444130149771791e-32 -2.2974710396952290e-33 0.0000000000000000e+00  -1.1788262366997622e-31 -6.9147142595252223e-32 0.0000000000000000e+00  2.7983408404405049e-32 1.9443826320809608e-32 0.0000000000000000e+00  1.6161149632629096e-32 9.3767508285655692e-33 0.0000000000000000e+00  -1.0675934841474517e-32 -7.0850900045788338e-33 0.0000000000000000e+00  2.7119898470991336e-34 3.4273221684985635e-34 0.0000000000000000e+00  1.8479846629592680e-33 1.2451421557962936e-33 0.0000000000000000e+00  -7.1755443267246749e-34 -5.1846828004010599e-34 0.0000000000000000e+00  -8.5937427197722982e-35 -5.5534682032468142e-35 0.0000000000000000e+00  1.6476706899984288e-34 1.2102730417306849e-34 0.0000000000000000e+00  -4.8493272547419545e-35 -3.6731388552238418e-35 0.0000000000000000e+00  -9.3383333254274951e-36 -7.3216373073167258e-36 0.0000000000000000e+00  1.1860710356651106e-35 9.3496479692544991e-36 0.0000000000000000e+00  -3.3226332407529660e-36 -2.5909823648500429e-36 0.0000000000000000e+00  -5.8859514317421400e-37 -5.3431324845607079e-37 0.0000000000000000e+00  7.9887821093249541e-37 6.7384711284618093e-37 0.0000000000000000e+00  -2.5280301874865409e-37 -2.0546217015303652e-37 0.0000000000000000e+00  -1.5545561147950632e-38 -2.0434987059341565e-38 0.0000000000000000e+00  4.6947407564252588e-38 4.3095140043182564e-38 0.0000000000000000e+00  -1.9743682895009183e-38 -1.7175697487068666e-38 0.0000000000000000e+00  1.7037917317434221e-39 9.0605970043319359e-40 0.0000000000000000e+00  2.2268102566426372e-39 2.3081707112817145e-39 0.0000000000000000e+00  -1.3318005883141134e-39 -1.2648114730374692e-39 0.0000000000000000e+00  3.3436814196495291e-40 2.8985903481351888e-40 0.0000000000000000e+00  9.5332247739283670e-41 1.2410037478969033e-40 0.0000000000000000e+00  3.0104001139942334e-40 2.8250631826055762e-40 0.0000000000000000e+00  -6.8096923390350272e-40 -7.8445163137514160e-40 0.0000000000000000e+00  1.4152710398368917e-39 1.6395869441980480e-39 0.0000000000000000e+00  -9.2060152255544718e-39 -1.1053237574777189e-38 0.0000000000000000e+00  7.7738394856885943e-38 8.2044693690305316e-38 0.0000000000000000e+00  -2.1231718734201801e-37 -2.0705314685332985e-37 0.0000000000000000e+00  2.7241393707997773e-37 2.8057894107094006e-37 0.0000000000000000e+00  -3.4042893926649001e-36 -3.9549949805724657e-36 0.0000000000000000e+00  9.0654504721024500e-36 1.2250397783720112e-35 0.0000000000000000e+00  -3.3984239940889774e-35 -5.1125804578203703e-35 0.0000000000000000e+00  7.4286092314310409e-35 1.0915779090402042e-34 0.0000000000000000e+00  -9.4053197449039162e-35 -1.7387313152110649e-34 0.0000000000000000e+00  6.8982115201844402e-34 1.0263351807315269e-33 0.0000000000000000e+00  8.5090861671082945e-35 5.1341803844338320e-35 0.0000000000000000e+00  1.4024459191993263e-33 2.9626544723992020e-33 0.0000000000000000e+00  3.3860651384440342e-32 4.5956544642130065e-32 0.0000000000000000e+00  -1.3512931237130087e-31 -1.9053279894655913e-31 0.0000000000000000e+00  -5.0242308303114834e-31 -7.1357005932311724e-31 0.0000000000000000e+00  1.1595753591466160e-30 1.6471500167771087e-30 0.0000000000000000e+00  -6.6918436484266614e-31 -9.5817328141419100e-31 0.0000000000000000e+00  -2.8773476771631101e-30 -5.6079657969811817e-30 0.0000000000000000e+00  9.1835993964591629e-30 2.0968826638019922e-29 0.0000000000000000e+00  1.1742475950555198e-29 2.7038074424041752e-29 0.0000000000000000e+00  -7.0330555761359999e-29 -1.7072311297286907e-28 0.0000000000000000e+00  2.1155781498639233e-29 4.7174110510583674e-29 0.0000000000000000e+00  8.7430444152531045e-29 1.7996058002033950e-28 0.0000000000000000e+00  1.7681925496728540e-29 7.5853769879759355e-29 0.0000000000000000e+00  1.6783493379942780e-28 6.0199950650542217e-28 0.0000000000000000e+00  7.8523368793721730e-29 2.6382342907637006e-28 0.0000000000000000e+00  -1.4884765295404374e-28 -5.4546413143892987e-28 0.0000000000000000e+00  -3.5856014641331667e-28 -1.2722888897427874e-27 0.0000000000000000e+00  2.3381172219984700e-28 9.6098465776119466e-28 0.0000000000000000e+00  3.6153731282726967e-28 1.6418403992123306e-27 0.0000000000000000e+00  3.0860692770808147e-28 1.3315206175143778e-27 0.0000000000000000e+00  2.5725370421950956e-28 8.5356020748542204e-28 0.0000000000000000e+00  -4.2788522731814866e-28 -2.3797268676354960e-27 0.0000000000000000e+00  -3.0435790408584582e-29 -4.9535677840585057e-28 0.0000000000000000e+00  3.3468942785797624e-29 -1.4799959056831651e-28 0.0000000000000000e+00  -2.0012153465102545e-28 -1.4856874623207489e-27 0.0000000000000000e+00  -1.6475118929490323e-28 -1.4241193223228235e-27 0.0000000000000000e+00  -3.9105933175717565e-28 -2.6015974925305563e-27 0.0000000000000000e+00  -2.7957250812460870e-28 -1.2145872892791905e-27 0.0000000000000000e+00  -3.4318511845883364e-29 1.2223206189787203e-27 0.0000000000000000e+00  -1.3188767042692763e-28 -4.6093779186545144e-28 0.0000000000000000e+00  -8.2541057467753686e-29 -2.3875867295710004e-27 0.0000000000000000e+00  -1.1136909686353038e-28 5.2348784132173991e-28 0.0000000000000000e+00  -1.1023980726378091e-28 3.8355000462814007e-28 0.0000000000000000e+00  2.4866062942897926e-29 -1.6514116572549664e-27 0.0000000000000000e+00  -6.7246606624855004e-30 -6.7666461482747318e-28 0.0000000000000000e+00  1.5061215600613497e-28 -1.7621833079962138e-27 0.0000000000000000e+00  -2.0593301124653835e-28 1.5299779075859694e-27 0.0000000000000000e+00  -2.0008897921614694e-28 1.4299038031561853e-27 0.0000000000000000e+00  3.1217059422486403e-28 -1.8292354081971864e-27 0.0000000000000000e+00  1.5289779963605191e-28 -5.3824045664912570e-28 0.0000000000000000e+00  3.3595549290977730e-28 -2.1916997617434420e-27 0.0000000000000000e+00  7.8102110040570558e-29 8.5058161148924606e-28 0.0000000000000000e+00  7.9924703836892243e-29 1.8065722428621554e-28 0.0000000000000000e+00  3.9474880703174945e-28 -1.2529660556487943e-27 0.0000000000000000e+00  2.2384642898361324e-28 -6.6308221186386613e-28 0.0000000000000000e+00  4.6372986875739524e-28 -2.6286655714757814e-27 0.0000000000000000e+00  7.2457984987163769e-28 -3.6094902700984556e-27 0.0000000000000000e+00  8.4284697215410595e-28 -4.5805746369949968e-27 0.0000000000000000e+00  2.0637825253968434e-28 -1.1368036238237449e-27 0.0000000000000000e+00  -3.7233342755792287e-28 1.5958176175984891e-27 0.0000000000000000e+00  -5.2222987317150274e-28 2.4803652051743530e-27 0.0000000000000000e+00  -5.6601806237872122e-28 2.6030198102630024e-27 0.0000000000000000e+00  -1.1265478705866624e-28 5.5029428797043561e-28 0.0000000000000000e+00  1.4578980131410475e-28 -5.7446874326067414e-28 0.0000000000000000e+00  8.6890827348526222e-29 -3.9692964601905246e-28 0.0000000000000000e+00  3.6988732269373487e-28 -1.5275340126203789e-27 0.0000000000000000e+00  1.6555594044449614e-28 -6.2101157228340208e-28 0.0000000000000000e+00  -1.4101146702372562e-28 5.2846542212248005e-28 0.0000000000000000e+00  -1.0813473570479910e-29 3.9362192107284292e-30 0.0000000000000000e+00  2.0140824770397475e-29 -5.5498838054080978e-29 0.0000000000000000e+00  4.2946830800242062e-29 -1.2003559473475191e-28 0.0000000000000000e+00  -9.9807026321391693e-30 2.5097573255823794e-29 0.0000000000000000e+00  -1.4797235158554019e-29 3.6164865159519992e-29 0.0000000000000000e+00  8.18131794