<?xml version="1.0"?>
<VTKFile type="UnstructuredGrid"  version="0.1"  >
<UnstructuredGrid>
<Piece  NumberOfPoints="11902" NumberOfCells="23402">
<Points>
<DataArray  type="Float64"  NumberOfComponents="3"  format="ascii">-5 -5 0  5 -5 0  5 5 0  -5 5 0  1.20699349132678 0.001319097839228045 0  -4.9 -5 0  -4.8 -5 0  -4.7 -5 0  -4.6 -5 0  -4.5 -5 0  -4.4 -5 0  -4.3 -5 0  -4.2 -5 0  -4.1 -5 0  -4 -5 0  -3.9 -5 0  -3.8 -5 0  -3.7 -5 0  -3.6 -5 0  -3.5 -5 0  -3.4 -5 0  -3.3 -5 0  -3.2 -5 0  -3.1 -5 0  -3 -5 0  -2.9 -5 0  -2.8 -5 0  -2.7 -5 0  -2.6 -5 0  -2.5 -5 0  -2.4 -5 0  -2.3 -5 0  -2.2 -5 0  -2.1 -5 0  -2 -5 0  -1.9 -5 0  -1.8 -5 0  -1.7 -5 0  -1.6 -5 0  -1.5 -5 0  -1.4 -5 0  -1.3 -5 0  -1.2 -5 0  -1.1 -5 0  -1 -5 0  -0.9000000000000004 -5 0  -0.7999999999999998 -5 0  -0.7000000000000002 -5 0  -0.5999999999999996 -5 0  -0.5 -5 0  -0.4000000000000004 -5 0  -0.2999999999999998 -5 0  -0.2000000000000002 -5 0  -0.09999999999999964 -5 0  0 -5 0  0.09999999999999964 -5 0  0.2000000000000002 -5 0  0.2999999999999998 -5 0  0.4000000000000004 -5 0  0.5 -5 0  0.5999999999999996 -5 0  0.7000000000000002 -5 0  0.7999999999999998 -5 0  0.9000000000000004 -5 0  1 -5 0  1.1 -5 0  1.2 -5 0  1.3 -5 0  1.4 -5 0  1.5 -5 0  1.6 -5 0  1.7 -5 0  1.8 -5 0  1.9 -5 0  2 -5 0  2.1 -5 0  2.2 -5 0  2.3 -5 0  2.4 -5 0  2.5 -5 0  2.6 -5 0  2.7 -5 0  2.8 -5 0  2.9 -5 0  3 -5 0  3.1 -5 0  3.199999999999999 -5 0  3.300000000000001 -5 0  3.4 -5 0  3.5 -5 0  3.6 -5 0  3.699999999999999 -5 0  3.800000000000001 -5 0  3.9 -5 0  4 -5 0  4.1 -5 0  4.199999999999999 -5 0  4.300000000000001 -5 0  4.4 -5 0  4.5 -5 0  4.6 -5 0  4.699999999999999 -5 0  4.800000000000001 -5 0  4.9 -5 0  5 -4.9 0  5 -4.8 0  5 -4.7 0  5 -4.6 0  5 -4.5 0  5 -4.4 0  5 -4.3 0  5 -4.2 0  5 -4.1 0  5 -4 0  5 -3.9 0  5 -3.8 0  5 -3.7 0  5 -3.6 0  5 -3.5 0  5 -3.4 0  5 -3.3 0  5 -3.2 0  5 -3.1 0  5 -3 0  5 -2.9 0  5 -2.8 0  5 -2.7 0  5 -2.6 0  5 -2.5 0  5 -2.4 0  5 -2.3 0  5 -2.2 0  5 -2.1 0  5 -2 0  5 -1.9 0  5 -1.8 0  5 -1.7 0  5 -1.6 0  5 -1.5 0  5 -1.4 0  5 -1.3 0  5 -1.2 0  5 -1.1 0  5 -1 0  5 -0.9000000000000004 0  5 -0.7999999999999998 0  5 -0.7000000000000002 0  5 -0.5999999999999996 0  5 -0.5 0  5 -0.4000000000000004 0  5 -0.2999999999999998 0  5 -0.2000000000000002 0  5 -0.09999999999999964 0  5 0 0  5 0.09999999999999964 0  5 0.2000000000000002 0  5 0.2999999999999998 0  5 0.4000000000000004 0  5 0.5 0  5 0.5999999999999996 0  5 0.7000000000000002 0  5 0.7999999999999998 0  5 0.9000000000000004 0  5 1 0  5 1.1 0  5 1.2 0  5 1.3 0  5 1.4 0  5 1.5 0  5 1.6 0  5 1.7 0  5 1.8 0  5 1.9 0  5 2 0  5 2.1 0  5 2.2 0  5 2.3 0  5 2.4 0  5 2.5 0  5 2.6 0  5 2.7 0  5 2.8 0  5 2.9 0  5 3 0  5 3.1 0  5 3.199999999999999 0  5 3.300000000000001 0  5 3.4 0  5 3.5 0  5 3.6 0  5 3.699999999999999 0  5 3.800000000000001 0  5 3.9 0  5 4 0  5 4.1 0  5 4.199999999999999 0  5 4.300000000000001 0  5 4.4 0  5 4.5 0  5 4.6 0  5 4.699999999999999 0  5 4.800000000000001 0  5 4.9 0  4.9 5 0  4.8 5 0  4.7 5 0  4.6 5 0  4.5 5 0  4.4 5 0  4.3 5 0  4.2 5 0  4.1 5 0  4 5 0  3.9 5 0  3.8 5 0  3.7 5 0  3.6 5 0  3.5 5 0  3.4 5 0  3.3 5 0  3.2 5 0  3.1 5 0  3 5 0  2.9 5 0  2.8 5 0  2.7 5 0  2.6 5 0  2.5 5 0  2.4 5 0  2.3 5 0  2.2 5 0  2.1 5 0  2 5 0  1.9 5 0  1.8 5 0  1.7 5 0  1.6 5 0  1.5 5 0  1.4 5 0  1.3 5 0  1.2 5 0  1.1 5 0  1 5 0  0.9000000000000004 5 0  0.7999999999999998 5 0  0.7000000000000002 5 0  0.5999999999999996 5 0  0.5 5 0  0.4000000000000004 5 0  0.2999999999999998 5 0  0.2000000000000002 5 0  0.09999999999999964 5 0  0 5 0  -0.09999999999999964 5 0  -0.2000000000000002 5 0  -0.2999999999999998 5 0  -0.4000000000000004 5 0  -0.5 5 0  -0.5999999999999996 5 0  -0.7000000000000002 5 0  -0.7999999999999998 5 0  -0.9000000000000004 5 0  -1 5 0  -1.1 5 0  -1.2 5 0  -1.3 5 0  -1.4 5 0  -1.5 5 0  -1.6 5 0  -1.7 5 0  -1.8 5 0  -1.9 5 0  -2 5 0  -2.1 5 0  -2.2 5 0  -2.3 5 0  -2.4 5 0  -2.5 5 0  -2.6 5 0  -2.7 5 0  -2.8 5 0  -2.9 5 0  -3 5 0  -3.1 5 0  -3.199999999999999 5 0  -3.300000000000001 5 0  -3.4 5 0  -3.5 5 0  -3.6 5 0  -3.699999999999999 5 0  -3.800000000000001 5 0  -3.9 5 0  -4 5 0  -4.1 5 0  -4.199999999999999 5 0  -4.300000000000001 5 0  -4.4 5 0  -4.5 5 0  -4.6 5 0  -4.699999999999999 5 0  -4.800000000000001 5 0  -4.9 5 0  -5 4.9 0  -5 4.8 0  -5 4.7 0  -5 4.6 0  -5 4.5 0  -5 4.4 0  -5 4.3 0  -5 4.2 0  -5 4.1 0  -5 4 0  -5 3.9 0  -5 3.8 0  -5 3.7 0  -5 3.6 0  -5 3.5 0  -5 3.4 0  -5 3.3 0  -5 3.2 0  -5 3.1 0  -5 3 0  -5 2.9 0  -5 2.8 0  -5 2.7 0  -5 2.6 0  -5 2.5 0  -5 2.4 0  -5 2.3 0  -5 2.2 0  -5 2.1 0  -5 2 0  -5 1.9 0  -5 1.8 0  -5 1.7 0  -5 1.6 0  -5 1.5 0  -5 1.4 0  -5 1.3 0  -5 1.2 0  -5 1.1 0  -5 1 0  -5 0.9000000000000004 0  -5 0.7999999999999998 0  -5 0.7000000000000002 0  -5 0.5999999999999996 0  -5 0.5 0  -5 0.4000000000000004 0  -5 0.2999999999999998 0  -5 0.2000000000000002 0  -5 0.09999999999999964 0  -5 0 0  -5 -0.09999999999999964 0  -5 -0.2000000000000002 0  -5 -0.2999999999999998 0  -5 -0.4000000000000004 0  -5 -0.5 0  -5 -0.5999999999999996 0  -5 -0.7000000000000002 0  -5 -0.7999999999999998 0  -5 -0.9000000000000004 0  -5 -1 0  -5 -1.1 0  -5 -1.2 0  -5 -1.3 0  -5 -1.4 0  -5 -1.5 0  -5 -1.6 0  -5 -1.7 0  -5 -1.8 0  -5 -1.9 0  -5 -2 0  -5 -2.1 0  -5 -2.2 0  -5 -2.3 0  -5 -2.4 0  -5 -2.5 0  -5 -2.6 0  -5 -2.7 0  -5 -2.8 0  -5 -2.9 0  -5 -3 0  -5 -3.1 0  -5 -3.199999999999999 0  -5 -3.300000000000001 0  -5 -3.4 0  -5 -3.5 0  -5 -3.6 0  -5 -3.699999999999999 0  -5 -3.800000000000001 0  -5 -3.9 0  -5 -4 0  -5 -4.1 0  -5 -4.199999999999999 0  -5 -4.300000000000001 0  -5 -4.4 0  -5 -4.5 0  -5 -4.6 0  -5 -4.699999999999999 0  -5 -4.800000000000001 0  -5 -4.9 0  1.200899488425927 0.09879277996926714 0  1.181906405343538 0.1967659593547592 0  1.150241602491577 0.2938999388960415 0  1.109342015118631 0.3851280628867364 0  1.056052721902494 0.4757433950905594 0  0.9934393177659452 0.5607785888446348 0  0.9197922728822711 0.6405507247150189 0  0.8369326954300866 0.7134310531840714 0  0.7470973476661468 0.7790232099814925 0  0.6488330843877151 0.8374419752874228 0  0.5434064120606956 0.8884972044143884 0  0.434056518004132 0.9305509827453092 0  0.3224641275417485 0.9633998774174932 0  0.2048811836252314 0.9857550049069586 0  0.08879176439363884 1.000807997137349 0  -0.02772158379847277 1.003619442935001 0  -0.1444972626200091 0.9934657171837886 0  -0.2632894116398555 0.9756699425252922 0  -0.3784449459122532 0.9496665879996709 0  -0.4881992306816834 0.9131886981958396 0  -0.5934001184348396 0.8675040455468933 0  -0.6934629276160862 0.8128006935352557 0  -0.7862793685311394 0.7497083941739946 0  -0.8728243410683143 0.6789420220493356 0  -0.9522057987463983 0.6007444002854552 0  -1.021076466513022 0.518483272383124 0  -1.080282792886433 0.4317006442095276 0  -1.128198006608023 0.3397283665288186 0  -1.164079028739084 0.245980374755613 0  -1.188117082013934 0.1497030913772071 0  -1.200271909701804 0.05075161888966177 0  -1.200258974448621 -0.04891225955549924 0  -1.188028398010198 -0.1474995258250884 0  -1.164757556282787 -0.2437532561135484 0  -1.127544387822197 -0.3394186136174214 0  -1.080622812151302 -0.4305599217553908 0  -1.022122434684088 -0.5176365846703269 0  -0.9538393498202058 -0.5994269697616126 0  -0.8748414131910806 -0.6764133585534179 0  -0.7879682549096093 -0.7460748229975174 0  -0.6937498350761137 -0.8072916587119144 0  -0.5935237389270903 -0.8615149369106365 0  -0.485260891825775 -0.9086395144757842 0  -0.3748176331813978 -0.9468017666888332 0  -0.2603036295746846 -0.9744177244756852 0  -0.1431054558777346 -0.9926171878959404 0  -0.02744505476998098 -1.002713235178099 0  0.08938658868616081 -0.9980020486971808 0  0.2080255095070333 -0.9833537460523624 0  0.324216141063474 -0.9617282607166774 0  0.4375934004360427 -0.9291289296911924 0  0.5451846003039251 -0.8875503250525602 0  0.6495876135712423 -0.837112602119728 0  0.7472485019949734 -0.7800563383815126 0  0.8369849001272005 -0.7141924968872524 0  0.9192711424972037 -0.6400248070355187 0  0.9918895694940524 -0.5601339142113331 0  1.055881743669449 -0.4751424330789585 0  1.110354645683762 -0.3851845262535661 0  1.151714284433321 -0.2923449562935868 0  1.182204491760498 -0.1959109150684233 0  1.20093330625364 -0.09832417839695226 0  -2.448750001485847 4.918460173278985 0  -2.44864105681628 -4.910869962518241 0  4.910802802699221 2.448162279535032 0  4.918893907994652 -2.449599529419972 0  2.446404359909817 -4.896167019405004 0  2.440830038642522 4.899915277970534 0  -4.910826884054167 -2.44818583251572 0  -4.910824961221868 2.448189677976719 0  -1.748711074566699 4.911502195876994 0  -1.744489355621099 -4.914923910956991 0  4.921080381468956 1.744311957209165 0  4.909677563583982 -1.748108407442769 0  -4.909965901250576 -1.74783867735094 0  -4.910784413015775 1.747580686047544 0  1.745996107628317 4.905394940616374 0  1.747434164337841 -4.89360365378116 0  -1.148982510772672 4.909390120693506 0  -1.129824771778989 -4.917256810971509 0  -4.909813920934702 -1.148119039324069 0  -4.909634230710616 1.147919215771746 0  1.14396813843699 -4.91346521371615 0  1.148990766716492 4.909378493173883 0  4.909958965993087 1.146395999783905 0  4.920714282664554 -1.152155644173608 0  -0.5467424780001962 -4.910630925670421 0  -0.5465179593821816 4.919258683011304 0  -4.908651489706617 -0.5488148612946497 0  -4.908675803136311 0.5473714134023321 0  4.907982808520823 -0.54913528765093 0  4.919548595721026 0.5458781329219512 0  0.5425320310404632 -4.897598120630757 0  0.5512479433523508 4.916103181199832 0  -4.912132319264472 -3.048498018730151 0  4.918687268387242 3.046500976264237 0  4.911642761783713 -3.048476979499453 0  -4.912978892484183 3.045587932032221 0  3.055455443302284 -4.917622111209782 0  -3.048797904115411 -4.911574258155053 0  3.052361579635052 4.913647740412879 0  -3.048242441662704 4.912462068500461 0  -4.907798890914173 -0.04991831174500105 0  0.04512444815732327 -4.912586005935363 0  0.04957261536927612 4.919566413013969 0  4.914803380139634 -0.05129973373261058 0  3.545741626082596 -4.919194049452366 0  -3.54903276582
[...]
<PointData  Vectors="f_2490"> 
<DataArray  type="Float64"  Name="f_2490"  NumberOfComponents="3" format="ascii">-1.2088871544236337e-40 -1.3737203048483531e-40 0.0000000000000000e+00  1.4501346949326792e-40 -1.5874700644918713e-40 0.0000000000000000e+00  -2.0492146834945408e-40 -2.0022090231806181e-40 0.0000000000000000e+00  -2.3859445051770067e-40 2.4210389741070037e-40 0.0000000000000000e+00  1.5841331361808111e+01 -1.7470253218028808e-01 0.0000000000000000e+00  2.8328723884694062e-40 3.0605625124309378e-40 0.0000000000000000e+00  7.2380456154237083e-40 7.4230124807897687e-40 0.0000000000000000e+00  -1.6475044386365475e-39 -1.8381454214825398e-39 0.0000000000000000e+00  1.5600343849006955e-38 1.7821565386519348e-38 0.0000000000000000e+00  -5.0848881276613757e-38 -5.7664778877841870e-38 0.0000000000000000e+00  1.8776854844015495e-37 2.2824178792456526e-37 0.0000000000000000e+00  -6.7381989681482946e-37 -8.5556665618802196e-37 0.0000000000000000e+00  4.0020648651793796e-36 5.1121924203836747e-36 0.0000000000000000e+00  -2.4996621929250461e-35 -3.1326388678448403e-35 0.0000000000000000e+00  1.0233442590002641e-34 1.3066641569719063e-34 0.0000000000000000e+00  -2.2433523989525247e-34 -2.8537048635969708e-34 0.0000000000000000e+00  4.5246925775489927e-34 5.6460665150292961e-34 0.0000000000000000e+00  1.6533683233358712e-33 2.1112735084788519e-33 0.0000000000000000e+00  -7.1960788107656677e-33 -9.7743484961273537e-33 0.0000000000000000e+00  1.9945652818035226e-32 2.9086918313184831e-32 0.0000000000000000e+00  -1.1580869449390340e-31 -1.6820412736466533e-31 0.0000000000000000e+00  3.0636952655277518e-31 4.4759975911484415e-31 0.0000000000000000e+00  1.9288179477380649e-31 2.7557417935875544e-31 0.0000000000000000e+00  -1.5728781137359936e-30 -2.2868035694548952e-30 0.0000000000000000e+00  -6.4214248557934446e-31 -1.1684050183343424e-30 0.0000000000000000e+00  -1.4506128325304497e-30 -2.7207043208952027e-30 0.0000000000000000e+00  4.3106607171839185e-30 7.9770474921233900e-30 0.0000000000000000e+00  -9.7423717460170525e-30 -2.4035145926990570e-29 0.0000000000000000e+00  3.4985858883562427e-29 7.5908992074089027e-29 0.0000000000000000e+00  2.0062875733260062e-29 4.6700818436678563e-29 0.0000000000000000e+00  -1.7525595335570627e-28 -3.8694892398631032e-28 0.0000000000000000e+00  -6.3484125594388976e-29 -1.5463296640260901e-28 0.0000000000000000e+00  -1.0663775238991236e-28 -3.0956430804032771e-28 0.0000000000000000e+00  1.7641075766642833e-28 4.6224958268103107e-28 0.0000000000000000e+00  5.0782282740829195e-28 1.4561670686227891e-27 0.0000000000000000e+00  -1.3147111499463387e-29 -9.8711765362423989e-29 0.0000000000000000e+00  1.5256260794756202e-28 4.1562948367532652e-28 0.0000000000000000e+00  -8.2384221711938093e-29 -2.6629974657305388e-28 0.0000000000000000e+00  -4.7653388240667437e-28 -1.4659003175122478e-27 0.0000000000000000e+00  -4.4169623232564229e-28 -1.4397073468428200e-27 0.0000000000000000e+00  -1.1816276147421962e-29 -1.1982353421916237e-28 0.0000000000000000e+00  4.5689536250353165e-28 1.7077576721547509e-27 0.0000000000000000e+00  2.7345922197274769e-28 1.0216886913703695e-27 0.0000000000000000e+00  -9.0098706173781578e-30 -1.6449738243744894e-28 0.0000000000000000e+00  1.1442213569402384e-28 4.1449590525188363e-28 0.0000000000000000e+00  -1.1393527611210955e-29 1.0221400917587106e-27 0.0000000000000000e+00  1.1339329948041286e-28 1.7299370009055282e-27 0.0000000000000000e+00  -1.6279266262698132e-29 -1.0227965419075356e-27 0.0000000000000000e+00  4.0531435004435482e-28 5.5318367980565493e-27 0.0000000000000000e+00  -1.3848657279693848e-28 -1.0433238045659185e-29 0.0000000000000000e+00  -4.9578337348937490e-28 -4.7283732725451461e-27 0.0000000000000000e+00  -3.6244037510137179e-28 -2.7036419055686084e-27 0.0000000000000000e+00  -2.7363542645170555e-28 -3.9018598676531763e-27 0.0000000000000000e+00  -1.3005097200639804e-28 -9.9598019436922787e-27 0.0000000000000000e+00  2.9129121289062323e-29 -1.1415743777049278e-26 0.0000000000000000e+00  -1.2225450288943162e-29 -1.9591965976710306e-27 0.0000000000000000e+00  7.5456532841995201e-29 -6.1447600829410329e-27 0.0000000000000000e+00  8.2909333879911345e-29 -2.1594356504471279e-27 0.0000000000000000e+00  2.4575608676425940e-28 -3.9441650919413979e-27 0.0000000000000000e+00  -1.5428412767306296e-28 1.8847701129604762e-27 0.0000000000000000e+00  5.4944912230123762e-28 -5.2579643534284310e-27 0.0000000000000000e+00  6.6801648399986965e-28 -4.7834855439702996e-27 0.0000000000000000e+00  -9.0125024640469733e-29 1.0401781630036893e-27 0.0000000000000000e+00  -1.0744411968202716e-27 7.2518106786315669e-27 0.0000000000000000e+00  -5.0629719215886505e-28 2.8847771583341953e-27 0.0000000000000000e+00  -3.5936589114881649e-28 1.6279844061815252e-27 0.0000000000000000e+00  -8.7592769770079378e-28 4.1589119465389747e-27 0.0000000000000000e+00  -5.1440512644212504e-28 2.2012947175310186e-27 0.0000000000000000e+00  5.6541343103227149e-28 -2.5203826767739647e-27 0.0000000000000000e+00  3.2943424478593769e-28 -1.1840978474411595e-27 0.0000000000000000e+00  7.0374725597906914e-29 -2.1190340202419500e-28 0.0000000000000000e+00  3.1002403944824006e-28 -8.8539651910637682e-28 0.0000000000000000e+00  2.3102156181983707e-28 -6.9390092081520612e-28 0.0000000000000000e+00  -1.9907938601285275e-28 5.9337128886448306e-28 0.0000000000000000e+00  -1.3255934623796725e-28 3.7530194087971858e-28 0.0000000000000000e+00  -1.0258860100884662e-28 2.7598407709158054e-28 0.0000000000000000e+00  1.8185797477217879e-29 -5.5405990357258859e-29 0.0000000000000000e+00  7.1849320045038169e-29 -1.7933170019502123e-28 0.0000000000000000e+00  1.0410961222292822e-28 -2.4269152525837788e-28 0.0000000000000000e+00  -6.9016875080466828e-30 1.3680110752030763e-29 0.0000000000000000e+00  -7.7435510193752929e-29 1.6478929042020054e-28 0.0000000000000000e+00  1.2620558204993989e-29 -2.6728568280087759e-29 0.0000000000000000e+00  4.3333828585481675e-30 -8.5569487253005623e-30 0.0000000000000000e+00  -1.2514639281046001e-29 2.2581382034503857e-29 0.0000000000000000e+00  -1.1064690426375899e-30 1.5618723768752805e-30 0.0000000000000000e+00  1.4822986161506913e-30 -2.3871001572427928e-30 0.0000000000000000e+00  -7.4597988143710272e-31 1.1732893932720236e-30 0.0000000000000000e+00  9.8992044687763975e-32 -1.5683873467347573e-31 0.0000000000000000e+00  -1.1258933010268210e-32 1.7428830900613127e-32 0.0000000000000000e+00  -1.3342078566731432e-33 1.7858238985990692e-33 0.0000000000000000e+00  6.3729701402886623e-33 -8.4655267930474501e-33 0.0000000000000000e+00  1.9711358348988342e-34 -1.9981042939558440e-34 0.0000000000000000e+00  -3.5152346634550869e-34 4.3830359912338619e-34 0.0000000000000000e+00  3.6575422480402370e-35 -4.3125564881953295e-35 0.0000000000000000e+00  -1.3412517533505435e-35 1.6987702868174232e-35 0.0000000000000000e+00  3.6562264622868945e-36 -4.4012048412276260e-36 0.0000000000000000e+00  -1.5421985381157975e-36 1.7213397627573235e-36 0.0000000000000000e+00  4.7812258027530796e-37 -5.4403896913833375e-37 0.0000000000000000e+00  -2.3744888471002838e-37 2.5972769665264749e-37 0.0000000000000000e+00  7.9277291163348276e-38 -8.4807231926792825e-38 0.0000000000000000e+00  -1.5419052128592553e-38 1.6594595757025423e-38 0.0000000000000000e+00  6.1658825875122292e-39 -6.4248507705216403e-39 0.0000000000000000e+00  -4.2506409143319227e-40 4.1267095418282902e-40 0.0000000000000000e+00  -2.5242163805942201e-40 2.7579675909028072e-40 0.0000000000000000e+00  -2.5032835138941033e-42 3.3784151228529789e-42 0.0000000000000000e+00  3.7534187619207494e-40 -3.3365083008704162e-40 0.0000000000000000e+00  -8.5318443600437108e-40 7.4365188419574446e-40 0.0000000000000000e+00  2.9570675490356103e-39 -2.7040330718167717e-39 0.0000000000000000e+00  -1.4380353385237987e-39 1.5793184859519279e-39 0.0000000000000000e+00  -1.4745759391287917e-38 1.2103034321475669e-38 0.0000000000000000e+00  5.4371186828621611e-38 -4.5974795353449771e-38 0.0000000000000000e+00  -6.8988306716095031e-38 6.0633492876261175e-38 0.0000000000000000e+00  -1.4446123227265889e-37 1.0782571101182848e-37 0.0000000000000000e+00  8.5438200097570279e-37 -6.7234835851705339e-37 0.0000000000000000e+00  -1.4273991556759299e-36 1.1465447041452750e-36 0.0000000000000000e+00  -1.4192857895411782e-36 9.6294912787491195e-37 0.0000000000000000e+00  1.1890636450078908e-35 -8.7752883712088473e-36 0.0000000000000000e+00  -2.2265869449136551e-35 1.6543233977708548e-35 0.0000000000000000e+00  -1.8203545687361453e-35 1.1855601597553587e-35 0.0000000000000000e+00  1.7219420558109074e-34 -1.1908991031339852e-34 0.0000000000000000e+00  -2.6859935326871742e-34 1.8646246702672404e-34 0.0000000000000000e+00  -3.8852977141712286e-34 2.4958018358851238e-34 0.0000000000000000e+00  2.3214022092999789e-33 -1.4987246329338623e-33 0.0000000000000000e+00  -2.2193554440727597e-33 1.4273016971292431e-33 0.0000000000000000e+00  -8.5505354160998062e-33 5.2026291639235679e-33 0.0000000000000000e+00  2.6434105023322079e-32 -1.5848860305555392e-32 0.0000000000000000e+00  3.3126431464003866e-33 -1.7556963213434372e-33 0.0000000000000000e+00  -1.4537441250805386e-31 8.1723188302767788e-32 0.0000000000000000e+00  1.8799159302237803e-31 -1.0164301564308460e-31 0.0000000000000000e+00  4.9292836029341709e-31 -2.6124667451162689e-31 0.0000000000000000e+00  -1.4357054872569036e-30 7.2670695646351318e-31 0.0000000000000000e+00  -8.7854727219102686e-31 4.5669064188033198e-31 0.0000000000000000e+00  7.7512049903570769e-30 -3.6645669034392376e-30 0.0000000000000000e+00  -2.1433542010061656e-30 7.6970337270905834e-31 0.0000000000000000e+00  -3.4521115628100195e-29 1.5216361340634469e-29 0.0000000000000000e+00  2.8117986321005533e-29 -1.0366092876885773e-29 0.0000000000000000e+00  1.4169138607647791e-28 -5.8366182298049133e-29 0.0000000000000000e+00  -1.5952738014999339e-28 5.2626668212451771e-29 0.0000000000000000e+00  -5.9405282838841562e-28 2.2513505784253726e-28 0.0000000000000000e+00  6.2953312140274350e-28 -1.7236217121632635e-28 0.0000000000000000e+00  2.4841885462387964e-27 -8.4389293236783875e-28 0.0000000000000000e+00  -1.8978000499450126e-27 3.4257936110914290e-28 0.0000000000000000e+00  -9.5996742647312591e-27 2.6400335469242463e-27 0.0000000000000000e+00  2.6068323917819566e-27 2.9956684931913462e-28 0.0000000000000000e+00  3.0281973216972947e-26 -6.2231460739199988e-27 0.0000000000000000e+00  1.4824890887662541e-26 -4.7526327379130990e-27 0.0000000000000000e+00  -8.5066838909501928e-26 1.2034399062428481e-26 0.0000000000000000e+00  -1.2890107199609503e-25 1.8295452469132384e-26 0.0000000000000000e+00  1.4284867112561854e-25 -2.4584447145763235e-26 0.0000000000000000e+00  8.3133299221164673e-25 -1.1476418834494365e-25 0.0000000000000000e+00  1.5085699553729840e-24 -1.7886015193510668e-25 0.0000000000000000e+00  1.8276566431980498e-24 -1.7108449766078521e-25 0.0000000000000000e+00  1.7748309555074591e-24 -9.2568398047682443e-26 0.0000000000000000e+00  1.7840224574009357e-24 9.9566698034639304e-27 0.0000000000000000e+00  1.9035168947033383e-24 1.0518458296577867e-25 0.0000000000000000e+00  1.7655321006354663e-24 1.5109913324164676e-25 0.0000000000000000e+00  1.1637709395475455e-24 1.2188168882195770e-25 0.0000000000000000e+00  3.5696587240524538e-25 4.0799239936016035e-26 0.0000000000000000e+00  -1.4143180780989574e-25 -2.2464085030944853e-26 0.0000000000000000e+00  -1.9693629852577186e-25 -3.0253792853186155e-26 0.0000000000000000e+00  -3.4928775353259476e-26 -2.5994065458683920e-27 0.0000000000000000e+00  5.6602359992125211e-26 1.3996305801836247e-26 0.0000000000000000e+00  3.4683434113884142e-26 8.1638884156167648e-27 0.0000000000000000e+00  -4.6533465646420052e-27 -1.4737710441178691e-27 0.0000000000000000e+00  -9.9163797737180414e-27 -2.7377257100957264e-27 0.0000000000000000e+00  -5.5792562449099957e-28 -8.9674824654722687e-29 0.0000000000000000e+00  2.5184032427757535e-27 7.9734961944389038e-28 0.0000000000000000e+00  3.1677467684582179e-28 9.0533799699622471e-29 0.0000000000000000e+00  -6.0530645006847275e-28 -2.1247768828804038e-28 0.0000000000000000e+00  -7.0772118517655877e-29 -2.2753407835418918e-29 0.0000000000000000e+00  1.4076067697161084e-28 5.4259299571812363e-29 0.0000000000000000e+00  3.5642914067660473e-30 6.3067664709785030e-31 0.0000000000000000e+00  -3.1186277984998693e-29 -1.3044455034650789e-29 0.0000000000000000e+00  3.1214369119347168e-30 1.5767344777582254e-30 0.0000000000000000e+00  5.8493522742160482e-30 2.6454590564541323e-30 0.0000000000000000e+00  -1.7885009638068443e-30 -8.9159944503829915e-31 0.0000000000000000e+00  -8.4634632672232617e-31 -4.0380600948983040e-31 0.0000000000000000e+00  5.5950730436448057e-31 2.9436261433194359e-31 0.0000000000000000e+00  2.7063937401913914e-32 1.0119976129520720e-32 0.0000000000000000e+00  -1.2063196777336875e-31 -6.6871614689403186e-32 0.0000000000000000e+00  2.7310998461453902e-32 1.6509688032403722e-32 0.0000000000000000e+00  1.7067005279314709e-32 9.8456430869634955e-33 0.0000000000000000e+00  -1.0908797331507811e-32 -6.7342773595873913e-33 0.0000000000000000e+00  1.6483761244418115e-34 1.5591181019675338e-34 0.0000000000000000e+00  1.9416890434165254e-33 1.2618469489792037e-33 0.0000000000000000e+00  -7.3294760981313709e-34 -4.9455465349738737e-34 0.0000000000000000e+00  -1.0116273494906184e-34 -6.8767619043996547e-35 0.0000000000000000e+00  1.7449230298538159e-34 1.2326701840470892e-34 0.0000000000000000e+00  -4.9289475797764675e-35 -3.5645821317988321e-35 0.0000000000000000e+00  -1.1046555122974025e-35 -8.3622677119819551e-36 0.0000000000000000e+00  1.2736047713766174e-35 9.7075387605326433e-36 0.0000000000000000e+00  -3.3692781663288576e-36 -2.5754423254270030e-36 0.0000000000000000e+00  -7.4168804471163905e-37 -6.1995866463566315e-37 0.0000000000000000e+00  8.7838432131519283e-37 7.1818122961724790e-37 0.0000000000000000e+00  -2.6061735869317445e-37 -2.1172883077787462e-37 0.0000000000000000e+00  -2.6845933154382785e-38 -2.6199933675512730e-38 0.0000000000000000e+00  5.3785643703763044e-38 4.7413889709813906e-38 0.0000000000000000e+00  -2.1127902668418849e-38 -1.8382564192518910e-38 0.0000000000000000e+00  1.1321494677198381e-39 6.9591645845921773e-40 0.0000000000000000e+00  2.7542472226283282e-39 2.6422833994736704e-39 0.0000000000000000e+00  -1.5035984415144623e-39 -1.4053050758351280e-39 0.0000000000000000e+00  3.4289895263134297e-40 3.0984015057334102e-40 0.0000000000000000e+00  1.3745762483032651e-40 1.4948393899315250e-40 0.0000000000000000e+00  3.1626086415854144e-40 3.1351439537680975e-40 0.0000000000000000e+00  -8.3602671260215105e-40 -9.1394710882635742e-40 0.0000000000000000e+00  1.6841801781495770e-39 1.8766710600328774e-39 0.0000000000000000e+00  -1.1320461492886678e-38 -1.2751931203558299e-38 0.0000000000000000e+00  8.6814824087415680e-38 9.2310516861591143e-38 0.0000000000000000e+00  -2.1854297990505603e-37 -2.2327233658858906e-37 0.0000000000000000e+00  2.6767192846197600e-37 2.8471304175246254e-37 0.0000000000000000e+00  -3.6819860946128826e-36 -4.2922763451592076e-36 0.0000000000000000e+00  1.0628351686596101e-35 1.3555774439714764e-35 0.0000000000000000e+00  -4.3122340549892571e-35 -5.8514133359761347e-35 0.0000000000000000e+00  9.5424158799536760e-35 1.3041153089447607e-34 0.0000000000000000e+00  -1.6629950430595052e-34 -2.5289606702593511e-34 0.0000000000000000e+00  9.8722937414412364e-34 1.3798142895435189e-33 0.0000000000000000e+00  -4.9403847542212647e-34 -6.8152149683504352e-34 0.0000000000000000e+00  3.3825241033260231e-33 5.0982712532653825e-33 0.0000000000000000e+00  3.6610679938802561e-32 5.2526853507915067e-32 0.0000000000000000e+00  -1.6167082975055485e-31 -2.3473799504888669e-31 0.0000000000000000e+00  -5.0497493495767575e-31 -7.5866915927017322e-31 0.0000000000000000e+00  1.0573364567922886e-30 1.5919903171034599e-30 0.0000000000000000e+00  -3.4917666328242657e-31 -4.9057506346139449e-31 0.0000000000000000e+00  -2.9196059176933056e-30 -5.3557904591189704e-30 0.0000000000000000e+00  8.8106835545629895e-30 1.7863847018479848e-29 0.0000000000000000e+00  1.2545746195061332e-29 2.6163853222529810e-29 0.0000000000000000e+00  -7.9138447993452567e-29 -1.6858098818029682e-28 0.0000000000000000e+00  2.5194155681884053e-29 5.1445690987318525e-29 0.0000000000000000e+00  9.1124009550076695e-29 1.8702781600393425e-28 0.0000000000000000e+00  2.5883522983041107e-29 7.2922932637450015e-29 0.0000000000000000e+00  2.3164581794638943e-28 6.2946508536996932e-28 0.0000000000000000e+00  1.0261976595701997e-28 2.8973893160964270e-28 0.0000000000000000e+00  -2.4696208632306388e-28 -6.9732915293595424e-28 0.0000000000000000e+00  -3.7596253813995062e-28 -1.1120303827468266e-27 0.0000000000000000e+00  3.0246765892054078e-28 9.4168854840481202e-28 0.0000000000000000e+00  5.1896872246437463e-28 1.7325958767897982e-27 0.0000000000000000e+00  3.3237285380877936e-28 1.1857729045803260e-27 0.0000000000000000e+00  1.7494349067959870e-28 6.0404764851692972e-28 0.0000000000000000e+00  -5.9653065017478090e-28 -2.3839847530693808e-27 0.0000000000000000e+00  -1.5260202326016614e-28 -6.9194140730253582e-28 0.0000000000000000e+00  -4.1041045453362816e-29 -2.4735097601786746e-28 0.0000000000000000e+00  -2.8455017430580071e-28 -1.4601926592859511e-27 0.0000000000000000e+00  -2.4136066248530505e-28 -1.3595245051036249e-27 0.0000000000000000e+00  -3.4260510514298164e-28 -2.1077327241232368e-27 0.0000000000000000e+00  -1.3274794335328008e-28 -7.9035871690678663e-28 0.0000000000000000e+00  1.3993565620567257e-28 1.3073584523893872e-27 0.0000000000000000e+00  -4.5293901183103998e-29 -2.3404750660428482e-28 0.0000000000000000e+00  -1.5305475211938799e-28 -2.1420431417483927e-27 0.0000000000000000e+00  3.6537601310805279e-30 6.1988311157166783e-28 0.0000000000000000e+00  -1.4396367011282624e-29 4.8454967683244325e-28 0.0000000000000000e+00  -9.7424259288782063e-30 -1.4313275110115208e-27 0.0000000000000000e+00  2.0301778080895083e-31 -5.2313507601726971e-28 0.0000000000000000e+00  8.5012377291278274e-29 -1.5691659657631550e-27 0.0000000000000000e+00  -1.2190952259242812e-28 1.6244502664399312e-27 0.0000000000000000e+00  -1.4283817281484056e-28 1.5096682704863981e-27 0.0000000000000000e+00  2.0059792903189605e-28 -1.6598872550689626e-27 0.0000000000000000e+00  8.0947719105406227e-29 -4.0253088251820040e-28 0.0000000000000000e+00  2.8533404448964290e-28 -2.1380044943935265e-27 0.0000000000000000e+00  -6.8228029140227439e-29 1.1252782276940646e-27 0.0000000000000000e+00  -1.7157541712590694e-29 3.5965527934514682e-28 0.0000000000000000e+00  2.4145131892221440e-28 -9.6967746530267776e-28 0.0000000000000000e+00  1.2035311890835574e-28 -4.7525911832082978e-28 0.0000000000000000e+00  4.9814282239931272e-28 -2.5694772353884007e-27 0.0000000000000000e+00  7.1653793252994758e-28 -3.3596576446558557e-27 0.0000000000000000e+00  9.8406454952493434e-28 -4.4330030127583787e-27 0.0000000000000000e+00  2.8306916146799149e-28 -1.1740029335688139e-27 0.0000000000000000e+00  -3.4825112486440427e-28 1.3577294448592541e-27 0.0000000000000000e+00  -6.4214140385926950e-28 2.4053584341388306e-27 0.0000000000000000e+00  -7.3227453543435693e-28 2.5883810663167580e-27 0.0000000000000000e+00  -1.7933527175713709e-28 6.0406218386614690e-28 0.0000000000000000e+00  1.5578803440087564e-28 -4.9572097348086847e-28 0.0000000000000000e+00  1.3429181994653927e-28 -4.4444551082357526e-28 0.0000000000000000e+00  5.5930933318859991e-28 -1.6669044540816112e-27 0.0000000000000000e+00  2.3957182111328294e-28 -6.6246270364671506e-28 0.0000000000000000e+00  -2.0032325405968866e-28 5.4927726366491588e-28 0.0000000000000000e+00  -1.0861289980412652e-29 1.4919080274338705e-29 0.0000000000000000e+00  2.4964497053828604e-29 -5.9688496847716412e-29 0.0000000000000000e+00  5.7644306427844347e-29 -1.3184160683190013e-28 0.0000000000000000e+00  -1.2542432501195464e-29 2.7470295352883027e-29 0.0000000000000000e+00  -1.8483279323697195e-29 3.8452579617257295e-29 0.0000000000000000e+00  1.399