<?xml version="1.0"?>
<VTKFile type="UnstructuredGrid"  version="0.1"  >
<UnstructuredGrid>
<Piece  NumberOfPoints="11902" NumberOfCells="23402">
<Points>
<DataArray  type="Float64"  NumberOfComponents="3"  format="ascii">-5 -5 0  5 -5 0  5 5 0  -5 5 0  1.253297394840816 0.001357760787888715 0  -4.9 -5 0  -4.8 -5 0  -4.7 -5 0  -4.6 -5 0  -4.5 -5 0  -4.4 -5 0  -4.3 -5 0  -4.2 -5 0  -4.1 -5 0  -4 -5 0  -3.9 -5 0  -3.8 -5 0  -3.7 -5 0  -3.6 -5 0  -3.5 -5 0  -3.4 -5 0  -3.3 -5 0  -3.2 -5 0  -3.1 -5 0  -3 -5 0  -2.9 -5 0  -2.8 -5 0  -2.7 -5 0  -2.6 -5 0  -2.5 -5 0  -2.4 -5 0  -2.3 -5 0  -2.2 -5 0  -2.1 -5 0  -2 -5 0  -1.9 -5 0  -1.8 -5 0  -1.7 -5 0  -1.6 -5 0  -1.5 -5 0  -1.4 -5 0  -1.3 -5 0  -1.2 -5 0  -1.1 -5 0  -1 -5 0  -0.9000000000000004 -5 0  -0.7999999999999998 -5 0  -0.7000000000000002 -5 0  -0.5999999999999996 -5 0  -0.5 -5 0  -0.4000000000000004 -5 0  -0.2999999999999998 -5 0  -0.2000000000000002 -5 0  -0.09999999999999964 -5 0  0 -5 0  0.09999999999999964 -5 0  0.2000000000000002 -5 0  0.2999999999999998 -5 0  0.4000000000000004 -5 0  0.5 -5 0  0.5999999999999996 -5 0  0.7000000000000002 -5 0  0.7999999999999998 -5 0  0.9000000000000004 -5 0  1 -5 0  1.1 -5 0  1.2 -5 0  1.3 -5 0  1.4 -5 0  1.5 -5 0  1.6 -5 0  1.7 -5 0  1.8 -5 0  1.9 -5 0  2 -5 0  2.1 -5 0  2.2 -5 0  2.3 -5 0  2.4 -5 0  2.5 -5 0  2.6 -5 0  2.7 -5 0  2.8 -5 0  2.9 -5 0  3 -5 0  3.1 -5 0  3.199999999999999 -5 0  3.300000000000001 -5 0  3.4 -5 0  3.5 -5 0  3.6 -5 0  3.699999999999999 -5 0  3.800000000000001 -5 0  3.9 -5 0  4 -5 0  4.1 -5 0  4.199999999999999 -5 0  4.300000000000001 -5 0  4.4 -5 0  4.5 -5 0  4.6 -5 0  4.699999999999999 -5 0  4.800000000000001 -5 0  4.9 -5 0  5 -4.9 0  5 -4.8 0  5 -4.7 0  5 -4.6 0  5 -4.5 0  5 -4.4 0  5 -4.3 0  5 -4.2 0  5 -4.1 0  5 -4 0  5 -3.9 0  5 -3.8 0  5 -3.7 0  5 -3.6 0  5 -3.5 0  5 -3.4 0  5 -3.3 0  5 -3.2 0  5 -3.1 0  5 -3 0  5 -2.9 0  5 -2.8 0  5 -2.7 0  5 -2.6 0  5 -2.5 0  5 -2.4 0  5 -2.3 0  5 -2.2 0  5 -2.1 0  5 -2 0  5 -1.9 0  5 -1.8 0  5 -1.7 0  5 -1.6 0  5 -1.5 0  5 -1.4 0  5 -1.3 0  5 -1.2 0  5 -1.1 0  5 -1 0  5 -0.9000000000000004 0  5 -0.7999999999999998 0  5 -0.7000000000000002 0  5 -0.5999999999999996 0  5 -0.5 0  5 -0.4000000000000004 0  5 -0.2999999999999998 0  5 -0.2000000000000002 0  5 -0.09999999999999964 0  5 0 0  5 0.09999999999999964 0  5 0.2000000000000002 0  5 0.2999999999999998 0  5 0.4000000000000004 0  5 0.5 0  5 0.5999999999999996 0  5 0.7000000000000002 0  5 0.7999999999999998 0  5 0.9000000000000004 0  5 1 0  5 1.1 0  5 1.2 0  5 1.3 0  5 1.4 0  5 1.5 0  5 1.6 0  5 1.7 0  5 1.8 0  5 1.9 0  5 2 0  5 2.1 0  5 2.2 0  5 2.3 0  5 2.4 0  5 2.5 0  5 2.6 0  5 2.7 0  5 2.8 0  5 2.9 0  5 3 0  5 3.1 0  5 3.199999999999999 0  5 3.300000000000001 0  5 3.4 0  5 3.5 0  5 3.6 0  5 3.699999999999999 0  5 3.800000000000001 0  5 3.9 0  5 4 0  5 4.1 0  5 4.199999999999999 0  5 4.300000000000001 0  5 4.4 0  5 4.5 0  5 4.6 0  5 4.699999999999999 0  5 4.800000000000001 0  5 4.9 0  4.9 5 0  4.8 5 0  4.7 5 0  4.6 5 0  4.5 5 0  4.4 5 0  4.3 5 0  4.2 5 0  4.1 5 0  4 5 0  3.9 5 0  3.8 5 0  3.7 5 0  3.6 5 0  3.5 5 0  3.4 5 0  3.3 5 0  3.2 5 0  3.1 5 0  3 5 0  2.9 5 0  2.8 5 0  2.7 5 0  2.6 5 0  2.5 5 0  2.4 5 0  2.3 5 0  2.2 5 0  2.1 5 0  2 5 0  1.9 5 0  1.8 5 0  1.7 5 0  1.6 5 0  1.5 5 0  1.4 5 0  1.3 5 0  1.2 5 0  1.1 5 0  1 5 0  0.9000000000000004 5 0  0.7999999999999998 5 0  0.7000000000000002 5 0  0.5999999999999996 5 0  0.5 5 0  0.4000000000000004 5 0  0.2999999999999998 5 0  0.2000000000000002 5 0  0.09999999999999964 5 0  0 5 0  -0.09999999999999964 5 0  -0.2000000000000002 5 0  -0.2999999999999998 5 0  -0.4000000000000004 5 0  -0.5 5 0  -0.5999999999999996 5 0  -0.7000000000000002 5 0  -0.7999999999999998 5 0  -0.9000000000000004 5 0  -1 5 0  -1.1 5 0  -1.2 5 0  -1.3 5 0  -1.4 5 0  -1.5 5 0  -1.6 5 0  -1.7 5 0  -1.8 5 0  -1.9 5 0  -2 5 0  -2.1 5 0  -2.2 5 0  -2.3 5 0  -2.4 5 0  -2.5 5 0  -2.6 5 0  -2.7 5 0  -2.8 5 0  -2.9 5 0  -3 5 0  -3.1 5 0  -3.199999999999999 5 0  -3.300000000000001 5 0  -3.4 5 0  -3.5 5 0  -3.6 5 0  -3.699999999999999 5 0  -3.800000000000001 5 0  -3.9 5 0  -4 5 0  -4.1 5 0  -4.199999999999999 5 0  -4.300000000000001 5 0  -4.4 5 0  -4.5 5 0  -4.6 5 0  -4.699999999999999 5 0  -4.800000000000001 5 0  -4.9 5 0  -5 4.9 0  -5 4.8 0  -5 4.7 0  -5 4.6 0  -5 4.5 0  -5 4.4 0  -5 4.3 0  -5 4.2 0  -5 4.1 0  -5 4 0  -5 3.9 0  -5 3.8 0  -5 3.7 0  -5 3.6 0  -5 3.5 0  -5 3.4 0  -5 3.3 0  -5 3.2 0  -5 3.1 0  -5 3 0  -5 2.9 0  -5 2.8 0  -5 2.7 0  -5 2.6 0  -5 2.5 0  -5 2.4 0  -5 2.3 0  -5 2.2 0  -5 2.1 0  -5 2 0  -5 1.9 0  -5 1.8 0  -5 1.7 0  -5 1.6 0  -5 1.5 0  -5 1.4 0  -5 1.3 0  -5 1.2 0  -5 1.1 0  -5 1 0  -5 0.9000000000000004 0  -5 0.7999999999999998 0  -5 0.7000000000000002 0  -5 0.5999999999999996 0  -5 0.5 0  -5 0.4000000000000004 0  -5 0.2999999999999998 0  -5 0.2000000000000002 0  -5 0.09999999999999964 0  -5 0 0  -5 -0.09999999999999964 0  -5 -0.2000000000000002 0  -5 -0.2999999999999998 0  -5 -0.4000000000000004 0  -5 -0.5 0  -5 -0.5999999999999996 0  -5 -0.7000000000000002 0  -5 -0.7999999999999998 0  -5 -0.9000000000000004 0  -5 -1 0  -5 -1.1 0  -5 -1.2 0  -5 -1.3 0  -5 -1.4 0  -5 -1.5 0  -5 -1.6 0  -5 -1.7 0  -5 -1.8 0  -5 -1.9 0  -5 -2 0  -5 -2.1 0  -5 -2.2 0  -5 -2.3 0  -5 -2.4 0  -5 -2.5 0  -5 -2.6 0  -5 -2.7 0  -5 -2.8 0  -5 -2.9 0  -5 -3 0  -5 -3.1 0  -5 -3.199999999999999 0  -5 -3.300000000000001 0  -5 -3.4 0  -5 -3.5 0  -5 -3.6 0  -5 -3.699999999999999 0  -5 -3.800000000000001 0  -5 -3.9 0  -5 -4 0  -5 -4.1 0  -5 -4.199999999999999 0  -5 -4.300000000000001 0  -5 -4.4 0  -5 -4.5 0  -5 -4.6 0  -5 -4.699999999999999 0  -5 -4.800000000000001 0  -5 -4.9 0  1.245519532983165 0.09556836295339174 0  1.224291862762096 0.1929485509533661 0  1.190983495413979 0.2894720032061144 0  1.148225913491904 0.3785869229118799 0  1.090907089857782 0.4692766971961962 0  1.025587002790299 0.5538091673458514 0  0.9478163377157925 0.6336266253282691 0  0.8615270969775221 0.7079222589353854 0  0.7698646905478329 0.7733182971218716 0  0.6676884336439309 0.8307463687903628 0  0.5568153841247854 0.8830419700787928 0  0.4447587523510495 0.9269496718777066 0  0.3320136276716459 0.9594238868967732 0  0.2084697532024436 0.9809638104899954 0  0.08927825884400512 0.9995689890141224 0  -0.02735153570992645 1.00276291578462 0  -0.1451056081916549 0.9893657655737647 0  -0.2710367489360263 0.9707237029767219 0  -0.3898460146596496 0.9462457503704901 0  -0.500693179935086 0.9100216296262919 0  -0.6095690676247523 0.863615707827342 0  -0.7117144846243076 0.8091314697645081 0  -0.8062503025569315 0.7444133483883217 0  -0.8967027361723291 0.6713922876045184 0  -0.9814621911922331 0.591977608239741 0  -1.055003098487523 0.5108685268373464 0  -1.116600213591922 0.4251556131542129 0  -1.16883929553577 0.3332798012926582 0  -1.206772763921061 0.2429561325518055 0  -1.231273915457509 0.1485540566096182 0  -1.242782492431207 0.05119161922812578 0  -1.242731604464066 -0.0490873830361897 0  -1.231217425320136 -0.145758857334252 0  -1.206494073066694 -0.2389628969696385 0  -1.165894220827184 -0.3337989017918068 0  -1.116877849841676 -0.425227541060897 0  -1.056528677025322 -0.5106176689321251 0  -0.983784293343257 -0.5909404039882113 0  -0.8996454097349309 -0.6691675204566463 0  -0.8095892308408374 -0.7405577540946877 0  -0.7136363466138473 -0.8015461353639506 0  -0.6092099735690284 -0.8547291339603857 0  -0.4963643393629416 -0.9040231366746737 0  -0.3835953146939729 -0.9435242148245799 0  -0.2677585075027163 -0.970283681686414 0  -0.1437157789452801 -0.9890339692127561 0  -0.02796800384202353 -1.001943544274742 0  0.08899229273682269 -0.9949413810289628 0  0.213421507886181 -0.9778121618619032 0  0.3344319695151548 -0.9578634155107877 0  0.4488736318946809 -0.925620443542466 0  0.559127816031615 -0.8821868000892895 0  0.6685897158453624 -0.8307961845301538 0  0.7698534900281441 -0.7744632574918696 0  0.8616367863280383 -0.7088971399268302 0  0.9470939939207249 -0.6336398029041421 0  1.023027186480086 -0.5529412426241473 0  1.091371511767183 -0.4682541357621549 0  1.149110256399961 -0.3788083783966864 0  1.192716361072634 -0.2874641567112952 0  1.224913241132686 -0.1920676984696008 0  1.245802518495136 -0.09526705136463699 0  -2.448575961975681 4.918140469233414 0  -2.448451466307031 -4.910521220241422 0  4.910446211792714 2.447912733373804 0  4.918570235024135 -2.449372612201414 0  2.446183728445578 -4.895757422531819 0  2.440616698954563 4.899519115562033 0  -4.910473045543527 -2.44793892412779 0  -4.910470369083265 2.447942814401895 0  -1.74853063251704 4.91104034853096 0  -1.744316675045307 -4.914480428876007 0  4.92062936834728 1.744085839914786 0  4.909162522064865 -1.74784921941131 0  -4.909456408192573 -1.747583256817438 0  -4.910278708209154 1.74732791498505 0  1.745804447789069 4.904898678292292 0  1.747219301433112 -4.893046430674327 0  -1.148838560476544 4.908829512977159 0  -1.129695337335488 -4.916744121811869 0  -4.909175457863703 -1.147908676184431 0  -4.908993788659498 1.14770904296772 0  1.143833400492114 -4.912928656621961 0  1.148848448175062 4.90881626228445 0  4.909315460795595 1.146184015129462 0  4.920148917332861 -1.151968163265629 0  -0.5466674189476919 -4.910020890111813 0  -0.5464501623874519 4.918706076082259 0  -4.907909147738865 -0.5486978675739543 0  -4.907933125532455 0.5472555411578024 0  4.907228264138895 -0.5490160801939706 0  4.918888550386687 0.5457748212642506 0  0.5424496037505634 -4.896897368281997 0  0.5511788261309286 4.915528493250036 0  -4.911893812071368 -3.048294132511457 0  4.91846477037693 3.04631026366616 0  4.911401605858896 -3.048269855229972 0  -4.912741615321071 3.045385694711859 0  3.055300519727185 -4.917388449898167 0  -3.048631372794372 -4.911324402152196 0  3.052198639232254 4.913402209154735 0  -3.048076991454479 4.912214193222207 0  -4.907017665001352 -0.04990671443913379 0  0.04511970636129748 -4.911971014574497 0  0.04956736634055489 4.91899919294052 0  4.9140749884848 -0.0512888332975364 0  3.545619097478351 -4.919030785213454 0  -3.548899575522119 4.91193
[...]
<PointData  Vectors="f_4362"> 
<DataArray  type="Float64"  Name="f_4362"  NumberOfComponents="3" format="ascii">-7.8306797474130455e-41 -1.1506069603906974e-40 0.0000000000000000e+00  7.8502300398906380e-41 -1.0955692978872311e-40 0.0000000000000000e+00  -1.7950326131082107e-40 -1.7410921810040014e-40 0.0000000000000000e+00  -1.8891115881968248e-40 1.9443061064843699e-40 0.0000000000000000e+00  1.6396325848366235e+01 1.8106379813627407e-01 0.0000000000000000e+00  2.0754959060596238e-40 2.5682754159453395e-40 0.0000000000000000e+00  8.4231819163188123e-40 8.0500257966041616e-40 0.0000000000000000e+00  -2.2701585702759200e-39 -2.3425323068173669e-39 0.0000000000000000e+00  1.5833776198252728e-38 1.8458804927488675e-38 0.0000000000000000e+00  -5.7978419230596075e-38 -6.6763905026245361e-38 0.0000000000000000e+00  2.1446212991208091e-37 2.8216709414444872e-37 0.0000000000000000e+00  -8.4353178269022146e-37 -1.1552822719528716e-36 0.0000000000000000e+00  4.0927516798807339e-36 5.6013676767633236e-36 0.0000000000000000e+00  -2.1628140838460405e-35 -2.8007742751188323e-35 0.0000000000000000e+00  9.5566969188365123e-35 1.2296248420523965e-34 0.0000000000000000e+00  -2.0935826049249970e-34 -2.4941805013591645e-34 0.0000000000000000e+00  3.7894339461672073e-34 4.0261356204483574e-34 0.0000000000000000e+00  1.7358984932984667e-33 1.9366070516182084e-33 0.0000000000000000e+00  -7.0036195446609396e-33 -8.9019509058898115e-33 0.0000000000000000e+00  1.6543498456544024e-32 2.4631336237784299e-32 0.0000000000000000e+00  -1.0431310238713779e-31 -1.4684070511787913e-31 0.0000000000000000e+00  2.8596710469018226e-31 4.0330103281868507e-31 0.0000000000000000e+00  2.2332276530406807e-31 2.3789906600379398e-31 0.0000000000000000e+00  -1.7600189116875190e-30 -2.0714815228885770e-30 0.0000000000000000e+00  -4.3381604240247619e-31 -1.0935252572978939e-30 0.0000000000000000e+00  -4.8463659452022108e-31 -2.2078510823425463e-30 0.0000000000000000e+00  3.4140399088365909e-30 7.2586156199689231e-30 0.0000000000000000e+00  -6.9199612344603679e-30 -2.6037836346634288e-29 0.0000000000000000e+00  2.7423452938664075e-29 7.5624107938804476e-29 0.0000000000000000e+00  1.4421484555046933e-29 4.6069796967382766e-29 0.0000000000000000e+00  -1.3656081310197492e-28 -3.6747695262355798e-28 0.0000000000000000e+00  -5.9887589184684171e-29 -1.5851310945656143e-28 0.0000000000000000e+00  -9.0133509038703787e-29 -2.7323876575460585e-28 0.0000000000000000e+00  1.3224473480521922e-28 3.9753807914289377e-28 0.0000000000000000e+00  3.3023938859434115e-28 1.1516847020237651e-27 0.0000000000000000e+00  7.6508159915210056e-29 4.0891470860545418e-29 0.0000000000000000e+00  1.6796815233713863e-28 4.0408945448003377e-28 0.0000000000000000e+00  -3.0641491026455016e-29 -1.6496273696308115e-28 0.0000000000000000e+00  -3.9518358863331888e-28 -1.1601294113257736e-27 0.0000000000000000e+00  -3.8987337239031891e-28 -1.1429228141115112e-27 0.0000000000000000e+00  -7.0266975742585136e-29 -2.9816464981520054e-28 0.0000000000000000e+00  2.6799246304341300e-28 9.1244221206851354e-28 0.0000000000000000e+00  1.8088582945179067e-28 4.8727830014036013e-28 0.0000000000000000e+00  -6.6173595761284662e-30 -2.6876948131334152e-28 0.0000000000000000e+00  9.7653489039952173e-29 1.8354761227972627e-28 0.0000000000000000e+00  -2.4647280041166200e-28 1.0034409484045447e-27 0.0000000000000000e+00  -1.6777573752368368e-28 1.2997138140675567e-27 0.0000000000000000e+00  1.8251952244739521e-28 -7.6716928400164210e-28 0.0000000000000000e+00  -1.2720872493470351e-28 3.6907518377360743e-27 0.0000000000000000e+00  -2.5691243138841944e-28 1.1257260830372281e-29 0.0000000000000000e+00  -4.5281516436969757e-28 -3.1221116601248847e-27 0.0000000000000000e+00  -5.5389775232527461e-28 -1.7551709709678247e-27 0.0000000000000000e+00  -3.7587615319325090e-28 -2.7613876687128780e-27 0.0000000000000000e+00  8.6310932344636359e-29 -7.1015285912315019e-27 0.0000000000000000e+00  2.1315474092177093e-28 -8.1130977796236792e-27 0.0000000000000000e+00  -3.5875598228738502e-29 -1.3662637736561788e-27 0.0000000000000000e+00  -8.8922294412411625e-29 -4.3600519083689397e-27 0.0000000000000000e+00  -1.5082068054462229e-28 -1.5183954716058737e-27 0.0000000000000000e+00  -3.3159304921431864e-29 -2.7519283610206445e-27 0.0000000000000000e+00  -9.9658239178845356e-29 1.5135813583310506e-27 0.0000000000000000e+00  1.1969846344920499e-28 -3.4782464939130593e-27 0.0000000000000000e+00  2.5532693842547874e-28 -3.0618763062050200e-27 0.0000000000000000e+00  -2.3569276579387783e-29 9.3569642902499163e-28 0.0000000000000000e+00  -3.3109231356659913e-28 5.2979591078186978e-27 0.0000000000000000e+00  -2.0106323395334541e-28 2.0534925934817656e-27 0.0000000000000000e+00  -1.9813025077333342e-28 8.4540637261336651e-28 0.0000000000000000e+00  -4.0377532495749335e-28 2.8147995487021523e-27 0.0000000000000000e+00  -2.3024474345808930e-28 1.4606485028519007e-27 0.0000000000000000e+00  2.6051205438785949e-28 -1.9047670225204771e-27 0.0000000000000000e+00  2.0066881936510140e-28 -7.9892623106086821e-28 0.0000000000000000e+00  1.4094838370883566e-29 -2.1973675417657730e-29 0.0000000000000000e+00  1.8454492112158949e-28 -4.5555327531870870e-28 0.0000000000000000e+00  1.1863619516974995e-28 -4.4153610366533415e-28 0.0000000000000000e+00  -1.2023532921041210e-28 4.4996309196577419e-28 0.0000000000000000e+00  -5.1847148808130871e-29 2.7964017127606089e-28 0.0000000000000000e+00  -3.4154235918143492e-29 1.2229311437216381e-28 0.0000000000000000e+00  3.1336578522134077e-29 -1.3116855021299329e-28 0.0000000000000000e+00  1.7906936371908731e-29 -4.7093505349883576e-29 0.0000000000000000e+00  3.8652643892053916e-29 -1.0517505545230678e-28 0.0000000000000000e+00  -1.0818728434363616e-29 2.0522540973921007e-29 0.0000000000000000e+00  -4.7729748763902663e-29 1.1870875422571206e-28 0.0000000000000000e+00  7.6221251186005642e-30 -1.7852256773442985e-29 0.0000000000000000e+00  3.1005139266562135e-30 -7.8790885390946196e-30 0.0000000000000000e+00  -1.1538323186598954e-29 2.1957727478391464e-29 0.0000000000000000e+00  -1.3590370056071262e-30 1.8929609730326504e-30 0.0000000000000000e+00  1.5074574908457498e-30 -2.4514515889084188e-30 0.0000000000000000e+00  -6.9145751044078242e-31 1.0843024690309909e-30 0.0000000000000000e+00  1.1665758673905495e-31 -1.8427173813357348e-31 0.0000000000000000e+00  -1.1584201234467779e-32 1.8682063470027447e-32 0.0000000000000000e+00  -4.1156516373997102e-33 5.2913655616275705e-33 0.0000000000000000e+00  6.8554401625540847e-33 -8.3796717278250604e-33 0.0000000000000000e+00  -2.8293747024266712e-34 4.5012990261322879e-34 0.0000000000000000e+00  -1.6662176561702471e-34 1.5909365556375922e-34 0.0000000000000000e+00  -7.9688135466403849e-37 1.4416803296692800e-35 0.0000000000000000e+00  -1.3277952531367364e-36 1.4638894158992345e-36 0.0000000000000000e+00  2.4018523746878811e-36 -2.6976601184774591e-36 0.0000000000000000e+00  -1.8567385261473508e-36 1.9539016797723607e-36 0.0000000000000000e+00  5.5286140868867358e-37 -6.3072380163788526e-37 0.0000000000000000e+00  -2.6255724539464192e-37 2.7911450254077529e-37 0.0000000000000000e+00  8.4163111599948786e-38 -8.5817739903286061e-38 0.0000000000000000e+00  -1.4942490015000623e-38 1.5552737218279533e-38 0.0000000000000000e+00  5.5228121597466636e-39 -5.5785077084689097e-39 0.0000000000000000e+00  -4.7419389159403462e-40 4.0502894202925948e-40 0.0000000000000000e+00  -1.4162876863971043e-40 1.9361896606760006e-40 0.0000000000000000e+00  1.0996958773391174e-41 -5.8734292944809520e-42 0.0000000000000000e+00  3.8267618392115375e-40 -3.1580198045863266e-40 0.0000000000000000e+00  -8.3569664400547005e-40 6.8319787898532176e-40 0.0000000000000000e+00  2.1997108949740616e-39 -2.1637498203360710e-39 0.0000000000000000e+00  4.5321476366119335e-40 5.6831351968399034e-40 0.0000000000000000e+00  -1.5942610716133404e-38 1.2004573170349728e-38 0.0000000000000000e+00  4.6546065860645734e-38 -3.9942115743038881e-38 0.0000000000000000e+00  -3.7638130208826183e-38 4.3182865618418083e-38 0.0000000000000000e+00  -1.9193155099971490e-37 1.2558212701411559e-37 0.0000000000000000e+00  8.1467972270419322e-37 -6.3065244932878424e-37 0.0000000000000000e+00  -1.0433361573134122e-36 9.3269829370529303e-37 0.0000000000000000e+00  -2.2253390047190443e-36 1.3317474443029032e-36 0.0000000000000000e+00  1.1902325839298149e-35 -8.6669622929300006e-36 0.0000000000000000e+00  -1.8179571462002934e-35 1.4434992832989776e-35 0.0000000000000000e+00  -2.7995275605380280e-35 1.6948987241825844e-35 0.0000000000000000e+00  1.7422062941789997e-34 -1.2177436160861125e-34 0.0000000000000000e+00  -2.2676525784526569e-34 1.6697591086231843e-34 0.0000000000000000e+00  -4.8141374348668710e-34 3.1142321533703183e-34 0.0000000000000000e+00  2.3137334627514368e-33 -1.5568410264110438e-33 0.0000000000000000e+00  -1.7904346348511401e-33 1.2183125869739644e-33 0.0000000000000000e+00  -9.2722422564132756e-33 6.0299386997631524e-33 0.0000000000000000e+00  2.5706888453480247e-32 -1.6390595335735477e-32 0.0000000000000000e+00  7.3031099045671487e-33 -5.2950443069261088e-33 0.0000000000000000e+00  -1.4806380429400643e-31 9.1800416291195797e-32 0.0000000000000000e+00  1.7516552889432920e-31 -9.9350012969142317e-32 0.0000000000000000e+00  5.1759379076952016e-31 -3.1986804691938336e-31 0.0000000000000000e+00  -1.4189476766773093e-30 7.9317653064177678e-31 0.0000000000000000e+00  -9.7746879484690489e-31 6.7647446081579207e-31 0.0000000000000000e+00  7.8268167708483815e-30 -4.2601932025443363e-30 0.0000000000000000e+00  -1.9591238924516128e-30 2.0679543522390749e-31 0.0000000000000000e+00  -3.5226430653248917e-29 1.8728948213880828e-29 0.0000000000000000e+00  2.8885348940325813e-29 -9.6948171996733683e-30 0.0000000000000000e+00  1.4554418810544518e-28 -7.6006933450814968e-29 0.0000000000000000e+00  -1.7039419624832626e-28 5.3932220768803693e-29 0.0000000000000000e+00  -6.1555139879861983e-28 3.0869414227364088e-28 0.0000000000000000e+00  7.0480060356743692e-28 -1.6172613539637452e-28 0.0000000000000000e+00  2.6048494957657484e-27 -1.1977135278638138e-27 0.0000000000000000e+00  -2.2703513813883935e-27 1.6791123327646586e-28 0.0000000000000000e+00  -1.0381015192804391e-26 3.7116607750907038e-27 0.0000000000000000e+00  3.9652281955590994e-27 1.3433642154675274e-27 0.0000000000000000e+00  3.4320352738124998e-26 -8.6722448172941857e-27 0.0000000000000000e+00  1.5338303609161454e-26 -9.9562561682448511e-27 0.0000000000000000e+00  -9.4110998348637703e-26 1.1548733127392541e-26 0.0000000000000000e+00  -1.2846747756843122e-25 1.9706659359353695e-26 0.0000000000000000e+00  1.9856167364390504e-25 -5.2747961467794507e-26 0.0000000000000000e+00  9.7545590086695057e-25 -2.2514249433449780e-25 0.0000000000000000e+00  1.6874334712141522e-24 -3.7164824683608005e-25 0.0000000000000000e+00  1.9543001671860864e-24 -3.7826180551092401e-25 0.0000000000000000e+00  1.8090549215476963e-24 -2.1192703859289934e-25 0.0000000000000000e+00  1.7715517594564200e-24 2.7768608549305313e-26 0.0000000000000000e+00  1.9120788512594539e-24 2.3375048499349949e-25 0.0000000000000000e+00  1.8140063850895884e-24 3.0586851515047317e-25 0.0000000000000000e+00  1.2253703607043817e-24 2.2646592805663361e-25 0.0000000000000000e+00  4.0178776194656150e-25 7.2403471773368926e-26 0.0000000000000000e+00  -1.1740997325273780e-25 -3.0761097558889635e-26 0.0000000000000000e+00  -1.8645783448749652e-25 -3.8933710436028281e-26 0.0000000000000000e+00  -3.1483935584124305e-26 1.8305364854359875e-27 0.0000000000000000e+00  5.6840675578477595e-26 2.2071860497576577e-26 0.0000000000000000e+00  3.4647447036782644e-26 1.1484133383306742e-26 0.0000000000000000e+00  -3.7429891701819294e-27 -1.6370864673761062e-27 0.0000000000000000e+00  -8.9492422978271181e-27 -3.0083391505107404e-27 0.0000000000000000e+00  -3.5806692797513247e-28 1.0404703937867997e-28 0.0000000000000000e+00  2.2664389065244904e-27 8.8405467207601464e-28 0.0000000000000000e+00  1.9623464001107708e-28 2.1508230619320557e-29 0.0000000000000000e+00  -5.5645624325088652e-28 -2.3487246369653868e-28 0.0000000000000000e+00  -3.4983841569417440e-29 -9.1177100896770304e-32 0.0000000000000000e+00  1.3103597578778916e-28 5.8190522818086873e-29 0.0000000000000000e+00  -4.6137669203263799e-30 -6.3903793566670014e-30 0.0000000000000000e+00  -2.8798798182371593e-29 -1.3242177502144502e-29 0.0000000000000000e+00  4.5868510843678276e-30 3.2970834286990274e-30 0.0000000000000000e+00  5.2458889319398948e-30 2.4209611874054175e-30 0.0000000000000000e+00  -1.9769805519411105e-30 -1.2437325633123201e-30 0.0000000000000000e+00  -7.1059038575221642e-31 -2.9911536221834524e-31 0.0000000000000000e+00  5.6914187040928110e-31 3.4604887280376165e-31 0.0000000000000000e+00  1.2543047335983471e-33 -2.2198523721662226e-32 0.0000000000000000e+00  -1.1675336281850806e-31 -7.0041687423859991e-32 0.0000000000000000e+00  3.1157241330442636e-32 2.3661556907148815e-32 0.0000000000000000e+00  1.5185090175570474e-32 8.4371352311806472e-33 0.0000000000000000e+00  -1.1056197940095354e-32 -7.6218995374307112e-33 0.0000000000000000e+00  5.6022277642216851e-34 6.5765609983034203e-34 0.0000000000000000e+00  1.8302518023965281e-33 1.2392886078661556e-33 0.0000000000000000e+00  -7.6977440270561404e-34 -5.7330847509426502e-34 0.0000000000000000e+00  -6.2238588362984143e-35 -3.4978125253322797e-35 0.0000000000000000e+00  1.6573847596122189e-34 1.2306423209759497e-34 0.0000000000000000e+00  -5.3439663559953583e-35 -4.0892469466183998e-35 0.0000000000000000e+00  -7.3267521388044152e-36 -5.9788786675544526e-36 0.0000000000000000e+00  1.1883660476273515e-35 9.4740588989159233e-36 0.0000000000000000e+00  -3.6954078733240790e-36 -2.8587930401875088e-36 0.0000000000000000e+00  -4.1347121166147029e-37 -4.3362364547442482e-37 0.0000000000000000e+00  7.7877459830641167e-37 6.6924548790457667e-37 0.0000000000000000e+00  -2.7357338581943696e-37 -2.1930674194281405e-37 0.0000000000000000e+00  -1.3105047602204464e-39 -1.2687303074615448e-38 0.0000000000000000e+00  4.3253430295157161e-38 4.1393651474871306e-38 0.0000000000000000e+00  -2.0214460619156023e-38 -1.7553103596660954e-38 0.0000000000000000e+00  2.6040784085857183e-39 1.4067313604275230e-39 0.0000000000000000e+00  1.8309080303597743e-39 2.0996551690456411e-39 0.0000000000000000e+00  -1.2652703123980350e-39 -1.2319353663286649e-39 0.0000000000000000e+00  3.5735113556840372e-40 3.0407290022336014e-40 0.0000000000000000e+00  6.1518582126234684e-41 1.0447987497957056e-40 0.0000000000000000e+00  3.0284556605059073e-40 2.8145982116638465e-40 0.0000000000000000e+00  -5.7839254618529426e-40 -7.1602965954782454e-40 0.0000000000000000e+00  1.2520202317323494e-39 1.5296604739533712e-39 0.0000000000000000e+00  -7.6663885470953094e-39 -1.0078131926928589e-38 0.0000000000000000e+00  7.1365162955569990e-38 7.7879076288589587e-38 0.0000000000000000e+00  -2.0640977213795469e-37 -2.0574411269872456e-37 0.0000000000000000e+00  2.7819802541416936e-37 2.9723611525429350e-37 0.0000000000000000e+00  -3.3355196001103792e-36 -3.9680472268175515e-36 0.0000000000000000e+00  8.8012609770762952e-36 1.2214553943839775e-35 0.0000000000000000e+00  -3.1683221115767492e-35 -4.9380203476022043e-35 0.0000000000000000e+00  6.6273117731657357e-35 9.9834700187241669e-35 0.0000000000000000e+00  -5.0387302362615833e-35 -1.1478722516150506e-34 0.0000000000000000e+00  4.8926064415760194e-34 7.6117361012125781e-34 0.0000000000000000e+00  7.1591021453009180e-34 9.0478802561694719e-34 0.0000000000000000e+00  -2.9462928730103143e-34 6.9147833747729001e-34 0.0000000000000000e+00  3.4489922950136442e-32 4.5697352533897899e-32 0.0000000000000000e+00  -1.2234096016877580e-31 -1.6731688403678534e-31 0.0000000000000000e+00  -5.4503852565010684e-31 -7.6731544999045798e-31 0.0000000000000000e+00  1.3617610825372775e-30 1.9479135554315853e-30 0.0000000000000000e+00  -1.0456896152872989e-30 -1.6241054638137150e-30 0.0000000000000000e+00  -3.1061338766271164e-30 -6.1242217371799436e-30 0.0000000000000000e+00  1.0483976837477344e-29 2.4493810397129600e-29 0.0000000000000000e+00  1.2016587383176347e-29 2.8311491997190883e-29 0.0000000000000000e+00  -6.7878135062486098e-29 -1.7201437087687072e-28 0.0000000000000000e+00  1.8977701286269537e-29 4.2465105802505542e-29 0.0000000000000000e+00  8.6298559055287852e-29 1.8468066358792918e-28 0.0000000000000000e+00  1.4088138597393375e-29 6.6589537245683605e-29 0.0000000000000000e+00  1.4330014815284255e-28 5.0117513384873108e-28 0.0000000000000000e+00  7.0086528103994929e-29 2.1802264959039900e-28 0.0000000000000000e+00  -1.1853895719018113e-28 -3.3345285532046664e-28 0.0000000000000000e+00  -3.3902528868174181e-28 -1.2194640896964310e-27 0.0000000000000000e+00  2.0207147897766126e-28 7.2735185427756979e-28 0.0000000000000000e+00  3.0549365499757731e-28 9.4366754109012264e-28 0.0000000000000000e+00  2.7659419855915232e-28 1.2782896519735594e-27 0.0000000000000000e+00  2.7030501493152610e-28 1.3188486118428920e-27 0.0000000000000000e+00  -3.4500280986312525e-28 -1.2912386423090054e-27 0.0000000000000000e+00  1.2435584124198171e-30 4.4520561204221699e-28 0.0000000000000000e+00  6.7636630407282811e-29 4.1637851878084482e-28 0.0000000000000000e+00  -1.3814879151282517e-28 -7.8711121831428848e-28 0.0000000000000000e+00  -8.4462339626243286e-29 -8.6325993619423633e-28 0.0000000000000000e+00  -2.8705816261895861e-28 -3.5094580843517511e-27 0.0000000000000000e+00  -2.9043674813663057e-28 -2.8098168890724491e-27 0.0000000000000000e+00  -1.9499581657701185e-28 -4.4655268275872127e-28 0.0000000000000000e+00  -1.5118502699407761e-28 -1.6380690348065088e-27 0.0000000000000000e+00  8.6110551351873966e-29 -2.2756406557864994e-27 0.0000000000000000e+00  -2.2121093186614281e-28 -5.7253339736683899e-28 0.0000000000000000e+00  -2.1054176883307685e-28 -7.1726275513092026e-28 0.0000000000000000e+00  1.1527517836686106e-28 -2.1398388068785783e-27 0.0000000000000000e+00  2.5071275764509616e-30 -1.3748120362656545e-27 0.0000000000000000e+00  2.1433556229026238e-28 -2.3127695923845688e-27 0.0000000000000000e+00  -2.8433214148156798e-28 5.8012938147699973e-28 0.0000000000000000e+00  -2.7447616777435800e-28 5.5635532900170877e-28 0.0000000000000000e+00  3.6096935841079750e-28 -2.1641394462944602e-27 0.0000000000000000e+00  1.6066337401213310e-28 -1.0305576443784021e-27 0.0000000000000000e+00  3.2414239557782963e-28 -2.0127186882368793e-27 0.0000000000000000e+00  9.2588518328828309e-29 -3.3068690669009198e-28 0.0000000000000000e+00  7.3573734216630115e-29 -5.3954415887822492e-28 0.0000000000000000e+00  3.5277111712291896e-28 -1.8861932471826117e-27 0.0000000000000000e+00  1.9220148139583548e-28 -1.1444187580627933e-27 0.0000000000000000e+00  3.6096175722872439e-28 -2.2061651469679128e-27 0.0000000000000000e+00  5.4619765822847804e-28 -3.3975479404049349e-27 0.0000000000000000e+00  5.9887885084508354e-28 -3.7299171546340942e-27 0.0000000000000000e+00  1.4538365472727151e-28 -7.7695972709350406e-28 0.0000000000000000e+00  -2.6869853120159238e-28 1.6710106869458282e-27 0.0000000000000000e+00  -3.6406765148637663e-28 1.8814888230613033e-27 0.0000000000000000e+00  -3.9104732815325799e-28 1.8416960761704559e-27 0.0000000000000000e+00  -6.7514648143985373e-29 3.0915306046131325e-28 0.0000000000000000e+00  1.1349344135724914e-28 -5.0000194695191088e-28 0.0000000000000000e+00  4.8734663021611239e-29 -2.3269589821379395e-28 0.0000000000000000e+00  2.3381427900684293e-28 -9.4581204836037992e-28 0.0000000000000000e+00  9.9261040328862368e-29 -3.9323299107434107e-28 0.0000000000000000e+00  -1.0142765874725249e-28 3.7288353043319025e-28 0.0000000000000000e+00  3.9296009412542450e-31 -1.3102918482404360e-29 0.0000000000000000e+00  1.4641616773785094e-29 -4.1206615224902750e-29 0.0000000000000000e+00  2.6563955866441723e-29 -7.8603120691442437e-29 0.0000000000000000e+00  -6.7761556127203700e-30 1.8163320102108716e-29 0.0000000000000000e+00  -1.0738283938068899e-29 2.7716050953257958e-29 0.0000000000000000e+00  3.737193