<?xml version="1.0"?>
<VTKFile type="UnstructuredGrid"  version="0.1"  >
<UnstructuredGrid>
<Piece  NumberOfPoints="11902" NumberOfCells="23402">
<Points>
<DataArray  type="Float64"  NumberOfComponents="3"  format="ascii">-5 -5 0  5 -5 0  5 5 0  -5 5 0  1.262611465895939 0.00129484877744381 0  -4.9 -5 0  -4.8 -5 0  -4.7 -5 0  -4.6 -5 0  -4.5 -5 0  -4.4 -5 0  -4.3 -5 0  -4.2 -5 0  -4.1 -5 0  -4 -5 0  -3.9 -5 0  -3.8 -5 0  -3.7 -5 0  -3.6 -5 0  -3.5 -5 0  -3.4 -5 0  -3.3 -5 0  -3.2 -5 0  -3.1 -5 0  -3 -5 0  -2.9 -5 0  -2.8 -5 0  -2.7 -5 0  -2.6 -5 0  -2.5 -5 0  -2.4 -5 0  -2.3 -5 0  -2.2 -5 0  -2.1 -5 0  -2 -5 0  -1.9 -5 0  -1.8 -5 0  -1.7 -5 0  -1.6 -5 0  -1.5 -5 0  -1.4 -5 0  -1.3 -5 0  -1.2 -5 0  -1.1 -5 0  -1 -5 0  -0.9000000000000004 -5 0  -0.7999999999999998 -5 0  -0.7000000000000002 -5 0  -0.5999999999999996 -5 0  -0.5 -5 0  -0.4000000000000004 -5 0  -0.2999999999999998 -5 0  -0.2000000000000002 -5 0  -0.09999999999999964 -5 0  0 -5 0  0.09999999999999964 -5 0  0.2000000000000002 -5 0  0.2999999999999998 -5 0  0.4000000000000004 -5 0  0.5 -5 0  0.5999999999999996 -5 0  0.7000000000000002 -5 0  0.7999999999999998 -5 0  0.9000000000000004 -5 0  1 -5 0  1.1 -5 0  1.2 -5 0  1.3 -5 0  1.4 -5 0  1.5 -5 0  1.6 -5 0  1.7 -5 0  1.8 -5 0  1.9 -5 0  2 -5 0  2.1 -5 0  2.2 -5 0  2.3 -5 0  2.4 -5 0  2.5 -5 0  2.6 -5 0  2.7 -5 0  2.8 -5 0  2.9 -5 0  3 -5 0  3.1 -5 0  3.199999999999999 -5 0  3.300000000000001 -5 0  3.4 -5 0  3.5 -5 0  3.6 -5 0  3.699999999999999 -5 0  3.800000000000001 -5 0  3.9 -5 0  4 -5 0  4.1 -5 0  4.199999999999999 -5 0  4.300000000000001 -5 0  4.4 -5 0  4.5 -5 0  4.6 -5 0  4.699999999999999 -5 0  4.800000000000001 -5 0  4.9 -5 0  5 -4.9 0  5 -4.8 0  5 -4.7 0  5 -4.6 0  5 -4.5 0  5 -4.4 0  5 -4.3 0  5 -4.2 0  5 -4.1 0  5 -4 0  5 -3.9 0  5 -3.8 0  5 -3.7 0  5 -3.6 0  5 -3.5 0  5 -3.4 0  5 -3.3 0  5 -3.2 0  5 -3.1 0  5 -3 0  5 -2.9 0  5 -2.8 0  5 -2.7 0  5 -2.6 0  5 -2.5 0  5 -2.4 0  5 -2.3 0  5 -2.2 0  5 -2.1 0  5 -2 0  5 -1.9 0  5 -1.8 0  5 -1.7 0  5 -1.6 0  5 -1.5 0  5 -1.4 0  5 -1.3 0  5 -1.2 0  5 -1.1 0  5 -1 0  5 -0.9000000000000004 0  5 -0.7999999999999998 0  5 -0.7000000000000002 0  5 -0.5999999999999996 0  5 -0.5 0  5 -0.4000000000000004 0  5 -0.2999999999999998 0  5 -0.2000000000000002 0  5 -0.09999999999999964 0  5 0 0  5 0.09999999999999964 0  5 0.2000000000000002 0  5 0.2999999999999998 0  5 0.4000000000000004 0  5 0.5 0  5 0.5999999999999996 0  5 0.7000000000000002 0  5 0.7999999999999998 0  5 0.9000000000000004 0  5 1 0  5 1.1 0  5 1.2 0  5 1.3 0  5 1.4 0  5 1.5 0  5 1.6 0  5 1.7 0  5 1.8 0  5 1.9 0  5 2 0  5 2.1 0  5 2.2 0  5 2.3 0  5 2.4 0  5 2.5 0  5 2.6 0  5 2.7 0  5 2.8 0  5 2.9 0  5 3 0  5 3.1 0  5 3.199999999999999 0  5 3.300000000000001 0  5 3.4 0  5 3.5 0  5 3.6 0  5 3.699999999999999 0  5 3.800000000000001 0  5 3.9 0  5 4 0  5 4.1 0  5 4.199999999999999 0  5 4.300000000000001 0  5 4.4 0  5 4.5 0  5 4.6 0  5 4.699999999999999 0  5 4.800000000000001 0  5 4.9 0  4.9 5 0  4.8 5 0  4.7 5 0  4.6 5 0  4.5 5 0  4.4 5 0  4.3 5 0  4.2 5 0  4.1 5 0  4 5 0  3.9 5 0  3.8 5 0  3.7 5 0  3.6 5 0  3.5 5 0  3.4 5 0  3.3 5 0  3.2 5 0  3.1 5 0  3 5 0  2.9 5 0  2.8 5 0  2.7 5 0  2.6 5 0  2.5 5 0  2.4 5 0  2.3 5 0  2.2 5 0  2.1 5 0  2 5 0  1.9 5 0  1.8 5 0  1.7 5 0  1.6 5 0  1.5 5 0  1.4 5 0  1.3 5 0  1.2 5 0  1.1 5 0  1 5 0  0.9000000000000004 5 0  0.7999999999999998 5 0  0.7000000000000002 5 0  0.5999999999999996 5 0  0.5 5 0  0.4000000000000004 5 0  0.2999999999999998 5 0  0.2000000000000002 5 0  0.09999999999999964 5 0  0 5 0  -0.09999999999999964 5 0  -0.2000000000000002 5 0  -0.2999999999999998 5 0  -0.4000000000000004 5 0  -0.5 5 0  -0.5999999999999996 5 0  -0.7000000000000002 5 0  -0.7999999999999998 5 0  -0.9000000000000004 5 0  -1 5 0  -1.1 5 0  -1.2 5 0  -1.3 5 0  -1.4 5 0  -1.5 5 0  -1.6 5 0  -1.7 5 0  -1.8 5 0  -1.9 5 0  -2 5 0  -2.1 5 0  -2.2 5 0  -2.3 5 0  -2.4 5 0  -2.5 5 0  -2.6 5 0  -2.7 5 0  -2.8 5 0  -2.9 5 0  -3 5 0  -3.1 5 0  -3.199999999999999 5 0  -3.300000000000001 5 0  -3.4 5 0  -3.5 5 0  -3.6 5 0  -3.699999999999999 5 0  -3.800000000000001 5 0  -3.9 5 0  -4 5 0  -4.1 5 0  -4.199999999999999 5 0  -4.300000000000001 5 0  -4.4 5 0  -4.5 5 0  -4.6 5 0  -4.699999999999999 5 0  -4.800000000000001 5 0  -4.9 5 0  -5 4.9 0  -5 4.8 0  -5 4.7 0  -5 4.6 0  -5 4.5 0  -5 4.4 0  -5 4.3 0  -5 4.2 0  -5 4.1 0  -5 4 0  -5 3.9 0  -5 3.8 0  -5 3.7 0  -5 3.6 0  -5 3.5 0  -5 3.4 0  -5 3.3 0  -5 3.2 0  -5 3.1 0  -5 3 0  -5 2.9 0  -5 2.8 0  -5 2.7 0  -5 2.6 0  -5 2.5 0  -5 2.4 0  -5 2.3 0  -5 2.2 0  -5 2.1 0  -5 2 0  -5 1.9 0  -5 1.8 0  -5 1.7 0  -5 1.6 0  -5 1.5 0  -5 1.4 0  -5 1.3 0  -5 1.2 0  -5 1.1 0  -5 1 0  -5 0.9000000000000004 0  -5 0.7999999999999998 0  -5 0.7000000000000002 0  -5 0.5999999999999996 0  -5 0.5 0  -5 0.4000000000000004 0  -5 0.2999999999999998 0  -5 0.2000000000000002 0  -5 0.09999999999999964 0  -5 0 0  -5 -0.09999999999999964 0  -5 -0.2000000000000002 0  -5 -0.2999999999999998 0  -5 -0.4000000000000004 0  -5 -0.5 0  -5 -0.5999999999999996 0  -5 -0.7000000000000002 0  -5 -0.7999999999999998 0  -5 -0.9000000000000004 0  -5 -1 0  -5 -1.1 0  -5 -1.2 0  -5 -1.3 0  -5 -1.4 0  -5 -1.5 0  -5 -1.6 0  -5 -1.7 0  -5 -1.8 0  -5 -1.9 0  -5 -2 0  -5 -2.1 0  -5 -2.2 0  -5 -2.3 0  -5 -2.4 0  -5 -2.5 0  -5 -2.6 0  -5 -2.7 0  -5 -2.8 0  -5 -2.9 0  -5 -3 0  -5 -3.1 0  -5 -3.199999999999999 0  -5 -3.300000000000001 0  -5 -3.4 0  -5 -3.5 0  -5 -3.6 0  -5 -3.699999999999999 0  -5 -3.800000000000001 0  -5 -3.9 0  -5 -4 0  -5 -4.1 0  -5 -4.199999999999999 0  -5 -4.300000000000001 0  -5 -4.4 0  -5 -4.5 0  -5 -4.6 0  -5 -4.699999999999999 0  -5 -4.800000000000001 0  -5 -4.9 0  1.254406537466559 0.0939911662308946 0  1.232395662044018 0.1917565791690787 0  1.198834895065781 0.2883344251040998 0  1.156033509478575 0.3767421103888071 0  1.097689123054039 0.4677200667981348 0  1.031506393725511 0.5516077622486629 0  0.9529033399590168 0.6318599689098825 0  0.8657423770586077 0.7067390228267025 0  0.7739029760058651 0.7721212880182409 0  0.6716490270023013 0.8295287444280627 0  0.5589480877816868 0.881770665382076 0  0.4459253634148863 0.9265494694621558 0  0.3342396408442824 0.9584433419350601 0  0.2087647958345652 0.9803535219458543 0  0.0883278321404778 0.9992161721403792 0  -0.02670506150235424 1.002625331598344 0  -0.1443684753535248 0.9888251746567446 0  -0.2729691836706982 0.9694271778157391 0  -0.3926596221584164 0.9453059375165357 0  -0.5028144909400502 0.909695201185988 0  -0.6124666708684472 0.8632240076896804 0  -0.7145552156281264 0.8083421755833052 0  -0.8091987123582562 0.7435746706352635 0  -0.9006198902076472 0.6698253082263474 0  -0.9868099829662216 0.5897564685240727 0  -1.061555434035889 0.5084212016643631 0  -1.123519126355432 0.4235544246710282 0  -1.177751274888563 0.3306007489505327 0  -1.215477643163943 0.2426231310433917 0  -1.239917892903956 0.1486332731740442 0  -1.250538288925433 0.05211432863264442 0  -1.250498113970971 -0.04986015936784615 0  -1.239883699744726 -0.145652260827962 0  -1.215088173759938 -0.2372941241993864 0  -1.173215186163748 -0.3322384876919829 0  -1.123845174734418 -0.4243399364636172 0  -1.063439480781241 -0.5083141086064208 0  -0.9893156187201805 -0.5887649056341056 0  -0.9037543622446832 -0.6677700545631958 0  -0.8130216670775682 -0.7393961778214601 0  -0.7173304827355401 -0.8002947718032885 0  -0.6125733549700035 -0.8534911468328744 0  -0.497699982373133 -0.9031327065625001 0  -0.3849932356712186 -0.9430526285981211 0  -0.2696333840802858 -0.9692267163460561 0  -0.1427517994504341 -0.9887843019595335 0  -0.02770992228021729 -1.001858145159756 0  0.08723694794011518 -0.9944761612217589 0  0.2148086958311907 -0.9766170135909591 0  0.3370104860457407 -0.956756373787652 0  0.4501030935592904 -0.9252279857574016 0  0.5615062082258906 -0.8810111371085426 0  0.6727783540508531 -0.829480440344644 0  0.7738054075528689 -0.7732558667432904 0  0.8655037181089258 -0.7080118143868183 0  0.9514391696004381 -0.6322258111592652 0  1.028964024870703 -0.5504246767230855 0  1.098862594444981 -0.4664221394714372 0  1.156832395018887 -0.3771641033318431 0  1.200593842554684 -0.286400247201484 0  1.233109775839657 -0.190981923981374 0  1.25480818678489 -0.09388825354115038 0  -2.448536332292976 4.918069169258754 0  -2.448408118768372 -4.910443297178679 0  4.910366097149415 2.447857593531351 0  4.918497561342885 -2.449322632307985 0  2.446133451296156 -4.895666074652663 0  2.440567919860814 4.899430658764958 0  -4.910393385562628 -2.447884359251206 0  -4.910390657898186 2.447888417006781 0  -1.748489405499322 4.910936929535072 0  -1.744276985556092 -4.914380961028811 0  4.920528309179613 1.744035928555358 0  4.909047152317121 -1.7477922565888 0  -4.909341995761211 -1.747526888646757 0  -4.910165270839654 1.747272324553093 0  1.74576033120013 4.904787460312054 0  1.747170103877719 -4.892921640779567 0  -1.148805636881244 4.90870357456647 0  -1.129665451361249 -4.916628789789498 0  -4.909032353684407 -1.147862279278367 0  -4.908850347267186 1.147662902642412 0  1.143802440995426 -4.912808090138467 0  1.148815458642581 4.908689892203483 0  4.909171536737428 1.146137226060375 0  4.920022490288597 -1.151927049868157 0  -0.5466500095525461 -4.909883404086379 0  -0.5464347501275291 4.918581648785068 0  -4.907742977699659 -0.5486720298339158 0  -4.907766940921984 0.5472301760931747 0  4.907059719411032 -0.5489900488182798 0  4.918741105725291 0.5457519549102395 0  0.5424306487067517 -4.896739518277243 0  0.5511626151378793 4.915399063127011 0  -4.911840005342498 -3.04824901829264 0  4.918414670958567 3.046268078678599 0  4.911347353458746 -3.048224160415238 0  -4.912688182979413 3.045341063351443 0  3.055265350779406 -4.917336509301611 0  -3.048593447485407 -4.911268739092297 0  3.052161560429474 4.913347547792057 0  -3.048039434584227 4.912159085412328 0  -4.906842880118755 -0.04990404989579519 0  0.0451186797460565 -4.91183235453749 0  0.04956589634423903 4.91887137021225 0  4.913912338654328 -0.05128660620228021 0  3.545591352386029 -4.918994571398534 0  -3.54886940934398 4
[...]
<PointData  Vectors="f_5610"> 
<DataArray  type="Float64"  Name="f_5610"  NumberOfComponents="3" format="ascii">1.5954689386163758e-41 -3.1877378213480589e-41 0.0000000000000000e+00  6.8913266171633435e-42 -2.6578913923062133e-41 0.0000000000000000e+00  -6.4225157099813543e-41 -5.9911852019416916e-41 0.0000000000000000e+00  -5.8868948048004527e-41 7.4351123871010715e-41 0.0000000000000000e+00  1.1341164719582938e+01 3.9267251219894670e-03 0.0000000000000000e+00  6.2414088254681594e-42 7.9529359795478512e-41 0.0000000000000000e+00  1.7546318303678714e-40 9.6166712107069005e-41 0.0000000000000000e+00  -3.3319781181994075e-40 -5.7053232367161596e-41 0.0000000000000000e+00  1.1780940342618289e-39 2.8195251900688791e-39 0.0000000000000000e+00  -1.9715703371973273e-39 -5.3669959732908867e-39 0.0000000000000000e+00  -3.8274236904425495e-38 2.1437128290295911e-39 0.0000000000000000e+00  1.9832611542034603e-37 6.6810808275712448e-38 0.0000000000000000e+00  -3.9366706632430496e-37 1.5997552037449756e-37 0.0000000000000000e+00  -2.3070691803311018e-36 -4.4467441629053650e-36 0.0000000000000000e+00  1.1334067959807642e-35 1.6185892431293902e-35 0.0000000000000000e+00  -6.4995249631771201e-35 -4.9853204659300780e-35 0.0000000000000000e+00  1.9796000207229020e-34 1.2647495265597638e-34 0.0000000000000000e+00  8.1733850819851720e-34 6.7007770003887495e-34 0.0000000000000000e+00  -1.2603231368734696e-33 -9.8056525833658036e-34 0.0000000000000000e+00  -4.2146152247541858e-33 -4.4924916671940569e-33 0.0000000000000000e+00  6.9223837149507832e-33 9.4747242636149439e-33 0.0000000000000000e+00  -1.5820670770451333e-33 -8.3535306790609461e-33 0.0000000000000000e+00  -5.7164251010582912e-32 -7.5432512016544951e-32 0.0000000000000000e+00  3.0237779020537096e-31 4.1854648014733195e-31 0.0000000000000000e+00  -2.2983687776507056e-31 -2.9612679173912385e-31 0.0000000000000000e+00  -9.6678583409845040e-31 -1.2824608695630820e-30 0.0000000000000000e+00  4.1827223005939722e-31 3.8429354364078282e-31 0.0000000000000000e+00  -1.3101532416273616e-30 -4.4202259251823739e-31 0.0000000000000000e+00  3.7843644840680005e-30 3.0592954896214319e-30 0.0000000000000000e+00  1.0862588208241175e-31 -7.6484759058448762e-30 0.0000000000000000e+00  3.6663795224985791e-30 4.7545337212768523e-29 0.0000000000000000e+00  -1.7483816603782320e-29 -4.6336939266921714e-29 0.0000000000000000e+00  -6.8994654053256128e-29 -3.0462413812203655e-28 0.0000000000000000e+00  3.6640522542990788e-29 1.8225528510335599e-28 0.0000000000000000e+00  8.8892370922293491e-29 6.5343413093811372e-28 0.0000000000000000e+00  1.0635924342035008e-29 -2.3998119979200161e-28 0.0000000000000000e+00  4.8850181001372286e-29 -5.5405541246746231e-30 0.0000000000000000e+00  -1.9271404527940417e-29 -1.4411377827277964e-28 0.0000000000000000e+00  -1.7580083678723625e-28 -2.8958878686712496e-28 0.0000000000000000e+00  -1.4914482632838884e-28 -1.4896825534503986e-28 0.0000000000000000e+00  1.3314401661456290e-28 3.2924571598255354e-28 0.0000000000000000e+00  3.5378521153790111e-28 7.0769639845138201e-28 0.0000000000000000e+00  2.7787078108748186e-28 4.7171303581635883e-28 0.0000000000000000e+00  1.3743437032798749e-28 1.6630340599372076e-28 0.0000000000000000e+00  1.2937102020899724e-28 1.2567193644922173e-28 0.0000000000000000e+00  -4.7431191684765785e-28 2.0117332983774096e-28 0.0000000000000000e+00  -2.4209507708680802e-28 7.6146779508167822e-28 0.0000000000000000e+00  2.1913784321205504e-28 -4.4215355631905539e-28 0.0000000000000000e+00  1.1192208291675832e-29 2.9005363125315093e-27 0.0000000000000000e+00  -2.6176983608715670e-28 7.0229534005915726e-29 0.0000000000000000e+00  -6.1355462988665719e-28 -2.3204958311382123e-27 0.0000000000000000e+00  -6.4047133306318435e-28 -9.8709441329848841e-28 0.0000000000000000e+00  -4.0465030187094446e-28 -1.8219754368039917e-27 0.0000000000000000e+00  -9.2713452147237069e-29 -5.8019579108052105e-27 0.0000000000000000e+00  -1.9581461194560125e-29 -6.6413204285058059e-27 0.0000000000000000e+00  -9.3502890894890812e-29 -9.4527197688986666e-28 0.0000000000000000e+00  -1.6721682893652074e-28 -3.0752627188857205e-27 0.0000000000000000e+00  -9.3796236245271661e-29 -6.3267041102534777e-28 0.0000000000000000e+00  -6.8442457499025112e-29 -1.7828433720836326e-27 0.0000000000000000e+00  -5.5968043270207531e-29 1.4914567696849404e-27 0.0000000000000000e+00  1.0518990943972857e-28 -2.2307618122542846e-27 0.0000000000000000e+00  2.3451818133205457e-28 -2.0768572215312445e-27 0.0000000000000000e+00  -3.2368189537927939e-29 7.4540039790788534e-28 0.0000000000000000e+00  -2.8097111016691198e-28 3.8721920746921378e-27 0.0000000000000000e+00  -1.6749589077914865e-28 1.5399241844825685e-27 0.0000000000000000e+00  -1.5455411177568395e-28 7.4525482796481726e-28 0.0000000000000000e+00  -3.1229235899663103e-28 2.1839191044755990e-27 0.0000000000000000e+00  -1.7341136499445501e-28 1.1733596164534602e-27 0.0000000000000000e+00  1.8730206614201030e-28 -1.4159528448128797e-27 0.0000000000000000e+00  1.3507883534605553e-28 -6.5467060957334950e-28 0.0000000000000000e+00  1.5413249075981315e-29 -7.0882034776188585e-29 0.0000000000000000e+00  1.2421001111584674e-28 -4.6841677750142479e-28 0.0000000000000000e+00  7.7625304059392523e-29 -3.7931162160796459e-28 0.0000000000000000e+00  -7.2994340993851909e-29 3.5340454466967989e-28 0.0000000000000000e+00  -2.3779686511492515e-29 2.0183227648042300e-28 0.0000000000000000e+00  -2.3065092218169939e-29 9.1626235991480936e-29 0.0000000000000000e+00  9.6624793346259517e-30 -7.1546564592053301e-29 0.0000000000000000e+00  1.1276909082495589e-29 -2.2162050793508106e-29 0.0000000000000000e+00  1.3786167961585551e-29 -3.3246427394977777e-29 0.0000000000000000e+00  4.4230117667495924e-30 -1.2148214445876048e-29 0.0000000000000000e+00  -2.2522212038257710e-30 6.4264715448247177e-30 0.0000000000000000e+00  3.9154760172531140e-31 -1.3635095044289308e-30 0.0000000000000000e+00  -1.7246625968342726e-31 5.9303874368976922e-31 0.0000000000000000e+00  1.7565129820803941e-30 -3.5322459411656425e-30 0.0000000000000000e+00  2.9312838692408974e-31 -5.5318300012296525e-31 0.0000000000000000e+00  -2.5491113715320517e-31 4.9192031450183394e-31 0.0000000000000000e+00  1.3936141074959556e-31 -2.2791515427578546e-31 0.0000000000000000e+00  9.6867955546034117e-33 4.7800593201295042e-33 0.0000000000000000e+00  -1.1337073403011882e-34 -1.3929038807754849e-33 0.0000000000000000e+00  -3.1493336819976441e-33 3.0487120259490201e-33 0.0000000000000000e+00  1.6814274234684362e-33 -1.6734993382054759e-33 0.0000000000000000e+00  -4.6884223272614421e-34 4.3492779074828587e-34 0.0000000000000000e+00  1.3564070958740130e-34 -1.2169764866637074e-34 0.0000000000000000e+00  -4.4639725246584580e-35 4.5680498014307333e-35 0.0000000000000000e+00  1.3162581505441279e-35 -1.1190180727412121e-35 0.0000000000000000e+00  -3.8594284410605565e-37 2.0486029471993624e-37 0.0000000000000000e+00  -1.2267085084946469e-36 1.0919720796512678e-36 0.0000000000000000e+00  3.7053195127299079e-37 -3.5354241004742349e-37 0.0000000000000000e+00  -1.7283003036425020e-37 1.5852246711086013e-37 0.0000000000000000e+00  5.4360723766482201e-38 -4.8785668158458266e-38 0.0000000000000000e+00  -9.0318703472642851e-39 8.0533560789550766e-39 0.0000000000000000e+00  3.0252778461034703e-39 -2.8813923568915590e-39 0.0000000000000000e+00  -3.3484437604561592e-40 2.7373437348542485e-40 0.0000000000000000e+00  -1.4633991578803477e-41 5.1891719667840879e-41 0.0000000000000000e+00  1.1982715002503108e-41 -1.1085644124544208e-41 0.0000000000000000e+00  2.6081747009648491e-40 -2.1515990926310921e-40 0.0000000000000000e+00  -5.6960672627774108e-40 4.5893210490389848e-40 0.0000000000000000e+00  9.4878962247488116e-40 -1.1135909387429177e-39 0.0000000000000000e+00  1.8506635312387621e-39 -4.1870971876126491e-40 0.0000000000000000e+00  -1.2658781256360860e-38 8.6168183598821286e-39 0.0000000000000000e+00  2.8324084389790197e-38 -2.4146612466479685e-38 0.0000000000000000e+00  -3.1932942865315804e-39 1.7937811624660256e-38 0.0000000000000000e+00  -1.8455476696090635e-37 1.0289026106287674e-37 0.0000000000000000e+00  6.0011819690041211e-37 -4.2230701049261209e-37 0.0000000000000000e+00  -5.2929080548093569e-37 5.2848006008258021e-37 0.0000000000000000e+00  -2.3250497993496187e-36 1.1554008806024330e-36 0.0000000000000000e+00  9.4638150185847318e-36 -6.0734510914787827e-36 0.0000000000000000e+00  -1.2103150611157801e-35 9.2806815617951373e-36 0.0000000000000000e+00  -2.7579109010596767e-35 1.3757944903278514e-35 0.0000000000000000e+00  1.4121400089918974e-34 -8.6969047794234431e-35 0.0000000000000000e+00  -1.6957899446744411e-34 1.1590786449245218e-34 0.0000000000000000e+00  -4.0629754336978701e-34 2.2687460868516331e-34 0.0000000000000000e+00  1.8659292452260760e-33 -1.1280737408618784e-33 0.0000000000000000e+00  -1.5000498700436646e-33 9.3293347910537037e-34 0.0000000000000000e+00  -7.1740009212937243e-33 4.2823634299267832e-33 0.0000000000000000e+00  2.0857266951696754e-32 -1.2243805519731258e-32 0.0000000000000000e+00  2.4066051697848987e-33 -2.5200076502219187e-33 0.0000000000000000e+00  -1.1212283114463509e-31 6.6739142160531822e-32 0.0000000000000000e+00  1.5235267890622397e-31 -7.9866396418697973e-32 0.0000000000000000e+00  3.4966380321847803e-31 -2.2380972581632847e-31 0.0000000000000000e+00  -1.0990727912269020e-30 5.9754553662142650e-31 0.0000000000000000e+00  -4.6033532524065704e-31 4.4052876783050141e-31 0.0000000000000000e+00  5.5872781959614167e-30 -3.0975443497816520e-30 0.0000000000000000e+00  -2.5057697318060169e-30 2.6087968032714677e-31 0.0000000000000000e+00  -2.3525665540487858e-29 1.3254513217312563e-29 0.0000000000000000e+00  2.4171272037433766e-29 -6.6582735716341015e-30 0.0000000000000000e+00  9.1718784642890822e-29 -5.2076398928140352e-29 0.0000000000000000e+00  -1.3222543269740121e-28 3.4823912569226177e-29 0.0000000000000000e+00  -3.7248098642155424e-28 2.0048761156798089e-28 0.0000000000000000e+00  5.6930241661168039e-28 -1.1132502229626371e-28 0.0000000000000000e+00  1.5578752799953567e-27 -7.3037448771792484e-28 0.0000000000000000e+00  -2.1406583038344793e-27 2.6165997736411230e-28 0.0000000000000000e+00  -6.9431466958853427e-27 2.4316518240452710e-27 0.0000000000000000e+00  5.7310362516884659e-27 -8.1246741914901977e-29 0.0000000000000000e+00  2.7094784255009275e-26 -7.1793406991762398e-27 0.0000000000000000e+00  6.9042041175074296e-27 -6.3496936077228736e-27 0.0000000000000000e+00  -8.0017201673898354e-26 1.1039212386628172e-26 0.0000000000000000e+00  -9.4399620835585498e-26 1.4460923353678250e-26 0.0000000000000000e+00  1.8874315576448783e-25 -4.5817226764720280e-26 0.0000000000000000e+00  8.1907065729861971e-25 -1.7709413004717020e-25 0.0000000000000000e+00  1.3373851008116980e-24 -2.7719541376479009e-25 0.0000000000000000e+00  1.4104527181262400e-24 -2.6984003016821628e-25 0.0000000000000000e+00  1.1113459726703815e-24 -1.5082928586798181e-25 0.0000000000000000e+00  9.4378910932191843e-25 1.1203219640208737e-27 0.0000000000000000e+00  1.0593435476884904e-24 1.2610840149028804e-25 0.0000000000000000e+00  1.1253278797897478e-24 1.7568250442769314e-25 0.0000000000000000e+00  8.4303014083014275e-25 1.3579198703232506e-25 0.0000000000000000e+00  3.1680534808735644e-25 4.2739585786761930e-26 0.0000000000000000e+00  -5.5604799483308035e-26 -2.5315288736756900e-26 0.0000000000000000e+00  -1.2555301469694262e-25 -3.2195408045776358e-26 0.0000000000000000e+00  -2.6952452487962630e-26 -3.1319928904163679e-27 0.0000000000000000e+00  3.6271723430230306e-26 1.3988962160720548e-26 0.0000000000000000e+00  2.5084004152453263e-26 9.1993003370782063e-27 0.0000000000000000e+00  -1.6625072566925674e-28 4.4753220362871324e-28 0.0000000000000000e+00  -5.0521818911337054e-27 -1.4564072635337522e-27 0.0000000000000000e+00  -4.8782115901897929e-28 -8.7154591428521386e-29 0.0000000000000000e+00  1.1339282973355961e-27 3.5991742334475327e-28 0.0000000000000000e+00  9.3733203289833019e-29 -2.2521283809036379e-29 0.0000000000000000e+00  -2.8374382661613347e-28 -1.1219649657333094e-28 0.0000000000000000e+00  -6.8820234968842742e-30 1.3777688148849144e-29 0.0000000000000000e+00  6.9124291514890560e-29 3.1167134996099543e-29 0.0000000000000000e+00  -5.4569694548650673e-30 -6.3857255496892378e-30 0.0000000000000000e+00  -1.5395610450827704e-29 -7.3142600491581638e-30 0.0000000000000000e+00  2.9813893998554781e-30 2.2314879774002735e-30 0.0000000000000000e+00  2.8120623333235121e-30 1.3258780742542180e-30 0.0000000000000000e+00  -1.1398561548475936e-30 -7.1950011944144724e-31 0.0000000000000000e+00  -3.8392947931429410e-31 -1.6465459637756069e-31 0.0000000000000000e+00  3.1995764889234131e-31 1.8801437599414249e-31 0.0000000000000000e+00  2.0892771312778524e-34 -9.9810867776462485e-33 0.0000000000000000e+00  -6.5752340240620760e-32 -3.6881320881911228e-32 0.0000000000000000e+00  1.7585403313612274e-32 1.1693235767756275e-32 0.0000000000000000e+00  8.5166723915227748e-33 4.3920993093993356e-33 0.0000000000000000e+00  -6.2672902644955432e-33 -3.7381614270251909e-33 0.0000000000000000e+00  3.8441755593872330e-34 3.1447440968388708e-34 0.0000000000000000e+00  1.0067968891961790e-33 5.8270716262522633e-34 0.0000000000000000e+00  -4.5048874330305905e-34 -2.7279521940524660e-34 0.0000000000000000e+00  -1.6550153785285987e-35 -8.7685930079842811e-36 0.0000000000000000e+00  8.9069909094511893e-35 5.3994677139498254e-35 0.0000000000000000e+00  -3.3166169915419648e-35 -1.9857630891772372e-35 0.0000000000000000e+00  -1.3555613832274496e-36 -1.2526058937539770e-36 0.0000000000000000e+00  6.0600772596896998e-36 3.8632398711661786e-36 0.0000000000000000e+00  -2.3866159077246310e-36 -1.4312733532385693e-36 0.0000000000000000e+00  6.7842579035951472e-38 -1.9052647884249005e-38 0.0000000000000000e+00  3.4626874886944086e-37 2.4082583691746231e-37 0.0000000000000000e+00  -1.6772695070165731e-37 -1.0568613236323350e-37 0.0000000000000000e+00  2.5193848739174254e-38 1.0932550900603131e-38 0.0000000000000000e+00  1.3384213025998697e-38 1.1336824596023351e-38 0.0000000000000000e+00  -1.0327787590021233e-38 -7.2685354301580885e-39 0.0000000000000000e+00  3.0070177084309060e-39 1.7605462584385773e-39 0.0000000000000000e+00  2.2511022624182120e-41 2.2803017995678520e-40 0.0000000000000000e+00  -4.3510742884665782e-40 -3.7409837020952979e-40 0.0000000000000000e+00  2.0693131592579201e-40 1.5173699890810641e-40 0.0000000000000000e+00  -4.8694496832868256e-41 -2.1943372064865141e-41 0.0000000000000000e+00  1.3122920059477690e-40 1.1559197186365044e-40 0.0000000000000000e+00  7.0517154376852535e-42 -5.4367865981570401e-41 0.0000000000000000e+00  4.7358320673215480e-41 1.4555467399755276e-40 0.0000000000000000e+00  1.1984969362389042e-39 -7.6453488467753221e-41 0.0000000000000000e+00  9.6209620733761575e-39 1.5287864676803071e-38 0.0000000000000000e+00  -4.2099962220466395e-38 -5.9747412989492882e-38 0.0000000000000000e+00  2.5490261269615176e-38 6.5301263892463104e-38 0.0000000000000000e+00  -3.1970645005277377e-37 -6.2763889003054106e-37 0.0000000000000000e+00  1.9441311157324654e-37 7.7754111577113409e-37 0.0000000000000000e+00  3.3347525331602332e-37 -7.6115577500173060e-37 0.0000000000000000e+00  1.2357199588748550e-35 1.1740256086043924e-35 0.0000000000000000e+00  -5.2252511312976407e-35 -3.2498481595594737e-35 0.0000000000000000e+00  1.8326277652680406e-34 1.8623315499031474e-34 0.0000000000000000e+00  -3.1134645760068463e-34 -2.3612978975438241e-34 0.0000000000000000e+00  1.1503064685307532e-35 -5.1141630768295889e-34 0.0000000000000000e+00  8.7346277042433940e-33 1.2933067682007438e-32 0.0000000000000000e+00  -3.0401939310595948e-32 -4.2812984039793583e-32 0.0000000000000000e+00  -1.3697009511637818e-31 -1.9390002844313783e-31 0.0000000000000000e+00  3.4836813631050345e-31 4.8299638862550009e-31 0.0000000000000000e+00  -2.9807920796174922e-31 -3.1609816556531661e-31 0.0000000000000000e+00  -5.2500039793180379e-31 -8.5482654018604993e-31 0.0000000000000000e+00  1.3195456786293456e-30 1.9284250576368662e-30 0.0000000000000000e+00  1.1383521691245802e-30 7.1870555766274342e-31 0.0000000000000000e+00  -4.3811273808331573e-30 -6.4750240864519056e-30 0.0000000000000000e+00  2.3861992856146262e-30 2.1216241944967766e-30 0.0000000000000000e+00  -8.0472710014789132e-30 -9.1124950537000279e-29 0.0000000000000000e+00  1.5869450738587584e-29 1.0521411763659358e-28 0.0000000000000000e+00  9.1068482677902717e-29 5.0323640281626696e-28 0.0000000000000000e+00  3.0251348624912936e-29 1.4941637143891662e-28 0.0000000000000000e+00  -6.9699482439198391e-29 -2.4853215822649525e-28 0.0000000000000000e+00  -1.7139386182751981e-28 -1.0432157241724748e-27 0.0000000000000000e+00  1.4248989234194285e-28 7.8495546394837350e-28 0.0000000000000000e+00  2.2627857800429622e-28 1.3068538007220762e-27 0.0000000000000000e+00  2.0683671745339008e-28 1.1601944618555304e-27 0.0000000000000000e+00  1.1950513365043503e-28 6.7488247782786831e-28 0.0000000000000000e+00  -3.6709229231060606e-28 -2.1785617025714387e-27 0.0000000000000000e+00  -7.1781809594243661e-29 -5.0199896304895899e-28 0.0000000000000000e+00  -3.0370158850989404e-29 -1.6794928229447116e-28 0.0000000000000000e+00  -2.2264763514793287e-28 -1.3638076766280682e-27 0.0000000000000000e+00  -2.0281782691261186e-28 -1.3033136943559215e-27 0.0000000000000000e+00  -2.9145130406848269e-28 -2.5896196200453965e-27 0.0000000000000000e+00  -1.4205754214459367e-28 -1.3517616988299252e-27 0.0000000000000000e+00  1.0097939830403985e-28 9.1305789671339190e-28 0.0000000000000000e+00  -2.0652912036952518e-29 -6.9706247447424158e-28 0.0000000000000000e+00  -4.9582993604059966e-29 -2.4972811390860022e-27 0.0000000000000000e+00  -9.8422046446663902e-29 3.3862377661148776e-28 0.0000000000000000e+00  -8.0388479139340329e-29 1.7312499134510157e-28 0.0000000000000000e+00  7.2531598511171355e-29 -1.9560986930953557e-27 0.0000000000000000e+00  6.8527916967676161e-30 -9.3646160825713066e-28 0.0000000000000000e+00  2.1909775482412351e-28 -2.0838763387685932e-27 0.0000000000000000e+00  -3.7269413585743113e-28 1.4137249883327644e-27 0.0000000000000000e+00  -3.4291422048909474e-28 1.3530673182787263e-27 0.0000000000000000e+00  3.2592286469620457e-28 -2.0005242535434454e-27 0.0000000000000000e+00  9.4755072106797317e-29 -6.4154783985077752e-28 0.0000000000000000e+00  3.6620460137156388e-28 -2.0489551068969835e-27 0.0000000000000000e+00  -1.0174873785847983e-28 6.4817205375183037e-28 0.0000000000000000e+00  -5.2435404035619127e-29 1.4780975343451147e-28 0.0000000000000000e+00  2.4381976517747129e-28 -1.0332010297576186e-27 0.0000000000000000e+00  9.1390221986849521e-29 -4.9747613782352098e-28 0.0000000000000000e+00  3.8382266276049641e-28 -2.1123951016424635e-27 0.0000000000000000e+00  4.5872819273153816e-28 -2.7158458672062554e-27 0.0000000000000000e+00  5.3532158146733263e-28 -3.4389542697563452e-27 0.0000000000000000e+00  1.3358289055992659e-28 -8.9857381469604933e-28 0.0000000000000000e+00  -1.7643125945528101e-28 1.0928073216333478e-27 0.0000000000000000e+00  -2.4182529537878203e-28 1.7944342002561717e-27 0.0000000000000000e+00  -2.5267146994192237e-28 1.8888848034128870e-27 0.0000000000000000e+00  -5.5949882193707655e-29 3.7770926634393183e-28 0.0000000000000000e+00  5.7811966579115731e-29 -4.6103953275831809e-28 0.0000000000000000e+00  3.6449068135658379e-29 -2.2343632382460072e-28 0.0000000000000000e+00  1.6204221728703145e-28 -9.4641071122362646e-28 0.0000000000000000e+00  5.3440931919235108e-29 -3.0726628710685614e-28 0.0000000000000000e+00  -6.6542011115414611e-29 3.7962102766825466e-28 0.0000000000000000e+00  1.6463377318454028e-29 -1.1004825649096024e-28 0.0000000000000000e+00  1.8284755581152239e-30 -5.4970371497523216e-30 0.0000000000000000e+00  3.5618413266095672e-30 -3.3505727036837248e-30 0.0000000000000000e+00  1.9391517973712794e-30 -5.7198431353608286e-30 0.0000000000000000e+00  2.1531290661766383e-30 -3.5667772014026703e-30 0.0000000000000000e+00  9.354