<?xml version="1.0"?>
<VTKFile type="UnstructuredGrid"  version="0.1"  >
<UnstructuredGrid>
<Piece  NumberOfPoints="11902" NumberOfCells="23402">
<Points>
<DataArray  type="Float64"  NumberOfComponents="3"  format="ascii">-5 -5 0  5 -5 0  5 5 0  -5 5 0  1.265499902688625 0.0012773273372568 0  -4.9 -5 0  -4.8 -5 0  -4.7 -5 0  -4.6 -5 0  -4.5 -5 0  -4.4 -5 0  -4.3 -5 0  -4.2 -5 0  -4.1 -5 0  -4 -5 0  -3.9 -5 0  -3.8 -5 0  -3.7 -5 0  -3.6 -5 0  -3.5 -5 0  -3.4 -5 0  -3.3 -5 0  -3.2 -5 0  -3.1 -5 0  -3 -5 0  -2.9 -5 0  -2.8 -5 0  -2.7 -5 0  -2.6 -5 0  -2.5 -5 0  -2.4 -5 0  -2.3 -5 0  -2.2 -5 0  -2.1 -5 0  -2 -5 0  -1.9 -5 0  -1.8 -5 0  -1.7 -5 0  -1.6 -5 0  -1.5 -5 0  -1.4 -5 0  -1.3 -5 0  -1.2 -5 0  -1.1 -5 0  -1 -5 0  -0.9000000000000004 -5 0  -0.7999999999999998 -5 0  -0.7000000000000002 -5 0  -0.5999999999999996 -5 0  -0.5 -5 0  -0.4000000000000004 -5 0  -0.2999999999999998 -5 0  -0.2000000000000002 -5 0  -0.09999999999999964 -5 0  0 -5 0  0.09999999999999964 -5 0  0.2000000000000002 -5 0  0.2999999999999998 -5 0  0.4000000000000004 -5 0  0.5 -5 0  0.5999999999999996 -5 0  0.7000000000000002 -5 0  0.7999999999999998 -5 0  0.9000000000000004 -5 0  1 -5 0  1.1 -5 0  1.2 -5 0  1.3 -5 0  1.4 -5 0  1.5 -5 0  1.6 -5 0  1.7 -5 0  1.8 -5 0  1.9 -5 0  2 -5 0  2.1 -5 0  2.2 -5 0  2.3 -5 0  2.4 -5 0  2.5 -5 0  2.6 -5 0  2.7 -5 0  2.8 -5 0  2.9 -5 0  3 -5 0  3.1 -5 0  3.199999999999999 -5 0  3.300000000000001 -5 0  3.4 -5 0  3.5 -5 0  3.6 -5 0  3.699999999999999 -5 0  3.800000000000001 -5 0  3.9 -5 0  4 -5 0  4.1 -5 0  4.199999999999999 -5 0  4.300000000000001 -5 0  4.4 -5 0  4.5 -5 0  4.6 -5 0  4.699999999999999 -5 0  4.800000000000001 -5 0  4.9 -5 0  5 -4.9 0  5 -4.8 0  5 -4.7 0  5 -4.6 0  5 -4.5 0  5 -4.4 0  5 -4.3 0  5 -4.2 0  5 -4.1 0  5 -4 0  5 -3.9 0  5 -3.8 0  5 -3.7 0  5 -3.6 0  5 -3.5 0  5 -3.4 0  5 -3.3 0  5 -3.2 0  5 -3.1 0  5 -3 0  5 -2.9 0  5 -2.8 0  5 -2.7 0  5 -2.6 0  5 -2.5 0  5 -2.4 0  5 -2.3 0  5 -2.2 0  5 -2.1 0  5 -2 0  5 -1.9 0  5 -1.8 0  5 -1.7 0  5 -1.6 0  5 -1.5 0  5 -1.4 0  5 -1.3 0  5 -1.2 0  5 -1.1 0  5 -1 0  5 -0.9000000000000004 0  5 -0.7999999999999998 0  5 -0.7000000000000002 0  5 -0.5999999999999996 0  5 -0.5 0  5 -0.4000000000000004 0  5 -0.2999999999999998 0  5 -0.2000000000000002 0  5 -0.09999999999999964 0  5 0 0  5 0.09999999999999964 0  5 0.2000000000000002 0  5 0.2999999999999998 0  5 0.4000000000000004 0  5 0.5 0  5 0.5999999999999996 0  5 0.7000000000000002 0  5 0.7999999999999998 0  5 0.9000000000000004 0  5 1 0  5 1.1 0  5 1.2 0  5 1.3 0  5 1.4 0  5 1.5 0  5 1.6 0  5 1.7 0  5 1.8 0  5 1.9 0  5 2 0  5 2.1 0  5 2.2 0  5 2.3 0  5 2.4 0  5 2.5 0  5 2.6 0  5 2.7 0  5 2.8 0  5 2.9 0  5 3 0  5 3.1 0  5 3.199999999999999 0  5 3.300000000000001 0  5 3.4 0  5 3.5 0  5 3.6 0  5 3.699999999999999 0  5 3.800000000000001 0  5 3.9 0  5 4 0  5 4.1 0  5 4.199999999999999 0  5 4.300000000000001 0  5 4.4 0  5 4.5 0  5 4.6 0  5 4.699999999999999 0  5 4.800000000000001 0  5 4.9 0  4.9 5 0  4.8 5 0  4.7 5 0  4.6 5 0  4.5 5 0  4.4 5 0  4.3 5 0  4.2 5 0  4.1 5 0  4 5 0  3.9 5 0  3.8 5 0  3.7 5 0  3.6 5 0  3.5 5 0  3.4 5 0  3.3 5 0  3.2 5 0  3.1 5 0  3 5 0  2.9 5 0  2.8 5 0  2.7 5 0  2.6 5 0  2.5 5 0  2.4 5 0  2.3 5 0  2.2 5 0  2.1 5 0  2 5 0  1.9 5 0  1.8 5 0  1.7 5 0  1.6 5 0  1.5 5 0  1.4 5 0  1.3 5 0  1.2 5 0  1.1 5 0  1 5 0  0.9000000000000004 5 0  0.7999999999999998 5 0  0.7000000000000002 5 0  0.5999999999999996 5 0  0.5 5 0  0.4000000000000004 5 0  0.2999999999999998 5 0  0.2000000000000002 5 0  0.09999999999999964 5 0  0 5 0  -0.09999999999999964 5 0  -0.2000000000000002 5 0  -0.2999999999999998 5 0  -0.4000000000000004 5 0  -0.5 5 0  -0.5999999999999996 5 0  -0.7000000000000002 5 0  -0.7999999999999998 5 0  -0.9000000000000004 5 0  -1 5 0  -1.1 5 0  -1.2 5 0  -1.3 5 0  -1.4 5 0  -1.5 5 0  -1.6 5 0  -1.7 5 0  -1.8 5 0  -1.9 5 0  -2 5 0  -2.1 5 0  -2.2 5 0  -2.3 5 0  -2.4 5 0  -2.5 5 0  -2.6 5 0  -2.7 5 0  -2.8 5 0  -2.9 5 0  -3 5 0  -3.1 5 0  -3.199999999999999 5 0  -3.300000000000001 5 0  -3.4 5 0  -3.5 5 0  -3.6 5 0  -3.699999999999999 5 0  -3.800000000000001 5 0  -3.9 5 0  -4 5 0  -4.1 5 0  -4.199999999999999 5 0  -4.300000000000001 5 0  -4.4 5 0  -4.5 5 0  -4.6 5 0  -4.699999999999999 5 0  -4.800000000000001 5 0  -4.9 5 0  -5 4.9 0  -5 4.8 0  -5 4.7 0  -5 4.6 0  -5 4.5 0  -5 4.4 0  -5 4.3 0  -5 4.2 0  -5 4.1 0  -5 4 0  -5 3.9 0  -5 3.8 0  -5 3.7 0  -5 3.6 0  -5 3.5 0  -5 3.4 0  -5 3.3 0  -5 3.2 0  -5 3.1 0  -5 3 0  -5 2.9 0  -5 2.8 0  -5 2.7 0  -5 2.6 0  -5 2.5 0  -5 2.4 0  -5 2.3 0  -5 2.2 0  -5 2.1 0  -5 2 0  -5 1.9 0  -5 1.8 0  -5 1.7 0  -5 1.6 0  -5 1.5 0  -5 1.4 0  -5 1.3 0  -5 1.2 0  -5 1.1 0  -5 1 0  -5 0.9000000000000004 0  -5 0.7999999999999998 0  -5 0.7000000000000002 0  -5 0.5999999999999996 0  -5 0.5 0  -5 0.4000000000000004 0  -5 0.2999999999999998 0  -5 0.2000000000000002 0  -5 0.09999999999999964 0  -5 0 0  -5 -0.09999999999999964 0  -5 -0.2000000000000002 0  -5 -0.2999999999999998 0  -5 -0.4000000000000004 0  -5 -0.5 0  -5 -0.5999999999999996 0  -5 -0.7000000000000002 0  -5 -0.7999999999999998 0  -5 -0.9000000000000004 0  -5 -1 0  -5 -1.1 0  -5 -1.2 0  -5 -1.3 0  -5 -1.4 0  -5 -1.5 0  -5 -1.6 0  -5 -1.7 0  -5 -1.8 0  -5 -1.9 0  -5 -2 0  -5 -2.1 0  -5 -2.2 0  -5 -2.3 0  -5 -2.4 0  -5 -2.5 0  -5 -2.6 0  -5 -2.7 0  -5 -2.8 0  -5 -2.9 0  -5 -3 0  -5 -3.1 0  -5 -3.199999999999999 0  -5 -3.300000000000001 0  -5 -3.4 0  -5 -3.5 0  -5 -3.6 0  -5 -3.699999999999999 0  -5 -3.800000000000001 0  -5 -3.9 0  -5 -4 0  -5 -4.1 0  -5 -4.199999999999999 0  -5 -4.300000000000001 0  -5 -4.4 0  -5 -4.5 0  -5 -4.6 0  -5 -4.699999999999999 0  -5 -4.800000000000001 0  -5 -4.9 0  1.257718910524792 0.09189091525598905 0  1.235569436941953 0.189483876238913 0  1.201460026651723 0.2865311414155474 0  1.158798607057069 0.3753412863653143 0  1.099890222686611 0.4665934289157885 0  1.032759812102702 0.5496858935875203 0  0.9544548934226408 0.6303581607662542 0  0.867336514845659 0.7050782807958432 0  0.7755182846483377 0.770023982092673 0  0.6741555072345237 0.8275311375808737 0  0.5601628571082929 0.8798032161700952 0  0.4459176581549822 0.9249214081306071 0  0.3364664932804728 0.9561993444959342 0  0.2088025005093661 0.9794743999834679 0  0.08666015160274725 0.9973341581994671 0  -0.02597638000452021 1.001009382143824 0  -0.1436243012941539 0.9876910398917517 0  -0.2750177535043166 0.9672851281926307 0  -0.3957765401003759 0.9428557464503331 0  -0.5044537589939636 0.908283982796282 0  -0.6135407777233342 0.8619799962314074 0  -0.7153970854320221 0.8065963272053468 0  -0.8095504427616745 0.7426403532708488 0  -0.901263776080897 0.6689717730897985 0  -0.9881057564515655 0.5884642376191438 0  -1.063040541273001 0.5064159814199791 0  -1.125575054609286 0.4225151839575114 0  -1.182006189475326 0.3272394790308805 0  -1.218963518068955 0.2415041663647645 0  -1.243065127690679 0.148313988612458 0  -1.253027698039718 0.05303758325823477 0  -1.252945005813067 -0.05074630819534692 0  -1.242838362873646 -0.1452795152332915 0  -1.218606922113531 -0.2349019699187365 0  -1.175976050811517 -0.3308216122517258 0  -1.125867743327772 -0.4237357855524662 0  -1.065529769109177 -0.5060366814428761 0  -0.9907457177638673 -0.5874674796806243 0  -0.9044996578833463 -0.6669108498272287 0  -0.8139485341301116 -0.7377194700377043 0  -0.719079469776828 -0.79800268346791 0  -0.6147969727067992 -0.8516009242467664 0  -0.4978336304821435 -0.9014441454442628 0  -0.3857964639626708 -0.9412397417982742 0  -0.2717291250096173 -0.9671476660744791 0  -0.1417379382904314 -0.9878134709081433 0  -0.02740689122178565 -1.000217842584948 0  0.084471198275301 -0.9928948839492712 0  0.2160256095088693 -0.9747920042220876 0  0.3397125572945931 -0.9541462138629054 0  0.4502578211353704 -0.9235531972146876 0  0.5631578724400763 -0.8789688800576002 0  0.6755811788615435 -0.8272592373371832 0  0.775074616336949 -0.7713598918941567 0  0.8657088859289503 -0.707260969464008 0  0.9509616832796804 -0.6316704850005433 0  1.030531553650415 -0.5479616897308758 0  1.102168410112915 -0.4641874535936826 0  1.159822525712066 -0.3753579029915234 0  1.203356271474399 -0.2846175274915435 0  1.236320085834092 -0.1889916122070053 0  1.258125704257101 -0.09222465179242244 0  -2.448504897069206 4.918014533099778 0  -2.448373561130729 -4.910383504553838 0  4.910303166708522 2.447815727293251 0  4.918440443297921 -2.449284813594313 0  2.446093406973162 -4.89559605645256 0  2.440529040876672 4.899362671446564 0  -4.910330437702076 -2.447843066096889 0  -4.91032776305044 2.447847328855198 0  -1.748456735365936 4.910857352463868 0  -1.744245299841956 -4.914304349751266 0  4.920449154598699 1.743998127815978 0  4.908956746924837 -1.747749269571336 0  -4.909251808223409 -1.74748436516497 0  -4.910075944155936 1.747230461057999 0  1.745724963119278 4.904701691172198 0  1.7471307570243 -4.892825624507052 0  -1.148779658324331 4.908606347034291 0  -1.129641597176887 -4.91653970092234 0  -4.908919779636502 -1.147827363382728 0  -4.90873758364385 1.147628231698374 0  1.143777573435466 -4.912715035757306 0  1.148788806332025 4.908592186672001 0  4.909059052842415 1.146101848640926 0  4.919923650410697 -1.151896090774525 0  -0.5466361749490568 -4.909777009158581 0  -0.5464227908458201 4.91848535184042 0  -4.907612457228879 -0.5486526174979898 0  -4.907636451150023 0.5472111444276275 0  4.906928169894734 -0.5489704976662234 0  4.918626041177511 0.5457346650449537 0  0.5424153090904364 -4.896617412987966 0  0.551149280350989 4.915298824125939 0  -4.911797410690265 -3.048214792483138 0  4.918375227948296 3.046235982478138 0  4.911304615044206 -3.048189509808397 0  -4.912645964948907 3.04530726934486 0  3.055237423489165 -4.917296813567371 0  -3.04856326035295 -4.911226152584172 0  3.052132115544525 4.913305649122354 0  -3.048009656841449 4.912116990568821 0  -4.90670567305383 -0.04990204268318429 0  0.0451177208654911 -4.911725004354929 0  0.04956433147078698 4.918772342576202 0  4.913785461206931 -0.05128498661330234 0  3.545569362461556 -4.918966947269508 0  -3.548845506930395 4.911862
[...]
<PointData  Vectors="f_7274"> 
<DataArray  type="Float64"  Name="f_7274"  NumberOfComponents="3" format="ascii">1.1248013559806050e-40 8.9654582686148614e-41 0.0000000000000000e+00  -1.3544362884131976e-40 1.0371645811934786e-40 0.0000000000000000e+00  -9.1226787469691994e-42 1.2881957403932330e-41 0.0000000000000000e+00  9.8586009463042816e-41 -9.2151902629467955e-41 0.0000000000000000e+00  1.0701318799557850e+01 -1.1566558868948508e-02 0.0000000000000000e+00  -2.0520220763279224e-40 -1.6751415872127994e-40 0.0000000000000000e+00  -5.3677290968040289e-41 -8.3935347416611561e-41 0.0000000000000000e+00  2.2157086122962669e-40 2.4313175258693537e-40 0.0000000000000000e+00  -8.9330053238019213e-39 -7.3612907613491367e-39 0.0000000000000000e+00  3.0075438870703499e-38 2.3500303013763489e-38 0.0000000000000000e+00  -1.6221357472687425e-37 -1.1936760877255117e-37 0.0000000000000000e+00  5.2154386105247148e-37 3.9214219355834937e-37 0.0000000000000000e+00  -1.7389136030374981e-36 -1.7086001486376129e-36 0.0000000000000000e+00  6.1489920893193783e-36 8.4563341860516278e-36 0.0000000000000000e+00  -2.8628053289916814e-35 -3.5771801751187046e-35 0.0000000000000000e+00  4.6473834038097936e-35 6.7409043890585960e-35 0.0000000000000000e+00  -5.2727411796048827e-35 -1.1958536161226554e-34 0.0000000000000000e+00  -3.5330712948427018e-34 -4.3338635648452232e-34 0.0000000000000000e+00  1.7067441111208306e-33 2.2736345705726491e-33 0.0000000000000000e+00  -4.5354151557048676e-33 -7.2430485476225259e-33 0.0000000000000000e+00  2.7549745864454722e-32 4.0961697333061255e-32 0.0000000000000000e+00  -7.4311183693102831e-32 -1.0873270488562893e-31 0.0000000000000000e+00  -6.4018614500567595e-32 -4.3454997802195123e-32 0.0000000000000000e+00  4.8707892609028918e-31 4.1656947883755505e-31 0.0000000000000000e+00  9.5516088474662573e-32 4.0260816477678838e-31 0.0000000000000000e+00  5.6831055687014639e-32 9.2046945247430219e-31 0.0000000000000000e+00  -8.4811256155382370e-31 -2.1143472982701766e-30 0.0000000000000000e+00  1.3722769474289082e-30 8.6833143905712677e-30 0.0000000000000000e+00  -6.3833428698348472e-30 -2.3281658247247060e-29 0.0000000000000000e+00  -4.3470829476218567e-30 -1.6985288840531503e-29 0.0000000000000000e+00  4.0004113338581814e-29 1.2088359222672371e-28 0.0000000000000000e+00  1.1237398890588223e-29 4.0599271419858102e-29 0.0000000000000000e+00  -3.2991041682117856e-30 -2.2695156412450426e-29 0.0000000000000000e+00  -2.0347810276052814e-29 -4.0653218368102281e-29 0.0000000000000000e+00  -4.9894915821483504e-29 5.3871199831417398e-29 0.0000000000000000e+00  -2.5262823141990637e-29 -2.9288437022834428e-28 0.0000000000000000e+00  -3.2996349419039759e-29 -2.3971891569132970e-28 0.0000000000000000e+00  -2.4951161676739755e-30 -6.6168884858057065e-29 0.0000000000000000e+00  4.9497508072314927e-29 4.3336135659102231e-28 0.0000000000000000e+00  7.0341389814233170e-29 6.4464817579392608e-28 0.0000000000000000e+00  9.5242341331906182e-29 5.7930052823518861e-28 0.0000000000000000e+00  7.0325230478640654e-29 -1.5452625637932287e-28 0.0000000000000000e+00  7.2594846453967598e-29 -2.9935368215849294e-29 0.0000000000000000e+00  7.7698416765815532e-29 3.7321049770484723e-28 0.0000000000000000e+00  2.9717907425787892e-29 -8.1239175658733804e-29 0.0000000000000000e+00  -1.9214829207108239e-28 -8.1017496219091120e-28 0.0000000000000000e+00  -9.7340437879185200e-29 -5.6962689177612516e-28 0.0000000000000000e+00  8.8508162659341260e-29 4.8950720910834758e-28 0.0000000000000000e+00  5.2452874089017585e-31 -6.1236537893255807e-28 0.0000000000000000e+00  -9.9241634157561206e-29 -1.8381759269983103e-28 0.0000000000000000e+00  -2.3926290524900927e-28 1.1840886117323160e-29 0.0000000000000000e+00  -2.7153571306184474e-28 -5.1032339909778272e-29 0.0000000000000000e+00  -1.7120320662267851e-28 -2.0485854894491743e-28 0.0000000000000000e+00  1.1284468773799704e-29 -2.5055382989491257e-28 0.0000000000000000e+00  3.6011077630157897e-29 -2.4936225599655617e-28 0.0000000000000000e+00  -6.1864028518495408e-29 5.7947924857154892e-30 0.0000000000000000e+00  -1.1296912789709134e-28 -2.7888268690848227e-28 0.0000000000000000e+00  -1.3801285600555106e-28 -3.2680831921434911e-28 0.0000000000000000e+00  -1.0848754627511811e-28 -3.0715604376778154e-28 0.0000000000000000e+00  -1.4211891946631587e-28 1.1878654924557111e-29 0.0000000000000000e+00  -1.6336443015392268e-28 -6.4539372035142631e-28 0.0000000000000000e+00  -1.4056167976821324e-28 -7.0891277170872469e-28 0.0000000000000000e+00  -8.8148998414839153e-29 9.1554336372908217e-29 0.0000000000000000e+00  -7.4367535932757302e-29 8.4508321991823725e-28 0.0000000000000000e+00  -1.6337847541750520e-29 4.1090541177662551e-28 0.0000000000000000e+00  7.7268174471398116e-29 2.4996879762064607e-28 0.0000000000000000e+00  3.2922394411516999e-29 6.7450403106503063e-28 0.0000000000000000e+00  2.1279454955726599e-29 3.1637030141973943e-28 0.0000000000000000e+00  2.3227010889413854e-29 -4.9658555018788212e-28 0.0000000000000000e+00  -2.8612476881025001e-29 -3.0542482248004072e-28 0.0000000000000000e+00  -2.4588082540515974e-29 1.1613264157522142e-28 0.0000000000000000e+00  -6.7766696249021403e-29 6.8875211648410333e-30 0.0000000000000000e+00  -2.9511455072091496e-29 -7.5544920944581227e-30 0.0000000000000000e+00  1.8527387185603058e-29 5.4447292253513409e-29 0.0000000000000000e+00  2.4123203400546516e-29 -1.8941471377835381e-28 0.0000000000000000e+00  1.6672111226394216e-29 -7.4144557750634205e-29 0.0000000000000000e+00  3.0946022551567065e-30 -3.3271326139715271e-29 0.0000000000000000e+00  -1.3191325882557308e-29 7.3591794459181641e-29 0.0000000000000000e+00  -1.7020593464252824e-29 8.8217668994008584e-29 0.0000000000000000e+00  2.9167649752359505e-30 -3.4451603116318124e-30 0.0000000000000000e+00  1.3063441376792419e-29 -4.7002430973531892e-29 0.0000000000000000e+00  -2.3081027731955085e-30 8.0424172065814419e-30 0.0000000000000000e+00  -6.5431162931667241e-31 2.1132417978170730e-30 0.0000000000000000e+00  3.1915214099224509e-30 -6.1541992780875642e-30 0.0000000000000000e+00  4.2074643008164856e-31 -4.9025099139251908e-31 0.0000000000000000e+00  -4.3407387564812743e-31 6.7463038335042453e-31 0.0000000000000000e+00  1.7756890553538184e-31 -2.9473632407560528e-31 0.0000000000000000e+00  -4.3289506051550512e-32 5.7037079343856740e-32 0.0000000000000000e+00  3.8497770876445255e-33 -5.5558911732361217e-33 0.0000000000000000e+00  2.5497652348618500e-33 -2.2699447608517777e-33 0.0000000000000000e+00  -2.6194704339358688e-33 2.9120231259819698e-33 0.0000000000000000e+00  2.8806072979983142e-34 -2.1693720704757392e-34 0.0000000000000000e+00  -1.9613252154492206e-35 -2.8037416938724146e-35 0.0000000000000000e+00  3.8629065964516340e-35 -2.2684067227339849e-35 0.0000000000000000e+00  -1.9138829049378436e-38 -2.5074713939577989e-36 0.0000000000000000e+00  -8.2301851975731298e-37 1.0680743829396608e-36 0.0000000000000000e+00  4.0671783098159025e-37 -3.6419990719554815e-37 0.0000000000000000e+00  -2.0330731223798911e-37 1.8768998417281300e-37 0.0000000000000000e+00  7.8585814710873395e-38 -6.7795892506517585e-38 0.0000000000000000e+00  -2.3827512275602628e-38 1.8994395406900027e-38 0.0000000000000000e+00  7.0458521431138737e-39 -5.2265577363228286e-39 0.0000000000000000e+00  -2.0991386624868502e-39 1.6273563216202207e-39 0.0000000000000000e+00  7.0176964314603526e-42 1.7457424413477623e-41 0.0000000000000000e+00  1.9717716785269869e-40 -1.6188207684487553e-40 0.0000000000000000e+00  2.9598217429864673e-41 -2.0282182449272019e-41 0.0000000000000000e+00  1.1442469483895904e-40 -5.6144618829013821e-41 0.0000000000000000e+00  -1.9972200399630621e-40 8.3448931375556208e-41 0.0000000000000000e+00  -4.4228446115200370e-40 5.5730986816587552e-40 0.0000000000000000e+00  2.0804842766245404e-39 -1.7649964835319375e-39 0.0000000000000000e+00  -3.7987256743536133e-39 2.0636810201965724e-39 0.0000000000000000e+00  -1.6202350913102616e-40 3.8746944896649834e-39 0.0000000000000000e+00  2.1580532995472076e-38 -2.2876899517502060e-38 0.0000000000000000e+00  -6.0753808145272845e-38 4.2941794382909603e-38 0.0000000000000000e+00  5.4071639737390480e-38 4.4125523366951235e-39 0.0000000000000000e+00  1.9905515501607326e-37 -2.4802224705602846e-37 0.0000000000000000e+00  -8.0835214288525248e-37 5.9718530776838057e-37 0.0000000000000000e+00  9.1898455126726313e-37 -1.6345887231989189e-37 0.0000000000000000e+00  1.9982161088342601e-36 -2.5463895526558235e-36 0.0000000000000000e+00  -1.0098970722347205e-35 6.6345128405789861e-36 0.0000000000000000e+00  1.3164756955194857e-35 -2.1885715543980985e-36 0.0000000000000000e+00  2.4224793170056793e-35 -2.6089768432422360e-35 0.0000000000000000e+00  -1.2336676054171592e-34 6.1579316323054255e-35 0.0000000000000000e+00  1.5232594500900097e-34 -7.4921379655692885e-36 0.0000000000000000e+00  3.3546898370005377e-34 -2.5584355890147781e-34 0.0000000000000000e+00  -1.5395441687566951e-33 5.2953039096808764e-34 0.0000000000000000e+00  1.2886055274619711e-33 1.4984418253933221e-34 0.0000000000000000e+00  5.2832835495224779e-33 -2.4763234497615775e-33 0.0000000000000000e+00  -1.6942645885230393e-32 4.0572886112197789e-33 0.0000000000000000e+00  3.8478328232330197e-33 3.7592693513878088e-33 0.0000000000000000e+00  7.3145771001428659e-32 -2.3254416654467631e-32 0.0000000000000000e+00  -1.3077589184318716e-31 1.9840694459449206e-32 0.0000000000000000e+00  -1.1701536936784676e-31 6.1089495831842534e-32 0.0000000000000000e+00  7.4898029990910862e-31 -1.4737564687693014e-31 0.0000000000000000e+00  -6.2940362552090050e-31 8.6807998477986186e-33 0.0000000000000000e+00  -2.3818786107854808e-30 3.2358257636332291e-31 0.0000000000000000e+00  6.7366221362461555e-30 -1.1757899630216890e-30 0.0000000000000000e+00  2.4357781527036366e-30 2.1449044245553981e-30 0.0000000000000000e+00  -4.1336824412684834e-29 1.0700376718432123e-29 0.0000000000000000e+00  1.6097838426649291e-29 -2.6394178260146263e-29 0.0000000000000000e+00  2.4039001339938530e-28 -9.8164833687602237e-29 0.0000000000000000e+00  -7.2188338926320347e-29 1.3401916465764972e-28 0.0000000000000000e+00  -1.2591652574364032e-27 6.9844852539531612e-28 0.0000000000000000e+00  -1.3258881717844244e-27 5.0273239437265573e-28 0.0000000000000000e+00  4.4223116930643955e-27 -2.8222824226895064e-27 0.0000000000000000e+00  1.1228338132700216e-26 -6.1036186325706829e-27 0.0000000000000000e+00  1.1249890232240975e-26 -4.8646392436740041e-27 0.0000000000000000e+00  -1.1100184525561509e-26 6.2363176364074175e-27 0.0000000000000000e+00  -7.1676572330095271e-26 2.7673016641917448e-26 0.0000000000000000e+00  -1.7525720418159701e-25 5.6860339601175207e-26 0.0000000000000000e+00  -3.2343171773837946e-25 9.5792217364616919e-26 0.0000000000000000e+00  -4.3124769656317903e-25 1.1967712195885324e-25 0.0000000000000000e+00  -4.8024420974112049e-25 1.1273130622774446e-25 0.0000000000000000e+00  -4.6090683868667188e-25 6.1352198555071163e-26 0.0000000000000000e+00  -4.4475967980076972e-25 -1.1692945479059892e-26 0.0000000000000000e+00  -4.4646991458362974e-25 -7.3974469176013456e-26 0.0000000000000000e+00  -4.2535106894390364e-25 -9.7463938003756153e-26 0.0000000000000000e+00  -3.4265504109764553e-25 -8.2962291995518076e-26 0.0000000000000000e+00  -2.0277829891620786e-25 -4.9434098382216031e-26 0.0000000000000000e+00  -7.2515991146211481e-26 -1.9066900624367593e-26 0.0000000000000000e+00  5.4792720717877124e-27 8.0168907899626042e-28 0.0000000000000000e+00  2.6244808079405582e-26 9.5041484861926967e-27 0.0000000000000000e+00  1.9839846456250689e-26 1.0059391008527647e-26 0.0000000000000000e+00  8.5100500873674090e-27 5.7332166391443715e-27 0.0000000000000000e+00  1.1088945359008487e-27 1.2222607835256033e-27 0.0000000000000000e+00  -1.3359840380778341e-27 -6.6837089003109442e-28 0.0000000000000000e+00  -8.5041994385390042e-28 -5.3723192491366029e-28 0.0000000000000000e+00  8.7103784099266043e-29 -1.5555345558981014e-29 0.0000000000000000e+00  1.9746869791953591e-28 9.1178790223354229e-29 0.0000000000000000e+00  -6.3771057222542051e-30 1.2823301141785982e-29 0.0000000000000000e+00  -4.0125158374903094e-29 -1.2686341548404510e-29 0.0000000000000000e+00  5.2511254263618877e-30 -1.0011839053003556e-30 0.0000000000000000e+00  7.2145688112445824e-30 1.5240435456494246e-30 0.0000000000000000e+00  -2.8071280008830855e-30 -4.8202451191650230e-31 0.0000000000000000e+00  -8.0862083030160236e-31 -3.8712711357807484e-32 0.0000000000000000e+00  8.4196617874758501e-31 2.0029665548150662e-31 0.0000000000000000e+00  -7.5638209970313633e-32 -6.6321509419079102e-32 0.0000000000000000e+00  -1.6548235054142776e-31 -4.2155574257664450e-32 0.0000000000000000e+00  6.5823161767397237e-32 2.9010594695542460e-32 0.0000000000000000e+00  1.4207122871307252e-32 2.7551858013930120e-33 0.0000000000000000e+00  -1.7881019573554097e-32 -7.5807806738008338e-33 0.0000000000000000e+00  2.5218001554041773e-33 1.3718670427843547e-33 0.0000000000000000e+00  2.8169197707953053e-33 1.2931507586926411e-33 0.0000000000000000e+00  -1.3991999768590202e-33 -6.6755451405141183e-34 0.0000000000000000e+00  -5.8536674558132128e-35 -5.3668665362130065e-35 0.0000000000000000e+00  2.5432608124158729e-34 1.3836399791493349e-34 0.0000000000000000e+00  -7.7458258869209762e-35 -3.6658362099572764e-35 0.0000000000000000e+00  -1.7176569936202486e-35 -1.2501844836244754e-35 0.0000000000000000e+00  1.9074582294155307e-35 1.0674581973172215e-35 0.0000000000000000e+00  -4.0653933411577965e-36 -1.8172600606956330e-36 0.0000000000000000e+00  -1.5497748868914867e-36 -9.7964638138271763e-37 0.0000000000000000e+00  1.2138118081325292e-36 6.2204750527110112e-37 0.0000000000000000e+00  -2.3318604251487539e-37 -9.5759841691468395e-38 0.0000000000000000e+00  -9.7459762652944129e-38 -4.6924801958664817e-38 0.0000000000000000e+00  7.8389389043660536e-38 2.9431693027627772e-38 0.0000000000000000e+00  -1.9961056478194250e-38 -5.8271230038995847e-39 0.0000000000000000e+00  -2.4983280146574176e-39 -4.7911791398602921e-40 0.0000000000000000e+00  4.0676903658735517e-39 4.4239807714331557e-40 0.0000000000000000e+00  -1.7358024507820845e-39 -9.9089288894942050e-41 0.0000000000000000e+00  3.3336089913582180e-40 1.0129527943410904e-40 0.0000000000000000e+00  4.9187449444729875e-41 -1.0086291790057676e-40 0.0000000000000000e+00  -7.9241470816007505e-41 4.4709383338427562e-41 0.0000000000000000e+00  2.9741925973430316e-41 -1.4064946968793013e-41 0.0000000000000000e+00  -2.6995936093472021e-41 -1.9505607928738967e-41 0.0000000000000000e+00  2.1040841635904426e-41 -1.8366739135167200e-41 0.0000000000000000e+00  1.0671442176860472e-40 1.0019703455126526e-40 0.0000000000000000e+00  -4.3137230944285498e-40 -3.6488342712726174e-40 0.0000000000000000e+00  5.7146477722477164e-39 4.4665251856192336e-39 0.0000000000000000e+00  -3.7191183410064993e-38 -3.3751820033259797e-38 0.0000000000000000e+00  1.5914265654307872e-37 1.4824912081788482e-37 0.0000000000000000e+00  -3.2063993650563391e-37 -2.9685854937277009e-37 0.0000000000000000e+00  1.9474763741256291e-36 1.8885692702919271e-36 0.0000000000000000e+00  -1.2748474692134024e-36 -1.7475715067671344e-36 0.0000000000000000e+00  -1.1322864077822285e-35 -7.7052154515819421e-36 0.0000000000000000e+00  5.5286314683605793e-35 4.4826721295234237e-35 0.0000000000000000e+00  -3.0230734094688701e-34 -2.6927184512302921e-34 0.0000000000000000e+00  4.9460745444687651e-34 4.5159814673800506e-34 0.0000000000000000e+00  -5.2409405904077701e-34 -5.8977411889068142e-34 0.0000000000000000e+00  2.6861382145611548e-33 1.6992400983426288e-33 0.0000000000000000e+00  5.3792930290241223e-33 6.4187763376516520e-33 0.0000000000000000e+00  -3.2084554133879895e-32 -2.3415207776350923e-32 0.0000000000000000e+00  -1.1723394917131232e-31 -1.7895082870418759e-31 0.0000000000000000e+00  3.0042694996203224e-31 5.6618920285879319e-31 0.0000000000000000e+00  -4.4968714553126129e-31 -1.0016970151964718e-30 0.0000000000000000e+00  -3.8898199968215766e-31 -5.8584783804658829e-31 0.0000000000000000e+00  2.4485551003697232e-30 3.9819774900050135e-30 0.0000000000000000e+00  2.3748888986033547e-31 7.5984813219775429e-31 0.0000000000000000e+00  3.1514079271657357e-30 8.9727086871149942e-30 0.0000000000000000e+00  -5.8463669223430102e-30 -8.0210577493967452e-30 0.0000000000000000e+00  -1.2963127639836772e-29 1.1390352340802278e-29 0.0000000000000000e+00  -1.3297084081622333e-30 -3.7661381672360943e-29 0.0000000000000000e+00  -2.1685193689515806e-29 -1.7163090918371199e-28 0.0000000000000000e+00  -1.3885282774513572e-29 -5.6088911832305586e-29 0.0000000000000000e+00  3.0602788466265951e-29 6.7954095245020587e-29 0.0000000000000000e+00  2.7060057214984829e-29 3.1622925686378216e-28 0.0000000000000000e+00  2.1587666185853474e-30 -1.7567345978855090e-28 0.0000000000000000e+00  3.2263417048924272e-29 -3.8261294787577303e-28 0.0000000000000000e+00  -1.2858421296746815e-29 -1.1328318391878549e-28 0.0000000000000000e+00  -9.8537393373698004e-29 -9.5098925268066823e-29 0.0000000000000000e+00  -1.3546800746066896e-28 3.0055222264228679e-28 0.0000000000000000e+00  -1.3386431956053828e-28 1.8365921372127581e-28 0.0000000000000000e+00  -1.0690226304764568e-28 -2.6442608517708515e-29 0.0000000000000000e+00  -1.0992183885977773e-28 2.6743564663950770e-29 0.0000000000000000e+00  -1.0317332311707167e-28 -1.2633250279962400e-28 0.0000000000000000e+00  1.0899053234281519e-28 -5.0329142457421283e-28 0.0000000000000000e+00  2.2591204255452499e-28 -2.6195583043335013e-28 0.0000000000000000e+00  2.3815315805785614e-28 2.5497051610090136e-28 0.0000000000000000e+00  1.4978583199503144e-28 -1.7015449257066345e-28 0.0000000000000000e+00  -3.3630516305727741e-29 -6.3352036846695079e-28 0.0000000000000000e+00  9.4280250027380171e-29 1.4376989888020090e-28 0.0000000000000000e+00  9.0418299774039078e-29 1.2996840555851981e-28 0.0000000000000000e+00  2.1611950830564293e-29 -4.7834663788647948e-28 0.0000000000000000e+00  2.9833947639011938e-29 -2.1350365207029074e-28 0.0000000000000000e+00  3.0978229133266388e-29 -3.3558494384994147e-28 0.0000000000000000e+00  -1.2252095007737345e-29 -1.9026621436109693e-29 0.0000000000000000e+00  -1.6293699876534909e-29 3.3287692276727328e-29 0.0000000000000000e+00  9.3070083694671250e-30 -2.1864932828262269e-28 0.0000000000000000e+00  -4.0977208607891177e-30 -1.1893508334625165e-28 0.0000000000000000e+00  5.0724754511772077e-31 8.8734763858706830e-29 0.0000000000000000e+00  -4.1565147308905302e-30 -2.8364936125757142e-28 0.0000000000000000e+00  -1.7715407297430552e-29 -1.1845095400359653e-28 0.0000000000000000e+00  7.7084655449175339e-30 -2.9029026391225856e-29 0.0000000000000000e+00  -1.1186886575201657e-29 -1.6925748865731945e-29 0.0000000000000000e+00  -7.0267501235179369e-30 2.8390622814814082e-28 0.0000000000000000e+00  -2.4213217272646727e-29 3.4761565593809123e-28 0.0000000000000000e+00  -4.0747857075896519e-29 5.2973192795117788e-28 0.0000000000000000e+00  -2.4666478838966468e-29 1.9243787179184504e-28 0.0000000000000000e+00  -1.0101512107338026e-29 -6.0106818728456418e-29 0.0000000000000000e+00  2.9539872270891791e-29 -3.2770645816621537e-28 0.0000000000000000e+00  4.2944554336721553e-29 -4.2871512157464200e-28 0.0000000000000000e+00  1.8969321548418549e-29 -1.3279397778353514e-28 0.0000000000000000e+00  7.5680964688207865e-30 3.6007415506680925e-29 0.0000000000000000e+00  -1.5474239263760185e-29 1.0002161521571179e-28 0.0000000000000000e+00  -4.9207398098163429e-29 3.9457021504685441e-28 0.0000000000000000e+00  -1.8894983635660944e-29 1.3480310974222938e-28 0.0000000000000000e+00  8.8326658793710645e-30 -1.2631582403035727e-28 0.0000000000000000e+00  4.7664106309192724e-30 1.2823202393944740e-29 0.0000000000000000e+00  -2.1031224534023744e-30 9.3737821882602756e-30 0.0000000000000000e+00  -4.8064832347061323e-30 1.8837640018581934e-29 0.0000000000000000e+00  2.0334469273634159e-30 -5.0750784461696619e-30 0.0000000000000000e+00  2.8533810404436191e-30 -8.1755681860598369e-30 0.00000000000