<?xml version="1.0"?>
<VTKFile type="UnstructuredGrid"  version="0.1"  >
<UnstructuredGrid>
<Piece  NumberOfPoints="11902" NumberOfCells="23402">
<Points>
<DataArray  type="Float64"  NumberOfComponents="3"  format="ascii">-5 -5 0  5 -5 0  5 5 0  -5 5 0  1.265304060949899 0.001270005583110832 0  -4.9 -5 0  -4.8 -5 0  -4.7 -5 0  -4.6 -5 0  -4.5 -5 0  -4.4 -5 0  -4.3 -5 0  -4.2 -5 0  -4.1 -5 0  -4 -5 0  -3.9 -5 0  -3.8 -5 0  -3.7 -5 0  -3.6 -5 0  -3.5 -5 0  -3.4 -5 0  -3.3 -5 0  -3.2 -5 0  -3.1 -5 0  -3 -5 0  -2.9 -5 0  -2.8 -5 0  -2.7 -5 0  -2.6 -5 0  -2.5 -5 0  -2.4 -5 0  -2.3 -5 0  -2.2 -5 0  -2.1 -5 0  -2 -5 0  -1.9 -5 0  -1.8 -5 0  -1.7 -5 0  -1.6 -5 0  -1.5 -5 0  -1.4 -5 0  -1.3 -5 0  -1.2 -5 0  -1.1 -5 0  -1 -5 0  -0.9000000000000004 -5 0  -0.7999999999999998 -5 0  -0.7000000000000002 -5 0  -0.5999999999999996 -5 0  -0.5 -5 0  -0.4000000000000004 -5 0  -0.2999999999999998 -5 0  -0.2000000000000002 -5 0  -0.09999999999999964 -5 0  0 -5 0  0.09999999999999964 -5 0  0.2000000000000002 -5 0  0.2999999999999998 -5 0  0.4000000000000004 -5 0  0.5 -5 0  0.5999999999999996 -5 0  0.7000000000000002 -5 0  0.7999999999999998 -5 0  0.9000000000000004 -5 0  1 -5 0  1.1 -5 0  1.2 -5 0  1.3 -5 0  1.4 -5 0  1.5 -5 0  1.6 -5 0  1.7 -5 0  1.8 -5 0  1.9 -5 0  2 -5 0  2.1 -5 0  2.2 -5 0  2.3 -5 0  2.4 -5 0  2.5 -5 0  2.6 -5 0  2.7 -5 0  2.8 -5 0  2.9 -5 0  3 -5 0  3.1 -5 0  3.199999999999999 -5 0  3.300000000000001 -5 0  3.4 -5 0  3.5 -5 0  3.6 -5 0  3.699999999999999 -5 0  3.800000000000001 -5 0  3.9 -5 0  4 -5 0  4.1 -5 0  4.199999999999999 -5 0  4.300000000000001 -5 0  4.4 -5 0  4.5 -5 0  4.6 -5 0  4.699999999999999 -5 0  4.800000000000001 -5 0  4.9 -5 0  5 -4.9 0  5 -4.8 0  5 -4.7 0  5 -4.6 0  5 -4.5 0  5 -4.4 0  5 -4.3 0  5 -4.2 0  5 -4.1 0  5 -4 0  5 -3.9 0  5 -3.8 0  5 -3.7 0  5 -3.6 0  5 -3.5 0  5 -3.4 0  5 -3.3 0  5 -3.2 0  5 -3.1 0  5 -3 0  5 -2.9 0  5 -2.8 0  5 -2.7 0  5 -2.6 0  5 -2.5 0  5 -2.4 0  5 -2.3 0  5 -2.2 0  5 -2.1 0  5 -2 0  5 -1.9 0  5 -1.8 0  5 -1.7 0  5 -1.6 0  5 -1.5 0  5 -1.4 0  5 -1.3 0  5 -1.2 0  5 -1.1 0  5 -1 0  5 -0.9000000000000004 0  5 -0.7999999999999998 0  5 -0.7000000000000002 0  5 -0.5999999999999996 0  5 -0.5 0  5 -0.4000000000000004 0  5 -0.2999999999999998 0  5 -0.2000000000000002 0  5 -0.09999999999999964 0  5 0 0  5 0.09999999999999964 0  5 0.2000000000000002 0  5 0.2999999999999998 0  5 0.4000000000000004 0  5 0.5 0  5 0.5999999999999996 0  5 0.7000000000000002 0  5 0.7999999999999998 0  5 0.9000000000000004 0  5 1 0  5 1.1 0  5 1.2 0  5 1.3 0  5 1.4 0  5 1.5 0  5 1.6 0  5 1.7 0  5 1.8 0  5 1.9 0  5 2 0  5 2.1 0  5 2.2 0  5 2.3 0  5 2.4 0  5 2.5 0  5 2.6 0  5 2.7 0  5 2.8 0  5 2.9 0  5 3 0  5 3.1 0  5 3.199999999999999 0  5 3.300000000000001 0  5 3.4 0  5 3.5 0  5 3.6 0  5 3.699999999999999 0  5 3.800000000000001 0  5 3.9 0  5 4 0  5 4.1 0  5 4.199999999999999 0  5 4.300000000000001 0  5 4.4 0  5 4.5 0  5 4.6 0  5 4.699999999999999 0  5 4.800000000000001 0  5 4.9 0  4.9 5 0  4.8 5 0  4.7 5 0  4.6 5 0  4.5 5 0  4.4 5 0  4.3 5 0  4.2 5 0  4.1 5 0  4 5 0  3.9 5 0  3.8 5 0  3.7 5 0  3.6 5 0  3.5 5 0  3.4 5 0  3.3 5 0  3.2 5 0  3.1 5 0  3 5 0  2.9 5 0  2.8 5 0  2.7 5 0  2.6 5 0  2.5 5 0  2.4 5 0  2.3 5 0  2.2 5 0  2.1 5 0  2 5 0  1.9 5 0  1.8 5 0  1.7 5 0  1.6 5 0  1.5 5 0  1.4 5 0  1.3 5 0  1.2 5 0  1.1 5 0  1 5 0  0.9000000000000004 5 0  0.7999999999999998 5 0  0.7000000000000002 5 0  0.5999999999999996 5 0  0.5 5 0  0.4000000000000004 5 0  0.2999999999999998 5 0  0.2000000000000002 5 0  0.09999999999999964 5 0  0 5 0  -0.09999999999999964 5 0  -0.2000000000000002 5 0  -0.2999999999999998 5 0  -0.4000000000000004 5 0  -0.5 5 0  -0.5999999999999996 5 0  -0.7000000000000002 5 0  -0.7999999999999998 5 0  -0.9000000000000004 5 0  -1 5 0  -1.1 5 0  -1.2 5 0  -1.3 5 0  -1.4 5 0  -1.5 5 0  -1.6 5 0  -1.7 5 0  -1.8 5 0  -1.9 5 0  -2 5 0  -2.1 5 0  -2.2 5 0  -2.3 5 0  -2.4 5 0  -2.5 5 0  -2.6 5 0  -2.7 5 0  -2.8 5 0  -2.9 5 0  -3 5 0  -3.1 5 0  -3.199999999999999 5 0  -3.300000000000001 5 0  -3.4 5 0  -3.5 5 0  -3.6 5 0  -3.699999999999999 5 0  -3.800000000000001 5 0  -3.9 5 0  -4 5 0  -4.1 5 0  -4.199999999999999 5 0  -4.300000000000001 5 0  -4.4 5 0  -4.5 5 0  -4.6 5 0  -4.699999999999999 5 0  -4.800000000000001 5 0  -4.9 5 0  -5 4.9 0  -5 4.8 0  -5 4.7 0  -5 4.6 0  -5 4.5 0  -5 4.4 0  -5 4.3 0  -5 4.2 0  -5 4.1 0  -5 4 0  -5 3.9 0  -5 3.8 0  -5 3.7 0  -5 3.6 0  -5 3.5 0  -5 3.4 0  -5 3.3 0  -5 3.2 0  -5 3.1 0  -5 3 0  -5 2.9 0  -5 2.8 0  -5 2.7 0  -5 2.6 0  -5 2.5 0  -5 2.4 0  -5 2.3 0  -5 2.2 0  -5 2.1 0  -5 2 0  -5 1.9 0  -5 1.8 0  -5 1.7 0  -5 1.6 0  -5 1.5 0  -5 1.4 0  -5 1.3 0  -5 1.2 0  -5 1.1 0  -5 1 0  -5 0.9000000000000004 0  -5 0.7999999999999998 0  -5 0.7000000000000002 0  -5 0.5999999999999996 0  -5 0.5 0  -5 0.4000000000000004 0  -5 0.2999999999999998 0  -5 0.2000000000000002 0  -5 0.09999999999999964 0  -5 0 0  -5 -0.09999999999999964 0  -5 -0.2000000000000002 0  -5 -0.2999999999999998 0  -5 -0.4000000000000004 0  -5 -0.5 0  -5 -0.5999999999999996 0  -5 -0.7000000000000002 0  -5 -0.7999999999999998 0  -5 -0.9000000000000004 0  -5 -1 0  -5 -1.1 0  -5 -1.2 0  -5 -1.3 0  -5 -1.4 0  -5 -1.5 0  -5 -1.6 0  -5 -1.7 0  -5 -1.8 0  -5 -1.9 0  -5 -2 0  -5 -2.1 0  -5 -2.2 0  -5 -2.3 0  -5 -2.4 0  -5 -2.5 0  -5 -2.6 0  -5 -2.7 0  -5 -2.8 0  -5 -2.9 0  -5 -3 0  -5 -3.1 0  -5 -3.199999999999999 0  -5 -3.300000000000001 0  -5 -3.4 0  -5 -3.5 0  -5 -3.6 0  -5 -3.699999999999999 0  -5 -3.800000000000001 0  -5 -3.9 0  -5 -4 0  -5 -4.1 0  -5 -4.199999999999999 0  -5 -4.300000000000001 0  -5 -4.4 0  -5 -4.5 0  -5 -4.6 0  -5 -4.699999999999999 0  -5 -4.800000000000001 0  -5 -4.9 0  1.257380740262842 0.09244018452153585 0  1.235201021496801 0.1901767302262297 0  1.201232381131208 0.2870950737522934 0  1.158566429678789 0.375658091089859 0  1.099739494465476 0.4668797482413126 0  1.032840356033726 0.5501064731446428 0  0.9543644314993138 0.6307146887511181 0  0.8671208006269862 0.7055607604210004 0  0.7752993292087926 0.7706371321285658 0  0.6736995183810059 0.828119366260903 0  0.5599272421283257 0.8803663782406496 0  0.4460017309644754 0.9254494611443743 0  0.3359882398166307 0.9568591782734387 0  0.2088140487653897 0.9797666985883422 0  0.08706886863674138 0.9979229174241496 0  -0.02610769794136293 1.001554419843344 0  -0.1437740816232133 0.988057773781894 0  -0.2745656033455244 0.9678795069243377 0  -0.3950502258391747 0.943583357483852 0  -0.5040890786107117 0.9087598050522683 0  -0.6134356437532165 0.8624016415370187 0  -0.7153170652187676 0.8071306676404318 0  -0.8096107396893442 0.7429380668076654 0  -0.9013205667551331 0.6691887792494792 0  -0.9881174471243562 0.588727807537204 0  -1.06312555034418 0.5068221188911783 0  -1.125499272358489 0.4227556809422701 0  -1.181389640141447 0.3281485872450249 0  -1.218531261121898 0.2419575470863085 0  -1.242755287913737 0.1485110902183615 0  -1.252835969781491 0.05288891677638597 0  -1.252766240496177 -0.05058456019925552 0  -1.242581107407272 -0.1454694043694344 0  -1.218173684021573 -0.2356003505110461 0  -1.175689801396414 -0.3312203944566832 0  -1.12579515627843 -0.4239175815247743 0  -1.065448842845088 -0.5065607248846627 0  -0.9907209632426027 -0.5877435471189119 0  -0.9045210288693885 -0.6671564589288564 0  -0.8138589686050115 -0.7382301649070604 0  -0.7188245574549627 -0.7986633250740874 0  -0.6143719354126279 -0.8521586969038428 0  -0.497839014674045 -0.9019623419506358 0  -0.3856498777957237 -0.9418261301257193 0  -0.2712579390420943 -0.9677477778194705 0  -0.1419523189323347 -0.9881539933928264 0  -0.02743115289912416 -1.000780126340789 0  0.08516401678527741 -0.9934037204106606 0  0.2157450094377898 -0.9753298807318269 0  0.3390884404681006 -0.9549045207554423 0  0.4502793619226592 -0.9241044962062676 0  0.5628155050159821 -0.8795635409131626 0  0.6750673322936105 -0.8278904213785512 0  0.7749600259571199 -0.7719139369483499 0  0.8658799451214084 -0.7074964046295406 0  0.951425643324469 -0.6317611826646246 0  1.030532294332956 -0.5485418024650399 0  1.101752926776808 -0.464800348790197 0  1.159513358742247 -0.3758186555473588 0  1.203096431425822 -0.2851825268167834 0  1.235945325186356 -0.1896243253685911 0  1.257794977145325 -0.09267691119169359 0  -2.448511701474589 4.918026238614569 0  -2.448381035767397 -4.910396315588575 0  4.910316736955997 2.447824650768844 0  4.918452756888954 -2.449292868604233 0  2.446102081287294 -4.895611027706566 0  2.440537468143681 4.899377227165768 0  -4.910344048591868 -2.447851878712634 0  -4.910341371288018 2.447856099958825 0  -1.748463799840585 4.910874419779357 0  -1.744252147925866 -4.914320779663534 0  4.92046620575157 1.744006176147237 0  4.908976217421149 -1.747758420160779 0  -4.9092713018016 -1.747493430390473 0  -4.91009526120125 1.747239392885519 0  1.745732646234076 4.904720076336245 0  1.747139296483028 -4.892846181148952 0  -1.148785262288367 4.908627217044192 0  -1.129646742669019 -4.916558819043019 0  -4.908944103536622 -1.147834798333791 0  -4.908761956595244 1.147635628406556 0  1.143782984776076 -4.912734980418135 0  1.148794614100325 4.908613150983583 0  4.90908326410697 1.146109373684574 0  4.919944921384773 -1.151902679699582 0  -0.5466391412939817 -4.909799847666989 0  -0.5464253499598177 4.918506033034643 0  -4.907640651913373 -0.5486567431748947 0  -4.907664643668646 0.5472152093448005 0  4.906956465780667 -0.5489746610309123 0  4.91865079339799 0.5457383378975142 0  0.5424186696663675 -4.896643607925598 0  0.5511522083274734 4.915320347570623 0  -4.911806622648144 -3.048222102413478 0  4.918383740246774 3.046242828974099 0  4.911313835826038 -3.04819689417611 0  -4.912655102175492 3.045314487289654 0  3.055243465895482 -4.917305293147084 0  -3.048569790774007 -4.911235269949144 0  3.052138489441519 4.913314610693209 0  -3.048016104004715 4.912126001610913 0  -4.906735311003394 -0.04990245884796643 0  0.04511796212569608 -4.911748044657132 0  0.04956470840854541 4.918793612123443 0  4.913812748505347 -0.05128533676524156 0  3.545574116875557 -4.918972844615062 0  -3.5488506820318
[...]
<PointData  Vectors="f_6858"> 
<DataArray  type="Float64"  Name="f_6858"  NumberOfComponents="3" format="ascii">1.3202596816927859e-40 1.0133411648448744e-40 0.0000000000000000e+00  -1.1594177495549308e-40 9.0709289450371363e-41 0.0000000000000000e+00  -3.4502689279007929e-41 -9.4199809559287779e-42 0.0000000000000000e+00  1.1579502335447456e-40 -1.0595871432977482e-40 0.0000000000000000e+00  1.0796965154263040e+01 -2.6611568435527724e-03 0.0000000000000000e+00  -2.3717072266317098e-40 -1.8764494329285027e-40 0.0000000000000000e+00  3.4018909859368012e-40 2.2185246592315669e-40 0.0000000000000000e+00  -1.1656836380816833e-39 -8.2420450228214645e-40 0.0000000000000000e+00  -4.7093357398550352e-39 -3.9839387671461875e-39 0.0000000000000000e+00  4.8218857397707310e-39 3.8230201438437977e-39 0.0000000000000000e+00  -6.4309635411759407e-38 -4.1476072396622139e-38 0.0000000000000000e+00  4.6042787623045631e-38 1.1318308260924857e-38 0.0000000000000000e+00  -9.1205792164807868e-37 -1.0072618581043530e-36 0.0000000000000000e+00  9.4858545271504353e-36 1.0852922452346621e-35 0.0000000000000000e+00  -3.4123556219734648e-35 -4.0072871997610731e-35 0.0000000000000000e+00  7.7172173131603527e-35 9.6040429199574077e-35 0.0000000000000000e+00  -1.7702262241231624e-34 -2.3399207456752666e-34 0.0000000000000000e+00  -7.3431044929515645e-34 -7.6697470662118865e-34 0.0000000000000000e+00  2.4116827444764981e-33 2.9445747524430447e-33 0.0000000000000000e+00  -3.9361346568765845e-33 -7.1282891889066891e-33 0.0000000000000000e+00  3.0094070594661406e-32 4.4971490693803441e-32 0.0000000000000000e+00  -8.4591899824353221e-32 -1.2166508229402408e-31 0.0000000000000000e+00  -7.5814038451573184e-32 -6.0730919953604476e-32 0.0000000000000000e+00  5.7372547367927217e-31 5.3532495287714726e-31 0.0000000000000000e+00  8.7024567801682798e-32 3.8596668445123588e-31 0.0000000000000000e+00  -5.8018242071174336e-32 7.2709654951827556e-31 0.0000000000000000e+00  -8.4040379292501206e-31 -2.0807544108263574e-30 0.0000000000000000e+00  1.3553019591120295e-30 8.8585187357945093e-30 0.0000000000000000e+00  -6.3659999457423564e-30 -2.3509049065284911e-29 0.0000000000000000e+00  -4.2615693153380241e-30 -1.6781788732824291e-29 0.0000000000000000e+00  4.0088534643517789e-29 1.2036453839597891e-28 0.0000000000000000e+00  1.1429055764952163e-29 4.2365219160018741e-29 0.0000000000000000e+00  -2.3073541280702653e-30 -1.1174795930281851e-29 0.0000000000000000e+00  -2.1268822926859429e-29 -4.8979145088297641e-29 0.0000000000000000e+00  -5.0894267037365218e-29 2.4511049477127457e-29 0.0000000000000000e+00  -2.8139790754467208e-29 -2.8274617343332171e-28 0.0000000000000000e+00  -3.6215695355011181e-29 -2.3932700697543321e-28 0.0000000000000000e+00  -2.7217965042783649e-30 -6.0095893490125826e-29 0.0000000000000000e+00  5.8563824118475336e-29 4.4161428851535032e-28 0.0000000000000000e+00  8.3616270183345019e-29 6.4398253864127343e-28 0.0000000000000000e+00  9.6933131144673780e-29 5.8102112181848188e-28 0.0000000000000000e+00  4.7974599126541824e-29 -1.4589725513885929e-28 0.0000000000000000e+00  5.4027003625109769e-29 -1.2338382548426397e-29 0.0000000000000000e+00  7.4060975816749040e-29 3.8804156255884563e-28 0.0000000000000000e+00  1.8593045910724973e-29 -6.2155004030700872e-29 0.0000000000000000e+00  -1.6472460574728196e-28 -9.3216566998155948e-28 0.0000000000000000e+00  -8.1251611627722669e-29 -6.9135785340662622e-28 0.0000000000000000e+00  7.4255051523323396e-29 5.7600909763745233e-28 0.0000000000000000e+00  6.4761351883310471e-30 -8.7147715595164561e-28 0.0000000000000000e+00  -7.6005196187225294e-29 -2.5550761579064421e-28 0.0000000000000000e+00  -1.9027632387478368e-28 6.3845697565513467e-29 0.0000000000000000e+00  -2.0965101124976579e-28 -1.4604965356537583e-28 0.0000000000000000e+00  -1.3847716645374120e-28 -1.4756588148085378e-28 0.0000000000000000e+00  -1.2068081530613351e-29 2.9957207874206532e-28 0.0000000000000000e+00  2.8365499400568122e-30 3.9256542929106246e-28 0.0000000000000000e+00  -5.4376828260124321e-29 5.4456713084075244e-29 0.0000000000000000e+00  -1.0580847702600752e-28 -5.9569978802600182e-29 0.0000000000000000e+00  -1.2394463457167908e-28 -3.3552966165170842e-28 0.0000000000000000e+00  -1.0290077344951497e-28 -1.9537030832675866e-28 0.0000000000000000e+00  -1.2734588313893690e-28 -1.8835787578990830e-28 0.0000000000000000e+00  -1.7318219986559763e-28 -4.8025314900182218e-28 0.0000000000000000e+00  -1.6295918286471965e-28 -5.2154599846577098e-28 0.0000000000000000e+00  -8.4451697732163604e-29 -1.0603914333895464e-29 0.0000000000000000e+00  -4.9319308025955800e-29 4.2606896240575978e-28 0.0000000000000000e+00  -2.3676330507279489e-30 2.3283791433440617e-28 0.0000000000000000e+00  9.4108978172392141e-29 1.6405132715572172e-28 0.0000000000000000e+00  5.8330398752024140e-29 4.1416976438841467e-28 0.0000000000000000e+00  3.5907596431026778e-29 1.7411135332107280e-28 0.0000000000000000e+00  1.2732187825249131e-29 -3.2207069115520437e-28 0.0000000000000000e+00  -3.8174305978805691e-29 -2.1722469818796665e-28 0.0000000000000000e+00  -2.8345080521485824e-29 1.2406987293349860e-28 0.0000000000000000e+00  -8.2541370414827108e-29 8.0338789281243210e-29 0.0000000000000000e+00  -3.8016543828588344e-29 5.1537203669737506e-29 0.0000000000000000e+00  2.6594286276994200e-29 -7.5073228436246196e-30 0.0000000000000000e+00  3.3859063833158223e-29 -2.4291919304173893e-28 0.0000000000000000e+00  1.6731538387445395e-29 -7.7388491856791544e-29 0.0000000000000000e+00  -1.2537025744506935e-30 -5.6623121802809563e-30 0.0000000000000000e+00  -1.1794594798179919e-29 6.4461953114941419e-29 0.0000000000000000e+00  -1.6647021662234181e-29 8.3702283860748012e-29 0.0000000000000000e+00  3.1773500642962611e-30 -3.5743647646965197e-30 0.0000000000000000e+00  1.4050512616233100e-29 -4.9255263004695211e-29 0.0000000000000000e+00  -2.4237690094064138e-30 8.2090933126580845e-30 0.0000000000000000e+00  -7.4641208542789012e-31 2.3875369338101842e-30 0.0000000000000000e+00  3.4394390490277437e-30 -6.6596538636066497e-30 0.0000000000000000e+00  4.4659547571394655e-31 -5.2072074730122022e-31 0.0000000000000000e+00  -4.6500276257946785e-31 7.2368500735324200e-31 0.0000000000000000e+00  1.8466943215824470e-31 -3.1086858298454018e-31 0.0000000000000000e+00  -5.3673829617412637e-32 6.7119833202144407e-32 0.0000000000000000e+00  5.1135554383875265e-33 -6.8141875359494664e-33 0.0000000000000000e+00  3.5050373300365772e-33 -3.0510148496281163e-33 0.0000000000000000e+00  -4.8409219745627235e-33 4.8685396990902392e-33 0.0000000000000000e+00  1.5503645104258611e-34 -9.1074004554943914e-35 0.0000000000000000e+00  1.7791342841413925e-34 -2.0507862811082230e-34 0.0000000000000000e+00  -2.0170439249406960e-35 2.8542042579428538e-35 0.0000000000000000e+00  1.7567313785806991e-35 -1.8470177439418361e-35 0.0000000000000000e+00  -2.5946634324396569e-36 2.6799357045914704e-36 0.0000000000000000e+00  -2.2534428914854920e-37 2.2254212845678051e-37 0.0000000000000000e+00  2.4696069190942144e-38 -3.6957755713108518e-38 0.0000000000000000e+00  -2.1378670806413468e-38 2.4717952813797683e-38 0.0000000000000000e+00  6.3237555171699414e-39 -7.4573144785569859e-39 0.0000000000000000e+00  2.0696711449692730e-39 -1.0832933946668242e-39 0.0000000000000000e+00  -4.9377046848609142e-40 3.4478785741613743e-40 0.0000000000000000e+00  -1.6674830693007039e-40 1.5141880866698257e-40 0.0000000000000000e+00  1.7200425163971464e-40 -1.4259489492222575e-40 0.0000000000000000e+00  3.6231811353970434e-41 -2.7221007480640618e-41 0.0000000000000000e+00  1.7684491732315340e-40 -1.1483669889978576e-40 0.0000000000000000e+00  -3.1696190377691799e-40 1.9294228763343957e-40 0.0000000000000000e+00  3.4697614454833388e-41 1.5379248148434003e-40 0.0000000000000000e+00  1.6576392161038874e-39 -1.4600147059564950e-39 0.0000000000000000e+00  -5.3438281105654681e-39 3.5482263891311281e-39 0.0000000000000000e+00  7.0926435638531391e-39 -2.5547935542089452e-39 0.0000000000000000e+00  9.0873664100493243e-39 -1.2419049362848035e-38 0.0000000000000000e+00  -6.7654115223300870e-38 5.1145880579632925e-38 0.0000000000000000e+00  1.4723100738639566e-37 -8.2162592242297819e-38 0.0000000000000000e+00  -1.0693789321703948e-38 -6.1142806484070230e-38 0.0000000000000000e+00  -7.9906225438406005e-37 6.1333860759978999e-37 0.0000000000000000e+00  2.0438685100771466e-36 -1.2606285263911015e-36 0.0000000000000000e+00  -7.8958250354687269e-37 1.2872190560335356e-37 0.0000000000000000e+00  -1.0193577812988518e-35 6.8072459693002655e-36 0.0000000000000000e+00  2.8580250014344659e-35 -1.7812600424765916e-35 0.0000000000000000e+00  -4.7057888888515959e-36 5.1192530253466897e-36 0.0000000000000000e+00  -1.5232969105541648e-34 8.4872461745972523e-35 0.0000000000000000e+00  3.5989091833811151e-34 -2.2590892583881666e-34 0.0000000000000000e+00  1.7748043394048531e-34 -6.0018363339743472e-36 0.0000000000000000e+00  -2.4653709163031506e-33 1.2976878468586326e-33 0.0000000000000000e+00  3.3979207544076203e-33 -2.3518469838124143e-33 0.0000000000000000e+00  8.0778740508120292e-33 -3.1736434935028732e-33 0.0000000000000000e+00  -3.3272863554481326e-32 1.8507810334102819e-32 0.0000000000000000e+00  5.8160375777967946e-33 -9.1907539486120964e-33 0.0000000000000000e+00  1.6604739261926381e-31 -8.4927828734738211e-32 0.0000000000000000e+00  -2.2905136556294234e-31 1.3390292356216736e-31 0.0000000000000000e+00  -5.4756534947113613e-31 2.8516903623663110e-31 0.0000000000000000e+00  1.6432225012057570e-30 -8.5472917640174313e-31 0.0000000000000000e+00  1.0475271183603371e-30 -7.5543546919667089e-31 0.0000000000000000e+00  -7.9104652525599116e-30 3.9563938177454062e-30 0.0000000000000000e+00  6.8045012927234305e-31 1.8198150939663913e-30 0.0000000000000000e+00  3.0584046330288073e-29 -1.4613225670498565e-29 0.0000000000000000e+00  -1.8202848917330710e-29 -4.2916705785240273e-30 0.0000000000000000e+00  -1.0541925497856465e-28 4.0491902528965893e-29 0.0000000000000000e+00  1.2838136110893423e-28 -9.8913378999625457e-30 0.0000000000000000e+00  3.6440703054018380e-28 -7.6344772044223078e-29 0.0000000000000000e+00  -7.2474657870109183e-28 2.6279985411510908e-28 0.0000000000000000e+00  -2.2608799463639508e-27 7.2654171987125845e-28 0.0000000000000000e+00  2.1864390306811659e-27 -1.2036957456909678e-27 0.0000000000000000e+00  1.1406542573034068e-26 -4.9113275971703847e-27 0.0000000000000000e+00  1.5098508846923229e-26 -6.7732864121112738e-27 0.0000000000000000e+00  -3.9430181499217848e-27 -7.8039257372040871e-28 0.0000000000000000e+00  -4.6409963672709496e-26 1.2631128487371913e-26 0.0000000000000000e+00  -9.6548999177090978e-26 2.8796123464081420e-26 0.0000000000000000e+00  -1.5730534222487296e-25 5.0704788311405055e-26 0.0000000000000000e+00  -2.1730460810756123e-25 7.0783671896805650e-26 0.0000000000000000e+00  -2.9065326891485373e-25 7.6353911549966937e-26 0.0000000000000000e+00  -3.4801696385874865e-25 4.5883351277012344e-26 0.0000000000000000e+00  -3.8627594028360940e-25 -1.0822373665611718e-26 0.0000000000000000e+00  -3.8435900880496104e-25 -6.2195062994507351e-26 0.0000000000000000e+00  -3.3047873829680001e-25 -7.8592182175228579e-26 0.0000000000000000e+00  -2.3952047909023109e-25 -6.4649006601122869e-26 0.0000000000000000e+00  -1.3884019359429331e-25 -4.1294939257516488e-26 0.0000000000000000e+00  -5.9673671355162274e-26 -2.1577605382122723e-26 0.0000000000000000e+00  -7.6323551456942713e-27 -4.6878556672258053e-27 0.0000000000000000e+00  1.6812498713262886e-26 7.0911463559548860e-27 0.0000000000000000e+00  1.9329976203803991e-26 9.7261569495595725e-27 0.0000000000000000e+00  9.3473731193015436e-27 5.0910816300788477e-27 0.0000000000000000e+00  2.2170457291606209e-28 3.9499097118037968e-28 0.0000000000000000e+00  -1.9421958727346551e-27 -8.0942303651611981e-28 0.0000000000000000e+00  -5.0134475593085384e-28 -2.3349407920117422e-28 0.0000000000000000e+00  3.9124397885129914e-28 1.3040379678668013e-28 0.0000000000000000e+00  1.2057577474883966e-28 3.1556280870228552e-29 0.0000000000000000e+00  -1.0028770647719746e-28 -3.6962037729198346e-29 0.0000000000000000e+00  -2.1421980392916487e-29 -2.1701594479174428e-30 0.0000000000000000e+00  2.7239625375441222e-29 1.1147656853290995e-29 0.0000000000000000e+00  1.2666018101678033e-30 -9.1119660941914086e-31 0.0000000000000000e+00  -6.7612914040498049e-30 -2.8791688962867980e-30 0.0000000000000000e+00  7.9675629381590412e-31 5.5563811919254370e-31 0.0000000000000000e+00  1.2928014890486511e-30 5.7833183694775152e-31 0.0000000000000000e+00  -4.4879413311588716e-31 -2.2141387447195203e-31 0.0000000000000000e+00  -1.7054532338562570e-31 -8.8133210725903902e-32 0.0000000000000000e+00  1.2987953073527241e-31 6.3990968917190719e-32 0.0000000000000000e+00  -7.8809694040757166e-34 3.8031286476048194e-33 0.0000000000000000e+00  -2.4349392125398712e-32 -1.3794370737439620e-32 0.0000000000000000e+00  6.5118260342308147e-33 2.5013141715088468e-33 0.0000000000000000e+00  2.7586970086287273e-33 2.1641600953848549e-33 0.0000000000000000e+00  -1.9763643187478224e-33 -1.1039229584548041e-33 0.0000000000000000e+00  8.9168574710395064e-35 -8.7490700099491528e-35 0.0000000000000000e+00  2.9608247756562537e-34 2.2407754638447941e-34 0.0000000000000000e+00  -1.0783655203849688e-34 -5.8967615755455589e-35 0.0000000000000000e+00  -1.6919606586667973e-35 -2.0889937300105984e-35 0.0000000000000000e+00  2.4104087178408573e-35 1.7975173821881253e-35 0.0000000000000000e+00  -5.3631516536690545e-36 -3.1296263758606637e-36 0.0000000000000000e+00  -2.1840756430888002e-36 -1.7904515967302295e-36 0.0000000000000000e+00  1.7106278382916983e-36 1.1961897574537469e-36 0.0000000000000000e+00  -3.0698573875527562e-37 -2.0123020202148970e-37 0.0000000000000000e+00  -1.6874765650853246e-37 -1.0485979066274737e-37 0.0000000000000000e+00  1.2762296247508095e-37 7.6118707997769616e-38 0.0000000000000000e+00  -3.0173095567876185e-38 -1.7851326419470020e-38 0.0000000000000000e+00  -6.8480758203337580e-39 -2.9599436890722199e-39 0.0000000000000000e+00  8.2165660419854383e-39 3.8304075792707389e-39 0.0000000000000000e+00  -3.1801126922553157e-39 -1.4535314815870254e-39 0.0000000000000000e+00  3.2956704118969007e-40 1.9298051923433053e-40 0.0000000000000000e+00  3.0350660449011450e-40 8.5260456405513543e-41 0.0000000000000000e+00  -2.1804430684125861e-40 -7.2111079624458946e-41 0.0000000000000000e+00  6.6424189068101619e-41 2.0858362225405479e-41 0.0000000000000000e+00  -1.6782310000368369e-41 -1.3336759049982196e-41 0.0000000000000000e+00  6.2021712428740706e-41 1.8833658356649140e-41 0.0000000000000000e+00  4.0534815834943109e-41 4.9136255500452291e-41 0.0000000000000000e+00  -2.4042167237647800e-40 -2.0725976509701373e-40 0.0000000000000000e+00  3.3886058356083007e-39 2.4466503433509674e-39 0.0000000000000000e+00  -1.4089649115127039e-38 -1.2827184143739934e-38 0.0000000000000000e+00  5.9107223304838195e-38 5.5472458523177019e-38 0.0000000000000000e+00  -1.5921350085013550e-37 -1.4754748853893685e-37 0.0000000000000000e+00  1.0791025790018210e-36 1.1112163523996252e-36 0.0000000000000000e+00  -2.0126672899182805e-36 -2.5955285916108219e-36 0.0000000000000000e+00  1.8300908230832443e-36 5.2208568768186016e-36 0.0000000000000000e+00  1.4007136473218331e-35 6.5910607129721299e-36 0.0000000000000000e+00  -1.6390813326480203e-34 -1.4325290188046457e-34 0.0000000000000000e+00  5.5984512820204584e-34 4.9698727402332433e-34 0.0000000000000000e+00  -1.9088286475206210e-33 -1.8383333895083127e-33 0.0000000000000000e+00  2.9294679814542664e-33 1.9420721108495947e-33 0.0000000000000000e+00  4.0184826624992479e-33 4.6049251995742081e-33 0.0000000000000000e+00  -3.1229641318548011e-32 -2.1486221806591629e-32 0.0000000000000000e+00  -8.7911475128918362e-32 -1.3593260300189947e-31 0.0000000000000000e+00  2.0936182532896168e-31 4.2830570944511850e-31 0.0000000000000000e+00  -3.5474957189176009e-31 -8.2238429306623109e-31 0.0000000000000000e+00  -2.4215526379960497e-31 -2.9086387056569958e-31 0.0000000000000000e+00  1.9138150997119754e-30 2.5815181115260310e-30 0.0000000000000000e+00  -6.7295620765880835e-32 -3.9178146155737374e-32 0.0000000000000000e+00  4.2150320176606770e-30 1.2997096433873859e-29 0.0000000000000000e+00  -5.6878096726919896e-30 -7.6524142824902312e-30 0.0000000000000000e+00  -1.2191272261526228e-29 1.7329648160161035e-29 0.0000000000000000e+00  -2.9477982118886143e-30 -4.6009017605892138e-29 0.0000000000000000e+00  -2.9022363502515923e-29 -2.2546586611032600e-28 0.0000000000000000e+00  -1.5905648357842282e-29 -7.8797133252314554e-29 0.0000000000000000e+00  3.2049521540710989e-29 1.7035157355124786e-28 0.0000000000000000e+00  4.6629087724380628e-29 2.5482966700094232e-28 0.0000000000000000e+00  -1.2156535544562374e-29 -1.7176698623195475e-28 0.0000000000000000e+00  5.3921923306385795e-30 -3.7918306039594550e-28 0.0000000000000000e+00  -3.2186842215801217e-29 -8.8750865906757130e-29 0.0000000000000000e+00  -1.0571314508228891e-28 -8.3000503443145625e-29 0.0000000000000000e+00  -8.7275664849483588e-29 1.9491816976562941e-28 0.0000000000000000e+00  -1.1449309676996991e-28 1.0650119848277859e-28 0.0000000000000000e+00  -9.8531133266836600e-29 -8.8209666027123333e-29 0.0000000000000000e+00  -7.9319345411781688e-29 -5.8718544885314233e-29 0.0000000000000000e+00  -7.5955193262257153e-29 -2.0479440820557948e-28 0.0000000000000000e+00  1.4811695505717843e-28 -4.4324578624018148e-28 0.0000000000000000e+00  2.3849495222403568e-28 -6.4691546963551447e-29 0.0000000000000000e+00  2.1138603617375086e-28 5.4869653666770113e-28 0.0000000000000000e+00  1.5624887493605054e-28 -3.2157909349615729e-29 0.0000000000000000e+00  2.1060700240878323e-29 -8.2897794413970960e-28 0.0000000000000000e+00  8.2642982832644856e-29 4.2301507031543011e-28 0.0000000000000000e+00  8.1996159780532166e-29 3.8232046823281703e-28 0.0000000000000000e+00  6.9103066911621162e-29 -5.9910941894958019e-28 0.0000000000000000e+00  5.2902962526076668e-29 -1.7760922250566992e-28 0.0000000000000000e+00  8.5245959105994996e-29 -5.5231504148146919e-28 0.0000000000000000e+00  -4.6386383879205389e-29 4.5455947829290140e-28 0.0000000000000000e+00  -4.9977796138681252e-29 4.6687710021371700e-28 0.0000000000000000e+00  6.7754097323222008e-29 -5.6037143846897210e-28 0.0000000000000000e+00  1.9375655162720065e-29 -1.9873846409847713e-28 0.0000000000000000e+00  5.4402192061180721e-29 -3.1615341498645823e-28 0.0000000000000000e+00  -3.2829628813567631e-30 -1.4353156344880908e-28 0.0000000000000000e+00  -1.2301324347434133e-29 -5.4649594489581882e-29 0.0000000000000000e+00  5.0993387168481022e-29 -3.0749881275952427e-28 0.0000000000000000e+00  1.1190344965424810e-29 -1.3117077768667898e-28 0.0000000000000000e+00  4.7873664732604830e-29 -1.6084193317375241e-28 0.0000000000000000e+00  5.0979659414680718e-29 -2.1995612424792636e-28 0.0000000000000000e+00  4.2668256601804292e-29 -1.2931415058470217e-28 0.0000000000000000e+00  -6.1774586791768222e-30 4.6202560446549992e-29 0.0000000000000000e+00  -4.3946493060716199e-29 1.8891251974712462e-28 0.0000000000000000e+00  -7.3789833368769223e-30 -2.0055372669261245e-29 0.0000000000000000e+00  7.9197890346242246e-30 -1.2409209342779790e-28 0.0000000000000000e+00  1.2962277404059648e-29 -8.0179080152157282e-29 0.0000000000000000e+00  1.7510431904041551e-29 -4.8061503353244551e-29 0.0000000000000000e+00  -1.2228129121955280e-29 6.9090055616043229e-29 0.0000000000000000e+00  -3.5203504788709122e-29 2.5273323432956242e-28 0.0000000000000000e+00  -1.5268418039715302e-29 9.4737239581029077e-29 0.0000000000000000e+00  2.0934186138871591e-30 -6.1323627797050018e-29 0.0000000000000000e+00  8.1562147603316409e-30 -1.3923936234708819e-29 0.0000000000000000e+00  -2.2866094940258982e-30 9.5793310629127495e-30 0.0000000000000000e+00  -5.6327910023239088e-30 2.3124472311919654e-29 0.0000000000000000e+00  2.2458505319461281e-30 -6.2652995036476779e-30 0.0000000000000000e+00  3.0224991776657936e-30 -8.6184004980952311e-30 0.0000