<?xml version="1.0"?>
<VTKFile type="UnstructuredGrid"  version="0.1"  >
<UnstructuredGrid>
<Piece  NumberOfPoints="11902" NumberOfCells="23402">
<Points>
<DataArray  type="Float64"  NumberOfComponents="3"  format="ascii">-5 -5 0  5 -5 0  5 5 0  -5 5 0  1.226288817375398 0.001374090916059526 0  -4.9 -5 0  -4.8 -5 0  -4.7 -5 0  -4.6 -5 0  -4.5 -5 0  -4.4 -5 0  -4.3 -5 0  -4.2 -5 0  -4.1 -5 0  -4 -5 0  -3.9 -5 0  -3.8 -5 0  -3.7 -5 0  -3.6 -5 0  -3.5 -5 0  -3.4 -5 0  -3.3 -5 0  -3.2 -5 0  -3.1 -5 0  -3 -5 0  -2.9 -5 0  -2.8 -5 0  -2.7 -5 0  -2.6 -5 0  -2.5 -5 0  -2.4 -5 0  -2.3 -5 0  -2.2 -5 0  -2.1 -5 0  -2 -5 0  -1.9 -5 0  -1.8 -5 0  -1.7 -5 0  -1.6 -5 0  -1.5 -5 0  -1.4 -5 0  -1.3 -5 0  -1.2 -5 0  -1.1 -5 0  -1 -5 0  -0.9000000000000004 -5 0  -0.7999999999999998 -5 0  -0.7000000000000002 -5 0  -0.5999999999999996 -5 0  -0.5 -5 0  -0.4000000000000004 -5 0  -0.2999999999999998 -5 0  -0.2000000000000002 -5 0  -0.09999999999999964 -5 0  0 -5 0  0.09999999999999964 -5 0  0.2000000000000002 -5 0  0.2999999999999998 -5 0  0.4000000000000004 -5 0  0.5 -5 0  0.5999999999999996 -5 0  0.7000000000000002 -5 0  0.7999999999999998 -5 0  0.9000000000000004 -5 0  1 -5 0  1.1 -5 0  1.2 -5 0  1.3 -5 0  1.4 -5 0  1.5 -5 0  1.6 -5 0  1.7 -5 0  1.8 -5 0  1.9 -5 0  2 -5 0  2.1 -5 0  2.2 -5 0  2.3 -5 0  2.4 -5 0  2.5 -5 0  2.6 -5 0  2.7 -5 0  2.8 -5 0  2.9 -5 0  3 -5 0  3.1 -5 0  3.199999999999999 -5 0  3.300000000000001 -5 0  3.4 -5 0  3.5 -5 0  3.6 -5 0  3.699999999999999 -5 0  3.800000000000001 -5 0  3.9 -5 0  4 -5 0  4.1 -5 0  4.199999999999999 -5 0  4.300000000000001 -5 0  4.4 -5 0  4.5 -5 0  4.6 -5 0  4.699999999999999 -5 0  4.800000000000001 -5 0  4.9 -5 0  5 -4.9 0  5 -4.8 0  5 -4.7 0  5 -4.6 0  5 -4.5 0  5 -4.4 0  5 -4.3 0  5 -4.2 0  5 -4.1 0  5 -4 0  5 -3.9 0  5 -3.8 0  5 -3.7 0  5 -3.6 0  5 -3.5 0  5 -3.4 0  5 -3.3 0  5 -3.2 0  5 -3.1 0  5 -3 0  5 -2.9 0  5 -2.8 0  5 -2.7 0  5 -2.6 0  5 -2.5 0  5 -2.4 0  5 -2.3 0  5 -2.2 0  5 -2.1 0  5 -2 0  5 -1.9 0  5 -1.8 0  5 -1.7 0  5 -1.6 0  5 -1.5 0  5 -1.4 0  5 -1.3 0  5 -1.2 0  5 -1.1 0  5 -1 0  5 -0.9000000000000004 0  5 -0.7999999999999998 0  5 -0.7000000000000002 0  5 -0.5999999999999996 0  5 -0.5 0  5 -0.4000000000000004 0  5 -0.2999999999999998 0  5 -0.2000000000000002 0  5 -0.09999999999999964 0  5 0 0  5 0.09999999999999964 0  5 0.2000000000000002 0  5 0.2999999999999998 0  5 0.4000000000000004 0  5 0.5 0  5 0.5999999999999996 0  5 0.7000000000000002 0  5 0.7999999999999998 0  5 0.9000000000000004 0  5 1 0  5 1.1 0  5 1.2 0  5 1.3 0  5 1.4 0  5 1.5 0  5 1.6 0  5 1.7 0  5 1.8 0  5 1.9 0  5 2 0  5 2.1 0  5 2.2 0  5 2.3 0  5 2.4 0  5 2.5 0  5 2.6 0  5 2.7 0  5 2.8 0  5 2.9 0  5 3 0  5 3.1 0  5 3.199999999999999 0  5 3.300000000000001 0  5 3.4 0  5 3.5 0  5 3.6 0  5 3.699999999999999 0  5 3.800000000000001 0  5 3.9 0  5 4 0  5 4.1 0  5 4.199999999999999 0  5 4.300000000000001 0  5 4.4 0  5 4.5 0  5 4.6 0  5 4.699999999999999 0  5 4.800000000000001 0  5 4.9 0  4.9 5 0  4.8 5 0  4.7 5 0  4.6 5 0  4.5 5 0  4.4 5 0  4.3 5 0  4.2 5 0  4.1 5 0  4 5 0  3.9 5 0  3.8 5 0  3.7 5 0  3.6 5 0  3.5 5 0  3.4 5 0  3.3 5 0  3.2 5 0  3.1 5 0  3 5 0  2.9 5 0  2.8 5 0  2.7 5 0  2.6 5 0  2.5 5 0  2.4 5 0  2.3 5 0  2.2 5 0  2.1 5 0  2 5 0  1.9 5 0  1.8 5 0  1.7 5 0  1.6 5 0  1.5 5 0  1.4 5 0  1.3 5 0  1.2 5 0  1.1 5 0  1 5 0  0.9000000000000004 5 0  0.7999999999999998 5 0  0.7000000000000002 5 0  0.5999999999999996 5 0  0.5 5 0  0.4000000000000004 5 0  0.2999999999999998 5 0  0.2000000000000002 5 0  0.09999999999999964 5 0  0 5 0  -0.09999999999999964 5 0  -0.2000000000000002 5 0  -0.2999999999999998 5 0  -0.4000000000000004 5 0  -0.5 5 0  -0.5999999999999996 5 0  -0.7000000000000002 5 0  -0.7999999999999998 5 0  -0.9000000000000004 5 0  -1 5 0  -1.1 5 0  -1.2 5 0  -1.3 5 0  -1.4 5 0  -1.5 5 0  -1.6 5 0  -1.7 5 0  -1.8 5 0  -1.9 5 0  -2 5 0  -2.1 5 0  -2.2 5 0  -2.3 5 0  -2.4 5 0  -2.5 5 0  -2.6 5 0  -2.7 5 0  -2.8 5 0  -2.9 5 0  -3 5 0  -3.1 5 0  -3.199999999999999 5 0  -3.300000000000001 5 0  -3.4 5 0  -3.5 5 0  -3.6 5 0  -3.699999999999999 5 0  -3.800000000000001 5 0  -3.9 5 0  -4 5 0  -4.1 5 0  -4.199999999999999 5 0  -4.300000000000001 5 0  -4.4 5 0  -4.5 5 0  -4.6 5 0  -4.699999999999999 5 0  -4.800000000000001 5 0  -4.9 5 0  -5 4.9 0  -5 4.8 0  -5 4.7 0  -5 4.6 0  -5 4.5 0  -5 4.4 0  -5 4.3 0  -5 4.2 0  -5 4.1 0  -5 4 0  -5 3.9 0  -5 3.8 0  -5 3.7 0  -5 3.6 0  -5 3.5 0  -5 3.4 0  -5 3.3 0  -5 3.2 0  -5 3.1 0  -5 3 0  -5 2.9 0  -5 2.8 0  -5 2.7 0  -5 2.6 0  -5 2.5 0  -5 2.4 0  -5 2.3 0  -5 2.2 0  -5 2.1 0  -5 2 0  -5 1.9 0  -5 1.8 0  -5 1.7 0  -5 1.6 0  -5 1.5 0  -5 1.4 0  -5 1.3 0  -5 1.2 0  -5 1.1 0  -5 1 0  -5 0.9000000000000004 0  -5 0.7999999999999998 0  -5 0.7000000000000002 0  -5 0.5999999999999996 0  -5 0.5 0  -5 0.4000000000000004 0  -5 0.2999999999999998 0  -5 0.2000000000000002 0  -5 0.09999999999999964 0  -5 0 0  -5 -0.09999999999999964 0  -5 -0.2000000000000002 0  -5 -0.2999999999999998 0  -5 -0.4000000000000004 0  -5 -0.5 0  -5 -0.5999999999999996 0  -5 -0.7000000000000002 0  -5 -0.7999999999999998 0  -5 -0.9000000000000004 0  -5 -1 0  -5 -1.1 0  -5 -1.2 0  -5 -1.3 0  -5 -1.4 0  -5 -1.5 0  -5 -1.6 0  -5 -1.7 0  -5 -1.8 0  -5 -1.9 0  -5 -2 0  -5 -2.1 0  -5 -2.2 0  -5 -2.3 0  -5 -2.4 0  -5 -2.5 0  -5 -2.6 0  -5 -2.7 0  -5 -2.8 0  -5 -2.9 0  -5 -3 0  -5 -3.1 0  -5 -3.199999999999999 0  -5 -3.300000000000001 0  -5 -3.4 0  -5 -3.5 0  -5 -3.6 0  -5 -3.699999999999999 0  -5 -3.800000000000001 0  -5 -3.9 0  -5 -4 0  -5 -4.1 0  -5 -4.199999999999999 0  -5 -4.300000000000001 0  -5 -4.4 0  -5 -4.5 0  -5 -4.6 0  -5 -4.699999999999999 0  -5 -4.800000000000001 0  -5 -4.9 0  1.219783852486055 0.09787634773323863 0  1.200078488209622 0.1953861561896412 0  1.167654930972895 0.2922391584057644 0  1.125907987774822 0.3827477414651512 0  1.071181893465814 0.47325643308657 0  1.00738613343005 0.5581481468269766 0  0.9321664275144574 0.6379164746368365 0  0.847938634283148 0.7111073031814162 0  0.757066344354167 0.7765274726822919 0  0.6569883204621322 0.834630010621092 0  0.5495388743653887 0.8862565206012233 0  0.4389388258425869 0.9287488953412315 0  0.3264312954626829 0.9616370806117439 0  0.2065927779354587 0.9837367993868245 0  0.08928744230616346 1.000056951051439 0  -0.02769572664972347 1.002966994396451 0  -0.145128545687958 0.9916728742331026 0  -0.2665593878704557 0.973612485271929 0  -0.3832837853689614 0.9480947907285913 0  -0.4938095166104322 0.9117004118964345 0  -0.6004741581389007 0.8657142600405898 0  -0.7016917245520945 0.811128179849148 0  -0.7953794802751666 0.7475017807635995 0  -0.8835249885391935 0.6760318389844325 0  -0.9649804928750766 0.5975032096399914 0  -1.035565187865452 0.5156744000547591 0  -1.095950268086517 0.429224449631431 0  -1.145258655883268 0.3375507691204664 0  -1.18201617319531 0.2446981195819067 0  -1.206367726585977 0.1491785073573384 0  -1.21855934712484 0.05070970111580528 0  -1.218528079207355 -0.04870274631578744 0  -1.206237197882252 -0.1467053603610133 0  -1.182291272856975 -0.2420628749513118 0  -1.144141188763856 -0.3374010372116198 0  -1.09621788320303 -0.4283581992206499 0  -1.036747499647675 -0.5150206991690491 0  -0.9668799275831939 -0.5962978699267117 0  -0.8859479183621222 -0.673552475910061 0  -0.7977201901907588 -0.7436994809560359 0  -0.7024435180831842 -0.8047596524456887 0  -0.60036603346614 -0.8586696962654741 0  -0.4904105293120596 -0.9066167118651183 0  -0.3787699150673223 -0.9451273793136715 0  -0.2633306696612493 -0.9726392798289504 0  -0.1437623586843089 -0.990994899396835 0  -0.02774711734209567 -1.002042798691968 0  0.08975342901223483 -0.9965021910803834 0  0.2103783712348792 -0.9810850376972654 0  0.328479773524178 -0.9599893292259709 0  0.4427766282296806 -0.927353528910814 0  0.5515487974050798 -0.8853350104551095 0  0.6578049498610888 -0.8344659891733334 0  0.7571673018885573 -0.7776601071866021 0  0.8479858310645363 -0.711970179035174 0  0.9316013346875851 -0.6375274269796495 0  1.005499676380584 -0.5575101356595142 0  1.071036294288309 -0.4725251361890551 0  1.126879642655627 -0.38279606550181 0  1.169238926187264 -0.2904620973604984 0  1.20048396825567 -0.1944977795335981 0  1.219871210886493 -0.09742877361473393 0  -2.448674630922977 4.918321338692125 0  -2.448558978852635 -4.910718552557845 0  4.910647895803492 2.448053616403715 0  4.918753316502143 -2.449500718351965 0  2.446308846773638 -4.895989136923102 0  2.440737658065428 4.89974321772702 0  -4.91067323266698 -2.448078352303534 0  -4.910670942164715 2.448082214611367 0  -1.748633026082973 4.911301847150455 0  -1.744414686710797 -4.91473157685976 0  4.92088441394161 1.744213486907891 0  4.909453795739079 -1.747995528698925 0  -4.909744608317149 -1.747727473119613 0  -4.910564719205291 1.747470646675542 0  1.745913223905911 4.905179639773712 0  1.747341279464226 -4.893361930944489 0  -1.148920303497952 4.909147131833728 0  -1.129768849759138 -4.917034650675395 0  -4.909536571983984 -1.148027438960679 0  -4.909355980613258 1.147827726593018 0  1.14390996381516 -4.913232664605653 0  1.148929287956635 4.909134782339784 0  4.909679329041325 1.14630368296857 0  4.920468615406093 -1.15207398787032 0  -0.5467100533798351 -4.910366725473868 0  -0.546488674752576 4.919019299856792 0  -4.908328987001374 -0.548763903402811 0  -4.908353130476727 0.5473209875005184 0  4.907654913028585 -0.5490833613209966 0  4.919261757143588 0.5458331464119632 0  0.5424964889820202 -4.897294604922005 0  0.5512181150261551 4.915854222956345 0  -4.912028770730953 -3.048409278969676 0  4.918590632342786 3.046417940712892 0  4.911538036869134 -3.048386799363881 0  -4.912875847756583 3.045499902045876 0  3.055388303500468 -4.917520544250101 0  -3.048725740585476 -4.911465688020773 0  3.052290950027009 4.913541007931203 0  -3.048170722548349 4.912354336862911 0  -4.907459479865353 -0.04991323780203689 0  0.0451224335401081 -4.912319697083871 0  0.04957036332719311 4.919320741161982 0  4.91448684041444 -0.05129497734685201 0  3.545688488006871 -4.919123039898275 0  -3.548974992482608 4.9120305206480
[...]
<PointData  Vectors="f_3010"> 
<DataArray  type="Float64"  Name="f_3010"  NumberOfComponents="3" format="ascii">-1.0636245461665821e-40 -1.2953066747023381e-40 0.0000000000000000e+00  1.2435483940677306e-40 -1.4422650165159894e-40 0.0000000000000000e+00  -1.9338653603856614e-40 -1.8671814370447036e-40 0.0000000000000000e+00  -2.1698979399904972e-40 2.1893574030406822e-40 0.0000000000000000e+00  1.6122718392390599e+01 -4.9178739812570142e-02 0.0000000000000000e+00  2.5618640877585403e-40 2.8782373675686089e-40 0.0000000000000000e+00  7.1151410329472149e-40 7.0484008068797452e-40 0.0000000000000000e+00  -1.6630790343408532e-39 -1.8037989650322011e-39 0.0000000000000000e+00  1.4821207761374586e-38 1.7157132681809845e-38 0.0000000000000000e+00  -4.9102547460709798e-38 -5.6617062309794773e-38 0.0000000000000000e+00  1.7911559331835774e-37 2.2882414515674052e-37 0.0000000000000000e+00  -6.4740220834174041e-37 -8.7004202874300082e-37 0.0000000000000000e+00  3.7726841220769756e-36 4.9650093626933747e-36 0.0000000000000000e+00  -2.3382461462443960e-35 -2.9336794590309020e-35 0.0000000000000000e+00  9.6914641936728489e-35 1.2352924026999914e-34 0.0000000000000000e+00  -2.1491337614644819e-34 -2.6661574312298504e-34 0.0000000000000000e+00  4.3336308316363556e-34 5.1283069052515630e-34 0.0000000000000000e+00  1.6312330051516119e-33 1.9817396463497280e-33 0.0000000000000000e+00  -6.9370757567162283e-33 -9.1869387888373328e-33 0.0000000000000000e+00  1.8575201544457434e-32 2.7086304608534494e-32 0.0000000000000000e+00  -1.0997381425232721e-31 -1.5727680393730228e-31 0.0000000000000000e+00  2.9262473481757436e-31 4.2066590348351549e-31 0.0000000000000000e+00  1.9926731084839334e-31 2.5793609098872699e-31 0.0000000000000000e+00  -1.5944523156549316e-30 -2.1549228799122027e-30 0.0000000000000000e+00  -5.6020042993870180e-31 -1.1121860395495478e-30 0.0000000000000000e+00  -1.0849421626380051e-30 -2.3464352475536365e-30 0.0000000000000000e+00  3.9011067180179642e-30 7.5002863692445030e-30 0.0000000000000000e+00  -8.6849837670222177e-30 -2.5430092179178137e-29 0.0000000000000000e+00  3.1775169373796607e-29 7.5930045636290434e-29 0.0000000000000000e+00  1.7990301942933729e-29 4.6181674403439186e-29 0.0000000000000000e+00  -1.5999647752171959e-28 -3.7652792946477077e-28 0.0000000000000000e+00  -6.0238811133174319e-29 -1.5759181024998305e-28 0.0000000000000000e+00  -9.8087687601845185e-29 -3.3066371913214567e-28 0.0000000000000000e+00  1.6019867250217211e-28 4.6892257238639110e-28 0.0000000000000000e+00  4.4859920074952515e-28 1.4638521965030305e-27 0.0000000000000000e+00  1.2461068984682498e-29 -9.5089583326386126e-29 0.0000000000000000e+00  1.5845734772232244e-28 4.2398395169408367e-28 0.0000000000000000e+00  -6.9129628814237976e-29 -2.6952142322537345e-28 0.0000000000000000e+00  -4.6652253317042335e-28 -1.4879341958205363e-27 0.0000000000000000e+00  -4.4052925144478811e-28 -1.4388400082538907e-27 0.0000000000000000e+00  -1.1950673960061399e-29 -8.0960659436672758e-29 0.0000000000000000e+00  4.4380835938754198e-28 1.6959057384968063e-27 0.0000000000000000e+00  2.7822717724816535e-28 1.0064764190209052e-27 0.0000000000000000e+00  6.1681935656685650e-30 -1.4298796396458896e-28 0.0000000000000000e+00  1.2671952360452218e-28 4.0415850213193078e-28 0.0000000000000000e+00  -1.3368565785992547e-28 9.4590597006408164e-28 0.0000000000000000e+00  -6.7010823636358775e-31 1.6356234712635161e-27 0.0000000000000000e+00  6.1224308842234388e-29 -9.7261341249112607e-28 0.0000000000000000e+00  2.3413075034898225e-28 5.2681471524738291e-27 0.0000000000000000e+00  -1.9300806810039671e-28 -1.4042991420001909e-29 0.0000000000000000e+00  -5.2519977021822833e-28 -4.5122237702502611e-27 0.0000000000000000e+00  -4.7288073173066791e-28 -2.5576985519020245e-27 0.0000000000000000e+00  -3.2146363195176156e-28 -3.7279936259459507e-27 0.0000000000000000e+00  -4.3208326365393114e-29 -9.5876932681025751e-27 0.0000000000000000e+00  1.0744203650174362e-28 -1.0986478628560413e-26 0.0000000000000000e+00  -2.5868387485142387e-29 -1.8755695216583607e-27 0.0000000000000000e+00  2.7188641557968166e-29 -5.8909378977294527e-27 0.0000000000000000e+00  2.3270847830908814e-29 -2.0624767861972191e-27 0.0000000000000000e+00  1.6519682375930832e-28 -3.7751517385872361e-27 0.0000000000000000e+00  -1.2538982373956023e-28 1.8459473941797640e-27 0.0000000000000000e+00  4.5541368609326841e-28 -5.0240455558214329e-27 0.0000000000000000e+00  5.9050906756131998e-28 -4.5824935783533764e-27 0.0000000000000000e+00  -5.8300848597021005e-29 1.0268206104335648e-27 0.0000000000000000e+00  -8.4718576963373166e-28 7.0151149278101020e-27 0.0000000000000000e+00  -4.1792765447383531e-28 2.7961139998599524e-27 0.0000000000000000e+00  -3.3890535277667917e-28 1.5467630882742816e-27 0.0000000000000000e+00  -7.4805000411113317e-28 4.0348787099329408e-27 0.0000000000000000e+00  -4.3731968023182478e-28 2.1363900179597106e-27 0.0000000000000000e+00  4.6207502325688634e-28 -2.4738017355383695e-27 0.0000000000000000e+00  2.9359826560279925e-28 -1.1639413062633550e-27 0.0000000000000000e+00  6.3777339711771804e-29 -1.8426519344069466e-28 0.0000000000000000e+00  2.9271428644563750e-28 -8.5464265487822820e-28 0.0000000000000000e+00  2.0239744785120939e-28 -6.6965855159148147e-28 0.0000000000000000e+00  -1.7530657309415108e-28 5.8039098635096109e-28 0.0000000000000000e+00  -1.0737582191649345e-28 3.3313364356096405e-28 0.0000000000000000e+00  -8.4844016888561737e-29 2.5831565338278046e-28 0.0000000000000000e+00  1.7963360006421420e-29 -5.8064089538516802e-29 0.0000000000000000e+00  5.8755423593847734e-29 -1.6462529310270699e-28 0.0000000000000000e+00  8.6731678993055948e-29 -2.2616194721819422e-28 0.0000000000000000e+00  -7.7070306681601931e-30 1.3715258152170541e-29 0.0000000000000000e+00  -6.7989045721926370e-29 1.5754089024637766e-28 0.0000000000000000e+00  1.1057771438759333e-29 -2.5324063585607712e-29 0.0000000000000000e+00  3.8695618171416455e-30 -8.3852224590971848e-30 0.0000000000000000e+00  -1.1862742370201680e-29 2.1891823142841440e-29 0.0000000000000000e+00  -1.1363473716372281e-30 1.5271269704399980e-30 0.0000000000000000e+00  1.4413588843576222e-30 -2.3080968823175692e-30 0.0000000000000000e+00  -7.1209328374945707e-31 1.1107257885281467e-30 0.0000000000000000e+00  9.8830869484814975e-32 -1.5650823738498474e-31 0.0000000000000000e+00  -1.0871355695283207e-32 1.7054982174661663e-32 0.0000000000000000e+00  -1.8515700220206962e-33 2.4131750462991683e-33 0.0000000000000000e+00  6.2975778286317014e-33 -8.0815449613941918e-33 0.0000000000000000e+00  9.7871711346525674e-35 -5.9908997914401509e-35 0.0000000000000000e+00  -3.0540297674491525e-34 3.6187383534588017e-34 0.0000000000000000e+00  2.8895522559565395e-35 -2.9021829189786535e-35 0.0000000000000000e+00  -1.0349872349266404e-35 1.2951043165883325e-35 0.0000000000000000e+00  3.2642974962795455e-36 -3.8554558417184190e-36 0.0000000000000000e+00  -1.5812006422354852e-36 1.7071707232314324e-36 0.0000000000000000e+00  4.8178679307345759e-37 -5.4427085023301658e-37 0.0000000000000000e+00  -2.3771871845126696e-37 2.5487675614767072e-37 0.0000000000000000e+00  7.8734275802784598e-38 -8.2028291080686254e-38 0.0000000000000000e+00  -1.4897357260273379e-38 1.5805876307993862e-38 0.0000000000000000e+00  5.8903365641671122e-39 -6.0231263673752016e-39 0.0000000000000000e+00  -4.3205250495375287e-40 3.9369097063612197e-40 0.0000000000000000e+00  -2.1868417737229320e-40 2.5109719848338917e-40 0.0000000000000000e+00  1.7440041718506637e-42 1.7166526067577940e-42 0.0000000000000000e+00  3.7189534532310969e-40 -3.1631735589949560e-40 0.0000000000000000e+00  -8.3691763944604080e-40 7.0409772769799668e-40 0.0000000000000000e+00  2.7448045822382780e-39 -2.5175328500356874e-39 0.0000000000000000e+00  -1.0338786818935011e-39 1.3725239818886677e-39 0.0000000000000000e+00  -1.4660994760733892e-38 1.1644704291951968e-38 0.0000000000000000e+00  5.1726463798959300e-38 -4.3515600814689461e-38 0.0000000000000000e+00  -6.1855456575087404e-38 5.6196546567793217e-38 0.0000000000000000e+00  -1.4905951624118901e-37 1.0685770504837852e-37 0.0000000000000000e+00  8.2668904504589573e-37 -6.4682326174163142e-37 0.0000000000000000e+00  -1.3296311650478038e-36 1.0857564098290485e-36 0.0000000000000000e+00  -1.5083882741544823e-36 9.8947765327380277e-37 0.0000000000000000e+00  1.1579819073024625e-35 -8.5566680534280580e-36 0.0000000000000000e+00  -2.1061571004380242e-35 1.5904107614326507e-35 0.0000000000000000e+00  -1.9172138260198967e-35 1.2367251235155636e-35 0.0000000000000000e+00  1.6788999665244593e-34 -1.1756735562726661e-34 0.0000000000000000e+00  -2.5521958965635846e-34 1.8081922221933942e-34 0.0000000000000000e+00  -3.9236673048747196e-34 2.5652395852527955e-34 0.0000000000000000e+00  2.2596898340394059e-33 -1.4944756691870290e-33 0.0000000000000000e+00  -2.0923672169146049e-33 1.3794068904514716e-33 0.0000000000000000e+00  -8.4636817596713722e-33 5.3301018300084455e-33 0.0000000000000000e+00  2.5667571572265277e-32 -1.5893479901601854e-32 0.0000000000000000e+00  4.0491691484178236e-33 -2.5161886989727435e-33 0.0000000000000000e+00  -1.4285636815820647e-31 8.3948856799749902e-32 0.0000000000000000e+00  1.8099331157891094e-31 -1.0113899088491361e-31 0.0000000000000000e+00  4.9091483548192204e-31 -2.7672937705792055e-31 0.0000000000000000e+00  -1.4059960281341485e-30 7.4607189775934232e-31 0.0000000000000000e+00  -9.0412511073114627e-31 5.2183176700050565e-31 0.0000000000000000e+00  7.6719619443771619e-30 -3.8512976590956599e-30 0.0000000000000000e+00  -1.9773884166232385e-30 5.8170187586537086e-31 0.0000000000000000e+00  -3.4454276694017026e-29 1.6379725419134385e-29 0.0000000000000000e+00  2.7558259069681451e-29 -1.0036180223426648e-29 0.0000000000000000e+00  1.4244606932954204e-28 -6.4401200215360466e-29 0.0000000000000000e+00  -1.5869797784973301e-28 5.2269426030630693e-29 0.0000000000000000e+00  -6.0070825121994922e-28 2.5384689907819443e-28 0.0000000000000000e+00  6.3166309995760102e-28 -1.6399929689977568e-28 0.0000000000000000e+00  2.5210475149493681e-27 -9.6379074245244467e-28 0.0000000000000000e+00  -1.9111594860804227e-27 2.6252287827913119e-28 0.0000000000000000e+00  -9.7558325010701100e-27 2.9815746863920142e-27 0.0000000000000000e+00  2.6271233485905694e-27 7.4534183327884048e-28 0.0000000000000000e+00  3.0830511396657809e-26 -6.8341637254842434e-27 0.0000000000000000e+00  1.5333894115272074e-26 -6.3117239673502138e-27 0.0000000000000000e+00  -8.5699568082995530e-26 1.2020104386493727e-26 0.0000000000000000e+00  -1.2932647219044933e-25 1.9786575295204746e-26 0.0000000000000000e+00  1.4664720627253018e-25 -3.0363842300857535e-26 0.0000000000000000e+00  8.4069650680687822e-25 -1.4406294887492327e-25 0.0000000000000000e+00  1.5162325921527339e-24 -2.3387213617280856e-25 0.0000000000000000e+00  1.8244638932293755e-24 -2.3263976954947132e-25 0.0000000000000000e+00  1.7585527394015321e-24 -1.2923457456057433e-25 0.0000000000000000e+00  1.7600588430991528e-24 1.5109136519818175e-26 0.0000000000000000e+00  1.8807245741541145e-24 1.4540850394413397e-25 0.0000000000000000e+00  1.7515174457411987e-24 2.0000853186643630e-25 0.0000000000000000e+00  1.1613334030202316e-24 1.5465077493151748e-25 0.0000000000000000e+00  3.6251565534613112e-25 4.9691698803538490e-26 0.0000000000000000e+00  -1.3445059641502448e-25 -2.6502514762376768e-26 0.0000000000000000e+00  -1.9293381810507866e-25 -3.3864777043335300e-26 0.0000000000000000e+00  -3.4062485548655641e-26 -1.2560638277161357e-27 0.0000000000000000e+00  5.6312099809585892e-26 1.6785885580961498e-26 0.0000000000000000e+00  3.4529022456271667e-26 9.2349029046389751e-27 0.0000000000000000e+00  -4.5047116920997420e-27 -1.7114807357239658e-27 0.0000000000000000e+00  -9.7364142274682572e-27 -2.9631296114568592e-27 0.0000000000000000e+00  -5.0413706074628445e-28 -3.4288382525954954e-29 0.0000000000000000e+00  2.4849658497970907e-27 8.6463123407115566e-28 0.0000000000000000e+00  2.9215950009744986e-28 7.9203703324364003e-29 0.0000000000000000e+00  -6.0107367534183753e-28 -2.2852104679888592e-28 0.0000000000000000e+00  -6.4061138574527487e-29 -1.9332635472145001e-29 0.0000000000000000e+00  1.4005397349449780e-28 5.7366996858664850e-29 0.0000000000000000e+00  2.0759816152636015e-30 -6.3020467185804768e-31 0.0000000000000000e+00  -3.0917652596621594e-29 -1.3512930747700923e-29 0.0000000000000000e+00  3.3696147501123212e-30 1.9219934890771893e-30 0.0000000000000000e+00  5.7560368887169291e-30 2.6665445656761833e-30 0.0000000000000000e+00  -1.8099954884905235e-30 -9.6956300415368138e-31 0.0000000000000000e+00  -8.2346350198488186e-31 -3.9171696679044356e-31 0.0000000000000000e+00  5.5581839885572828e-31 3.0635551474716646e-31 0.0000000000000000e+00  2.3809645564904584e-32 4.6711398657921942e-33 0.0000000000000000e+00  -1.1840297524894097e-31 -6.7694023088882166e-32 0.0000000000000000e+00  2.7170936628690598e-32 1.7728228450662358e-32 0.0000000000000000e+00  1.6551453397686062e-32 9.6002480261469512e-33 0.0000000000000000e+00  -1.0665868151199365e-32 -6.8493099371191778e-33 0.0000000000000000e+00  1.9211264700249697e-34 2.3431601201833594e-34 0.0000000000000000e+00  1.8784368785934427e-33 1.2456577054716557e-33 0.0000000000000000e+00  -7.1393885244450015e-34 -5.0054809768572555e-34 0.0000000000000000e+00  -9.4458635982578628e-35 -6.2700584282271941e-35 0.0000000000000000e+00  1.6776628450971416e-34 1.2112527761045627e-34 0.0000000000000000e+00  -4.8001339213603267e-35 -3.5677433637362279e-35 0.0000000000000000e+00  -1.0213524654835303e-35 -7.8526613792104044e-36 0.0000000000000000e+00  1.2152579752267774e-35 9.4381100840299169e-36 0.0000000000000000e+00  -3.2824706948015600e-36 -2.5433896782560386e-36 0.0000000000000000e+00  -6.6721841282446421e-37 -5.7784963259459700e-37 0.0000000000000000e+00  8.2914986300158646e-37 6.8927369945402679e-37 0.0000000000000000e+00  -2.5231543048568808e-37 -2.0547064690635741e-37 0.0000000000000000e+00  -2.1621209834444772e-38 -2.3577155219288808e-38 0.0000000000000000e+00  4.9871795683550489e-38 4.4841446512827810e-38 0.0000000000000000e+00  -2.0143006713664985e-38 -1.7536969484998721e-38 0.0000000000000000e+00  1.3625894125082318e-39 7.5634857236978579e-40 0.0000000000000000e+00  2.4719408576163412e-39 2.4570868496723751e-39 0.0000000000000000e+00  -1.4011809995296197e-39 -1.3191331650451696e-39 0.0000000000000000e+00  3.3331560113231744e-40 2.9466052367402435e-40 0.0000000000000000e+00  1.1564654844860491e-40 1.3615669700714169e-40 0.0000000000000000e+00  3.0529359572898402e-40 2.9352606258854846e-40 0.0000000000000000e+00  -7.5168461062898814e-40 -8.4111865326152106e-40 0.0000000000000000e+00  1.5357773525149959e-39 1.7409320461486921e-39 0.0000000000000000e+00  -1.0196976541676413e-38 -1.1806136430425233e-38 0.0000000000000000e+00  8.1784832121328568e-38 8.6274145701572630e-38 0.0000000000000000e+00  -2.1468063358505734e-37 -2.1267685247898305e-37 0.0000000000000000e+00  2.6906039347872922e-37 2.7901297093811269e-37 0.0000000000000000e+00  -3.5111022715795405e-36 -4.0716966841426525e-36 0.0000000000000000e+00  9.6853854227292193e-36 1.2731703956025831e-35 0.0000000000000000e+00  -3.7760305475669221e-35 -5.4107499991213456e-35 0.0000000000000000e+00  8.3316634400756000e-35 1.1830888331191604e-34 0.0000000000000000e+00  -1.2725200612775885e-34 -2.1138314432839920e-34 0.0000000000000000e+00  8.2834365977627291e-34 1.1923794968219506e-33 0.0000000000000000e+00  -2.1620898545850158e-34 -3.3144827148847579e-34 0.0000000000000000e+00  2.3744427005980203e-33 4.0432238100969862e-33 0.0000000000000000e+00  3.4793008659966207e-32 4.8454294225372758e-32 0.0000000000000000e+00  -1.4676372068272782e-31 -2.0997185851873879e-31 0.0000000000000000e+00  -4.9730525529479079e-31 -7.2348352634462258e-31 0.0000000000000000e+00  1.0930208081985666e-30 1.5881347197777256e-30 0.0000000000000000e+00  -4.9733919242622586e-31 -7.0035198697371512e-31 0.0000000000000000e+00  -2.8514845544588303e-30 -5.4055551255317265e-30 0.0000000000000000e+00  8.8157221051012538e-30 1.9159465303118653e-29 0.0000000000000000e+00  1.1927432138360627e-29 2.6258857216786091e-29 0.0000000000000000e+00  -7.3462881900853448e-29 -1.6775582739688376e-28 0.0000000000000000e+00  2.2814194141894800e-29 4.8719827974410729e-29 0.0000000000000000e+00  8.8055200176097782e-29 1.8069138698757491e-28 0.0000000000000000e+00  2.1371717779336643e-29 7.4151401863578144e-29 0.0000000000000000e+00  1.9499912466922308e-28 6.1190356135670143e-28 0.0000000000000000e+00  8.8425942083863672e-29 2.7466432384840357e-28 0.0000000000000000e+00  -1.8950778840119831e-28 -6.1987313125665178e-28 0.0000000000000000e+00  -3.6631214641981639e-28 -1.1755327514229751e-27 0.0000000000000000e+00  2.6381267428452231e-28 9.4194354460468155e-28 0.0000000000000000e+00  4.3154740047670603e-28 1.6766183268660647e-27 0.0000000000000000e+00  3.1791127409272873e-28 1.2380051262521414e-27 0.0000000000000000e+00  2.1774700707390717e-28 7.1042224546061205e-28 0.0000000000000000e+00  -5.0434702663857932e-28 -2.3544387208838541e-27 0.0000000000000000e+00  -8.7461720507774365e-29 -5.9493179854309797e-28 0.0000000000000000e+00  -2.8473372003653131e-30 -1.9221079881494970e-28 0.0000000000000000e+00  -2.4033373116086362e-28 -1.4463913157677944e-27 0.0000000000000000e+00  -2.0272582961276651e-28 -1.3585403260272111e-27 0.0000000000000000e+00  -3.6801719094931585e-28 -2.3108817300537758e-27 0.0000000000000000e+00  -2.0578527828910014e-28 -1.0054265067654940e-27 0.0000000000000000e+00  5.8057305255259870e-29 1.1884667784298210e-27 0.0000000000000000e+00  -8.5978158716142401e-29 -3.6875989812723676e-28 0.0000000000000000e+00  -1.2081691527112650e-28 -2.2099856269925160e-27 0.0000000000000000e+00  -4.9851078827147288e-29 5.1120957331988680e-28 0.0000000000000000e+00  -5.6507832022778472e-29 3.7302223569442479e-28 0.0000000000000000e+00  8.8869096084089407e-30 -1.5363626400575853e-27 0.0000000000000000e+00  3.5458169023897140e-31 -6.2680618297332192e-28 0.0000000000000000e+00  1.2387203389890656e-28 -1.6739694419238907e-27 0.0000000000000000e+00  -1.6346608017030838e-28 1.5120700359636772e-27 0.0000000000000000e+00  -1.6880592843211677e-28 1.4072933858872747e-27 0.0000000000000000e+00  2.6381846529023948e-28 -1.7451270707404921e-27 0.0000000000000000e+00  1.2295511648803632e-28 -4.8967263940429792e-28 0.0000000000000000e+00  3.1611858947651585e-28 -2.1502624148532343e-27 0.0000000000000000e+00  1.4366959112355931e-29 9.4506343092287671e-28 0.0000000000000000e+00  3.9068850843128069e-29 2.3988583911235274e-28 0.0000000000000000e+00  3.2956974877989091e-28 -1.1165761208458650e-27 0.0000000000000000e+00  1.8035296375387124e-28 -5.8128354744213232e-28 0.0000000000000000e+00  4.8203826166825169e-28 -2.5744255355953480e-27 0.0000000000000000e+00  7.2598668173035554e-28 -3.4629942829137091e-27 0.0000000000000000e+00  9.1050563983103901e-28 -4.4709180238919036e-27 0.0000000000000000e+00  2.4162366989371060e-28 -1.1506766060293294e-27 0.0000000000000000e+00  -3.6415048638406901e-28 1.4627757835123609e-27 0.0000000000000000e+00  -5.7779645778129723e-28 2.4269378888407524e-27 0.0000000000000000e+00  -6.4206210096755579e-28 2.5828787133470100e-27 0.0000000000000000e+00  -1.4235812755812110e-28 5.7574495677941203e-28 0.0000000000000000e+00  1.5143195826998208e-28 -5.3028890301181963e-28 0.0000000000000000e+00  1.0770633831249192e-28 -4.1934882438180019e-28 0.0000000000000000e+00  4.5296169489867179e-28 -1.5922567349503503e-27 0.0000000000000000e+00  1.9827629961858591e-28 -6.3946663267112049e-28 0.0000000000000000e+00  -1.6714996254377164e-28 5.3650921676214426e-28 0.0000000000000000e+00  -1.0913166775529115e-29 9.3916379781091805e-30 0.0000000000000000e+00  2.2325739519234832e-29 -5.7330007578701076e-29 0.0000000000000000e+00  4.9524456332734268e-29 -1.2542005626448570e-28 0.0000000000000000e+00  -1.1156640659242358e-29 2.6241373340510420e-29 0.0000000000000000e+00  -1.6483072674464925e-29 3.7262911919579497e-29 0.0000000000000000e+00  1.0725643