<?xml version="1.0"?>
<VTKFile type="UnstructuredGrid"  version="0.1"  >
<UnstructuredGrid>
<Piece  NumberOfPoints="11902" NumberOfCells="23402">
<Points>
<DataArray  type="Float64"  NumberOfComponents="3"  format="ascii">-5 -5 0  5 -5 0  5 5 0  -5 5 0  1.264833669450763 0.001264107697276983 0  -4.9 -5 0  -4.8 -5 0  -4.7 -5 0  -4.6 -5 0  -4.5 -5 0  -4.4 -5 0  -4.3 -5 0  -4.2 -5 0  -4.1 -5 0  -4 -5 0  -3.9 -5 0  -3.8 -5 0  -3.7 -5 0  -3.6 -5 0  -3.5 -5 0  -3.4 -5 0  -3.3 -5 0  -3.2 -5 0  -3.1 -5 0  -3 -5 0  -2.9 -5 0  -2.8 -5 0  -2.7 -5 0  -2.6 -5 0  -2.5 -5 0  -2.4 -5 0  -2.3 -5 0  -2.2 -5 0  -2.1 -5 0  -2 -5 0  -1.9 -5 0  -1.8 -5 0  -1.7 -5 0  -1.6 -5 0  -1.5 -5 0  -1.4 -5 0  -1.3 -5 0  -1.2 -5 0  -1.1 -5 0  -1 -5 0  -0.9000000000000004 -5 0  -0.7999999999999998 -5 0  -0.7000000000000002 -5 0  -0.5999999999999996 -5 0  -0.5 -5 0  -0.4000000000000004 -5 0  -0.2999999999999998 -5 0  -0.2000000000000002 -5 0  -0.09999999999999964 -5 0  0 -5 0  0.09999999999999964 -5 0  0.2000000000000002 -5 0  0.2999999999999998 -5 0  0.4000000000000004 -5 0  0.5 -5 0  0.5999999999999996 -5 0  0.7000000000000002 -5 0  0.7999999999999998 -5 0  0.9000000000000004 -5 0  1 -5 0  1.1 -5 0  1.2 -5 0  1.3 -5 0  1.4 -5 0  1.5 -5 0  1.6 -5 0  1.7 -5 0  1.8 -5 0  1.9 -5 0  2 -5 0  2.1 -5 0  2.2 -5 0  2.3 -5 0  2.4 -5 0  2.5 -5 0  2.6 -5 0  2.7 -5 0  2.8 -5 0  2.9 -5 0  3 -5 0  3.1 -5 0  3.199999999999999 -5 0  3.300000000000001 -5 0  3.4 -5 0  3.5 -5 0  3.6 -5 0  3.699999999999999 -5 0  3.800000000000001 -5 0  3.9 -5 0  4 -5 0  4.1 -5 0  4.199999999999999 -5 0  4.300000000000001 -5 0  4.4 -5 0  4.5 -5 0  4.6 -5 0  4.699999999999999 -5 0  4.800000000000001 -5 0  4.9 -5 0  5 -4.9 0  5 -4.8 0  5 -4.7 0  5 -4.6 0  5 -4.5 0  5 -4.4 0  5 -4.3 0  5 -4.2 0  5 -4.1 0  5 -4 0  5 -3.9 0  5 -3.8 0  5 -3.7 0  5 -3.6 0  5 -3.5 0  5 -3.4 0  5 -3.3 0  5 -3.2 0  5 -3.1 0  5 -3 0  5 -2.9 0  5 -2.8 0  5 -2.7 0  5 -2.6 0  5 -2.5 0  5 -2.4 0  5 -2.3 0  5 -2.2 0  5 -2.1 0  5 -2 0  5 -1.9 0  5 -1.8 0  5 -1.7 0  5 -1.6 0  5 -1.5 0  5 -1.4 0  5 -1.3 0  5 -1.2 0  5 -1.1 0  5 -1 0  5 -0.9000000000000004 0  5 -0.7999999999999998 0  5 -0.7000000000000002 0  5 -0.5999999999999996 0  5 -0.5 0  5 -0.4000000000000004 0  5 -0.2999999999999998 0  5 -0.2000000000000002 0  5 -0.09999999999999964 0  5 0 0  5 0.09999999999999964 0  5 0.2000000000000002 0  5 0.2999999999999998 0  5 0.4000000000000004 0  5 0.5 0  5 0.5999999999999996 0  5 0.7000000000000002 0  5 0.7999999999999998 0  5 0.9000000000000004 0  5 1 0  5 1.1 0  5 1.2 0  5 1.3 0  5 1.4 0  5 1.5 0  5 1.6 0  5 1.7 0  5 1.8 0  5 1.9 0  5 2 0  5 2.1 0  5 2.2 0  5 2.3 0  5 2.4 0  5 2.5 0  5 2.6 0  5 2.7 0  5 2.8 0  5 2.9 0  5 3 0  5 3.1 0  5 3.199999999999999 0  5 3.300000000000001 0  5 3.4 0  5 3.5 0  5 3.6 0  5 3.699999999999999 0  5 3.800000000000001 0  5 3.9 0  5 4 0  5 4.1 0  5 4.199999999999999 0  5 4.300000000000001 0  5 4.4 0  5 4.5 0  5 4.6 0  5 4.699999999999999 0  5 4.800000000000001 0  5 4.9 0  4.9 5 0  4.8 5 0  4.7 5 0  4.6 5 0  4.5 5 0  4.4 5 0  4.3 5 0  4.2 5 0  4.1 5 0  4 5 0  3.9 5 0  3.8 5 0  3.7 5 0  3.6 5 0  3.5 5 0  3.4 5 0  3.3 5 0  3.2 5 0  3.1 5 0  3 5 0  2.9 5 0  2.8 5 0  2.7 5 0  2.6 5 0  2.5 5 0  2.4 5 0  2.3 5 0  2.2 5 0  2.1 5 0  2 5 0  1.9 5 0  1.8 5 0  1.7 5 0  1.6 5 0  1.5 5 0  1.4 5 0  1.3 5 0  1.2 5 0  1.1 5 0  1 5 0  0.9000000000000004 5 0  0.7999999999999998 5 0  0.7000000000000002 5 0  0.5999999999999996 5 0  0.5 5 0  0.4000000000000004 5 0  0.2999999999999998 5 0  0.2000000000000002 5 0  0.09999999999999964 5 0  0 5 0  -0.09999999999999964 5 0  -0.2000000000000002 5 0  -0.2999999999999998 5 0  -0.4000000000000004 5 0  -0.5 5 0  -0.5999999999999996 5 0  -0.7000000000000002 5 0  -0.7999999999999998 5 0  -0.9000000000000004 5 0  -1 5 0  -1.1 5 0  -1.2 5 0  -1.3 5 0  -1.4 5 0  -1.5 5 0  -1.6 5 0  -1.7 5 0  -1.8 5 0  -1.9 5 0  -2 5 0  -2.1 5 0  -2.2 5 0  -2.3 5 0  -2.4 5 0  -2.5 5 0  -2.6 5 0  -2.7 5 0  -2.8 5 0  -2.9 5 0  -3 5 0  -3.1 5 0  -3.199999999999999 5 0  -3.300000000000001 5 0  -3.4 5 0  -3.5 5 0  -3.6 5 0  -3.699999999999999 5 0  -3.800000000000001 5 0  -3.9 5 0  -4 5 0  -4.1 5 0  -4.199999999999999 5 0  -4.300000000000001 5 0  -4.4 5 0  -4.5 5 0  -4.6 5 0  -4.699999999999999 5 0  -4.800000000000001 5 0  -4.9 5 0  -5 4.9 0  -5 4.8 0  -5 4.7 0  -5 4.6 0  -5 4.5 0  -5 4.4 0  -5 4.3 0  -5 4.2 0  -5 4.1 0  -5 4 0  -5 3.9 0  -5 3.8 0  -5 3.7 0  -5 3.6 0  -5 3.5 0  -5 3.4 0  -5 3.3 0  -5 3.2 0  -5 3.1 0  -5 3 0  -5 2.9 0  -5 2.8 0  -5 2.7 0  -5 2.6 0  -5 2.5 0  -5 2.4 0  -5 2.3 0  -5 2.2 0  -5 2.1 0  -5 2 0  -5 1.9 0  -5 1.8 0  -5 1.7 0  -5 1.6 0  -5 1.5 0  -5 1.4 0  -5 1.3 0  -5 1.2 0  -5 1.1 0  -5 1 0  -5 0.9000000000000004 0  -5 0.7999999999999998 0  -5 0.7000000000000002 0  -5 0.5999999999999996 0  -5 0.5 0  -5 0.4000000000000004 0  -5 0.2999999999999998 0  -5 0.2000000000000002 0  -5 0.09999999999999964 0  -5 0 0  -5 -0.09999999999999964 0  -5 -0.2000000000000002 0  -5 -0.2999999999999998 0  -5 -0.4000000000000004 0  -5 -0.5 0  -5 -0.5999999999999996 0  -5 -0.7000000000000002 0  -5 -0.7999999999999998 0  -5 -0.9000000000000004 0  -5 -1 0  -5 -1.1 0  -5 -1.2 0  -5 -1.3 0  -5 -1.4 0  -5 -1.5 0  -5 -1.6 0  -5 -1.7 0  -5 -1.8 0  -5 -1.9 0  -5 -2 0  -5 -2.1 0  -5 -2.2 0  -5 -2.3 0  -5 -2.4 0  -5 -2.5 0  -5 -2.6 0  -5 -2.7 0  -5 -2.8 0  -5 -2.9 0  -5 -3 0  -5 -3.1 0  -5 -3.199999999999999 0  -5 -3.300000000000001 0  -5 -3.4 0  -5 -3.5 0  -5 -3.6 0  -5 -3.699999999999999 0  -5 -3.800000000000001 0  -5 -3.9 0  -5 -4 0  -5 -4.1 0  -5 -4.199999999999999 0  -5 -4.300000000000001 0  -5 -4.4 0  -5 -4.5 0  -5 -4.6 0  -5 -4.699999999999999 0  -5 -4.800000000000001 0  -5 -4.9 0  1.256782544437134 0.09296781130512248 0  1.234604998772265 0.1907826159530152 0  1.200781354049452 0.2875747523129175 0  1.158085074385599 0.3759830660035525 0  1.099380780898623 0.467143495335592 0  1.03271781008471 0.5505516858360524 0  0.9541199191757482 0.6310736319515929 0  0.8668173135187721 0.7059976441535883 0  0.7749860890410433 0.771194471672909 0  0.673140795665678 0.8286532519311041 0  0.5596540904941548 0.8808882491591994 0  0.4460363623405266 0.9259068595791177 0  0.3354428845624148 0.9574629606191095 0  0.2088087402001766 0.9800101755360161 0  0.0874967635213974 0.9984527067172547 0  -0.02626443847003547 1.002014231245615 0  -0.1439411000728129 0.9883741032824912 0  -0.2740712910664462 0.968440307654578 0  -0.3942886465909016 0.9442450763963819 0  -0.5036952342053383 0.9091638254699028 0  -0.6132371087209521 0.8627554096812534 0  -0.7151752376964625 0.8076061130967774 0  -0.8096024321469674 0.7431914857698053 0  -0.9012720182731805 0.6693908837748804 0  -0.9879588168444104 0.5890101259272773 0  -1.062971741589951 0.5072738241611934 0  -1.125193309095347 0.422985986690058 0  -1.180537097569949 0.3289951724084944 0  -1.217872061728885 0.2422945788020462 0  -1.242194940136044 0.1486289678079078 0  -1.252420724007705 0.05268362990259987 0  -1.252365472502156 -0.05037207605997146 0  -1.242071082510173 -0.1455868511785866 0  -1.217504820231284 -0.2362247066848944 0  -1.175195680140545 -0.3315769397380491 0  -1.125490607632167 -0.4240645296321288 0  -1.065136436601611 -0.5071029064914163 0  -0.9905299220780994 -0.5880312890083763 0  -0.904446713766402 -0.6673694102685088 0  -0.8137082441492695 -0.738679251886881 0  -0.718473512681525 -0.7992683151589334 0  -0.6138714729284688 -0.8526627004014541 0  -0.4978287710738348 -0.9024228523595291 0  -0.3854673495398712 -0.9423334488046269 0  -0.2707449430012773 -0.9683028371416608 0  -0.1421895501859365 -0.9884379286269489 0  -0.02748919153631071 -1.001252226554041 0  0.0858595810006727 -0.9938443968288657 0  0.2154549132204016 -0.9758153030086035 0  0.3384223836970406 -0.9556044147335374 0  0.450265948424337 -0.9245766032541732 0  0.5624358379832912 -0.8801073475864546 0  0.6744466785392252 -0.8284740360502713 0  0.774744196075095 -0.7724148690665367 0  0.8659469712902027 -0.7076921921126142 0  0.9517213765499976 -0.6318648432814239 0  1.030330348718764 -0.5491234735771916 0  1.101119137432828 -0.4653672386839909 0  1.158963006533843 -0.3762668432759694 0  1.202611382042058 -0.2856579588323129 0  1.235341560607059 -0.1901646975347447 0  1.257200013114868 -0.09310215665895633 0  -2.4485190645043 4.918038958372233 0  -2.448389132051687 -4.910410237615583 0  4.910331452870097 2.447834373030297 0  4.918466117422252 -2.44930164937994 0  2.446111470457298 -4.895627320519194 0  2.440546580637382 4.89939305597195 0  -4.910358789354179 -2.4478614690848 0  -4.910356100254242 2.447865643228111 0  -1.748471448282074 4.910892958467096 0  -1.744259569339603 -4.914338628721635 0  4.920484707184168 1.744014948429253 0  4.908997353027762 -1.747768397495453 0  -4.909292415953662 -1.747503299707642 0  -4.910116174751097 1.747249112180966 0  1.745740944062126 4.904740058317709 0  1.747148530279568 -4.892868539164578 0  -1.148791337136774 4.908649879643137 0  -1.129652325326301 -4.91657958455282 0  -4.908970452538238 -1.147842896577589 0  -4.908788350882769 1.147643676497782 0  1.14378882761277 -4.912756661460693 0  1.14880087603205 4.908635925520313 0  4.909109546763079 1.146117578353283 0  4.919968019156472 -1.151909864600332 0  -0.5466423706380629 -4.909824653209792 0  -0.5464281359741346 4.918528487007968 0  -4.907671196121813 -0.548661241137631 0  -4.907695181222012 0.547219629076392 0  4.90698719797633 -0.5489792005105686 0  4.918677672754331 0.5457423439340416 0  0.5424222846579605 -4.896672070560301 0  0.5511553525259862 4.915343720923646 0  -4.911816598834031 -3.048230055322425 0  4.918392967047865 3.04625028603006 0  4.911323836885043 -3.048204942075412 0  -4.912664990408075 3.045322339407157 0  3.055250010304025 -4.917314525246065 0  -3.048576863235038 -4.911245180774483 0  3.052145386678374 4.913324360322881 0  -3.048023079665071 4.912135796551776 0  -4.906767418294632 -0.04990291871174956 0  0.04511820301395122 -4.911773072987448 0  0.04956509428870028 4.918816705585254 0  4.913842385835523 -0.05128571745275044 0  3.545579268169755 -4.9189792670612 0  -3.548856281387153 4.911875
[...]
<PointData  Vectors="f_6442"> 
<DataArray  type="Float64"  Name="f_6442"  NumberOfComponents="3" format="ascii">1.4592686708525125e-40 1.0795851477786661e-40 0.0000000000000000e+00  -7.3456547424362894e-41 5.6151162553823723e-41 0.0000000000000000e+00  -2.4008902549135858e-41 -1.3902496390224029e-41 0.0000000000000000e+00  1.5788607559645077e-40 -1.3062572536257927e-40 0.0000000000000000e+00  1.1201342261291485e+01 -3.4450269191104256e-02 0.0000000000000000e+00  -2.6166185287521712e-40 -1.9972968628600139e-40 0.0000000000000000e+00  4.9108884807352222e-40 2.8344167456657701e-40 0.0000000000000000e+00  -1.5339043629137474e-39 -9.1783346951346509e-40 0.0000000000000000e+00  -4.6664742227717550e-39 -4.4264295383136188e-39 0.0000000000000000e+00  4.2275305484451246e-39 5.9856458774559852e-39 0.0000000000000000e+00  -1.0684596038708399e-37 -7.6675924650848998e-38 0.0000000000000000e+00  2.1589235707308364e-37 1.6025739407580096e-37 0.0000000000000000e+00  -1.7859577569501241e-36 -1.6347339312006739e-36 0.0000000000000000e+00  1.3027207164016474e-35 1.2855931484500335e-35 0.0000000000000000e+00  -4.1804449264559092e-35 -4.4992697599738856e-35 0.0000000000000000e+00  5.1468027879601054e-35 7.9882867789812575e-35 0.0000000000000000e+00  -6.1255465429562914e-35 -1.6019151157691449e-34 0.0000000000000000e+00  -3.8299653891878763e-34 -5.1157300510811650e-34 0.0000000000000000e+00  2.0667195413215322e-33 2.7695777616584795e-33 0.0000000000000000e+00  -6.2594267727980310e-33 -9.4325109843754110e-33 0.0000000000000000e+00  3.6018521184094317e-32 5.1916568877155807e-32 0.0000000000000000e+00  -9.3170221214777347e-32 -1.3339813688880871e-31 0.0000000000000000e+00  -9.2620587651355911e-32 -8.4739333602919586e-32 0.0000000000000000e+00  6.6368794394637498e-31 6.7022990867895345e-31 0.0000000000000000e+00  6.9108832390016049e-32 3.5263415084085016e-31 0.0000000000000000e+00  -2.3343277803364304e-31 4.0780557432074210e-31 0.0000000000000000e+00  -7.9263523308856037e-31 -1.9796504793782999e-30 0.0000000000000000e+00  1.4977670787366791e-30 9.4371880538495836e-30 0.0000000000000000e+00  -6.3969305158161024e-30 -2.3968640942744792e-29 0.0000000000000000e+00  -4.3787995911865508e-30 -1.7583841200964522e-29 0.0000000000000000e+00  4.0761931877581921e-29 1.2428819896813225e-28 0.0000000000000000e+00  1.1185597815907498e-29 4.1714834684422056e-29 0.0000000000000000e+00  -5.1870899954699086e-30 -2.3157711525384470e-29 0.0000000000000000e+00  -1.8992276051536439e-29 -4.3478493881957734e-29 0.0000000000000000e+00  -4.6358194692140211e-29 6.4617913013315619e-29 0.0000000000000000e+00  -2.5060609334658242e-29 -3.2309895499861498e-28 0.0000000000000000e+00  -2.3618339189567819e-29 -2.9530555166278502e-28 0.0000000000000000e+00  -9.1043071681197116e-30 -4.8855641448397999e-29 0.0000000000000000e+00  1.1053328853240205e-29 6.0477654228044409e-28 0.0000000000000000e+00  5.4376687771451191e-29 7.3235474013531266e-28 0.0000000000000000e+00  1.5591332478658034e-28 3.5904288044225017e-28 0.0000000000000000e+00  1.1218134893796256e-28 -2.8224928168199624e-28 0.0000000000000000e+00  9.6856478697456618e-29 -9.3634111062500023e-29 0.0000000000000000e+00  1.2027898887898619e-28 2.0883181909553635e-28 0.0000000000000000e+00  3.3943681296337922e-29 -8.2510508951218715e-29 0.0000000000000000e+00  -3.0838464829549262e-28 -3.2380281182369280e-28 0.0000000000000000e+00  -1.9442929360030538e-28 -1.2342629956702872e-28 0.0000000000000000e+00  1.5364028911660703e-28 1.8803972863539418e-28 0.0000000000000000e+00  -1.7593019008664956e-28 2.8428500237795806e-28 0.0000000000000000e+00  -8.4483970102497586e-29 -2.7409869975587189e-28 0.0000000000000000e+00  -4.6078735606886845e-29 -1.0054870269333742e-27 0.0000000000000000e+00  -6.5577991563733621e-29 -1.1355123902313467e-27 0.0000000000000000e+00  -2.1334684225561182e-30 -1.0605961972596200e-27 0.0000000000000000e+00  1.3351898769385871e-28 -8.0473314513174413e-28 0.0000000000000000e+00  1.9618728540579530e-28 -9.9483484795484320e-28 0.0000000000000000e+00  5.7823099634446349e-29 -6.1575171568671837e-28 0.0000000000000000e+00  1.3222057324726771e-28 -1.5073843162027947e-27 0.0000000000000000e+00  6.5350463381814802e-29 -1.3517483071282290e-27 0.0000000000000000e+00  1.0879750337476162e-28 -1.3947748992125331e-27 0.0000000000000000e+00  1.9008442169498945e-29 -8.8585010142829468e-28 0.0000000000000000e+00  1.4665882594161098e-28 -2.1679145411749489e-27 0.0000000000000000e+00  1.1222148968969284e-28 -1.9009878567019726e-27 0.0000000000000000e+00  3.0803896624376196e-29 -6.0076765152948270e-28 0.0000000000000000e+00  -7.3604890520563493e-29 5.5246664896124797e-28 0.0000000000000000e+00  -3.5287759877340462e-30 1.8774579215180927e-28 0.0000000000000000e+00  -4.2750505789209038e-30 6.0107891410627128e-28 0.0000000000000000e+00  2.2922894842718482e-29 4.4915993450748458e-28 0.0000000000000000e+00  1.3672756630662442e-29 2.0756148595558825e-28 0.0000000000000000e+00  -3.7812429081370421e-29 5.4346844582470836e-29 0.0000000000000000e+00  -4.4545111000056993e-29 -7.2140153209034717e-29 0.0000000000000000e+00  1.0342856429523843e-30 -4.0349842144706912e-29 0.0000000000000000e+00  -5.9469766693629895e-29 5.0946338906726450e-29 0.0000000000000000e+00  -4.0084937362519914e-29 1.0533612638186118e-28 0.0000000000000000e+00  4.8757912831616704e-29 -1.7213226931931192e-28 0.0000000000000000e+00  5.2660100823498144e-29 -3.0366834448382542e-28 0.0000000000000000e+00  7.3358357263856597e-30 -2.9806852668252965e-29 0.0000000000000000e+00  -2.5705089689920063e-29 1.2732471847155150e-28 0.0000000000000000e+00  2.6776399135283570e-30 -1.5101068890379615e-29 0.0000000000000000e+00  -5.0642274589553525e-30 1.7744205130107538e-29 0.0000000000000000e+00  3.6728775408755902e-30 -4.8611622527359606e-30 0.0000000000000000e+00  1.3369625057768255e-29 -4.1717552944702395e-29 0.0000000000000000e+00  -2.0404859193882566e-30 5.6164178586023275e-30 0.0000000000000000e+00  -9.4466474639799406e-31 3.1291400744548022e-30 0.0000000000000000e+00  3.6997736675753589e-30 -7.3298240374295314e-30 0.0000000000000000e+00  4.5775238484990185e-31 -5.4953320618854781e-31 0.0000000000000000e+00  -4.8607042015636811e-31 7.7309297194188544e-31 0.0000000000000000e+00  2.0981675597288979e-31 -3.4570843040726045e-31 0.0000000000000000e+00  -4.3567561153703071e-32 5.7686701177132461e-32 0.0000000000000000e+00  4.4312179724103614e-33 -6.2738156760216999e-33 0.0000000000000000e+00  2.0307011400039359e-33 -1.4602888196032971e-33 0.0000000000000000e+00  -3.7421305260118686e-33 3.6738706946705606e-33 0.0000000000000000e+00  -1.8743221052947547e-35 8.7554460499179896e-35 0.0000000000000000e+00  2.0268033102005344e-34 -2.2538835024060652e-34 0.0000000000000000e+00  -3.6697940810322732e-35 4.3386503620836283e-35 0.0000000000000000e+00  1.8257888610072212e-35 -1.8296658281898011e-35 0.0000000000000000e+00  -2.3221318599777278e-36 2.3415980698202954e-36 0.0000000000000000e+00  -4.2954951502949117e-37 3.5817477576117231e-37 0.0000000000000000e+00  1.2395995419741512e-37 -1.0650977071193573e-37 0.0000000000000000e+00  -5.8932655856554403e-38 5.0355008947728560e-38 0.0000000000000000e+00  1.7396826523985936e-38 -1.4887890517991486e-38 0.0000000000000000e+00  -1.4846642721819978e-39 9.8105599689114547e-40 0.0000000000000000e+00  2.0479143559546461e-40 -2.7937799300429107e-40 0.0000000000000000e+00  -1.6136329445221343e-40 1.4894546380538119e-40 0.0000000000000000e+00  1.1544073454899555e-40 -8.7418937469977978e-41 0.0000000000000000e+00  1.8697187132548141e-41 -1.9025374571657608e-41 0.0000000000000000e+00  1.5273400911746294e-40 -1.1576063833011214e-40 0.0000000000000000e+00  -3.2449407577809081e-40 2.2554135223131718e-40 0.0000000000000000e+00  -5.8446551829946079e-41 -1.0156327329852322e-40 0.0000000000000000e+00  2.4207619841764053e-39 -1.1435652122378378e-39 0.0000000000000000e+00  -8.0470197146667998e-39 4.4855320997962126e-39 0.0000000000000000e+00  1.1440780459374883e-38 -7.7372175907263779e-39 0.0000000000000000e+00  1.5928021988782521e-38 -3.3607552866532424e-39 0.0000000000000000e+00  -1.3143681377608141e-37 6.1432603167059940e-38 0.0000000000000000e+00  3.3204998461047664e-37 -1.7941182511970269e-37 0.0000000000000000e+00  -1.5557015428293586e-37 1.5085199975485130e-37 0.0000000000000000e+00  -1.6426232034256243e-36 6.6937498681888633e-37 0.0000000000000000e+00  5.6060574316836437e-36 -2.7939985325173196e-36 0.0000000000000000e+00  -6.4125389853220733e-36 4.0695654714170505e-36 0.0000000000000000e+00  -1.7697710548504356e-35 6.5322539141349988e-36 0.0000000000000000e+00  8.5258888573478173e-35 -4.1759438238589614e-35 0.0000000000000000e+00  -1.0570812191807983e-34 6.2787034964736373e-35 0.0000000000000000e+00  -2.3240169874367855e-34 9.3368873417825668e-35 0.0000000000000000e+00  1.1521876362869666e-33 -5.8179154392303632e-34 0.0000000000000000e+00  -1.1172791767876200e-33 6.6327376394976133e-34 0.0000000000000000e+00  -4.0515882825986767e-33 1.9392904910222917e-33 0.0000000000000000e+00  1.3666003310010390e-32 -7.1854239906985066e-33 0.0000000000000000e+00  -2.4579629004955623e-33 1.4902975774561147e-33 0.0000000000000000e+00  -6.7410699311209359e-32 3.5983893972230558e-32 0.0000000000000000e+00  1.1553878318644312e-31 -5.8684849892293590e-32 0.0000000000000000e+00  1.7567673471289238e-31 -1.0730185991820429e-31 0.0000000000000000e+00  -7.3811496124523665e-31 3.8252824816996890e-31 0.0000000000000000e+00  3.3924883772998139e-33 1.3848472215290106e-31 0.0000000000000000e+00  3.4056499285738251e-30 -1.8576889678610159e-30 0.0000000000000000e+00  -3.0059740249911257e-30 6.2241388200415480e-31 0.0000000000000000e+00  -1.2749332612032891e-29 7.5162099233879170e-30 0.0000000000000000e+00  2.1246281627987564e-29 -5.4304615273282544e-30 0.0000000000000000e+00  4.1897815116968409e-29 -2.7179065518980904e-29 0.0000000000000000e+00  -1.0927232712068262e-28 2.5742596509734199e-29 0.0000000000000000e+00  -1.4053578682494079e-28 9.0660534845935339e-29 0.0000000000000000e+00  5.1277489272027024e-28 -1.0951728502376941e-28 0.0000000000000000e+00  5.2502126394838788e-28 -2.7624096492989679e-28 0.0000000000000000e+00  -2.3459252825580652e-27 5.4523460412317670e-28 0.0000000000000000e+00  -3.5604706450092056e-27 1.3576153168875842e-27 0.0000000000000000e+00  8.8013812199213850e-27 -2.0135162264920653e-27 0.0000000000000000e+00  2.0575204043205907e-26 -6.7597732599859121e-27 0.0000000000000000e+00  -4.0052570621374098e-27 -3.1197215094819600e-27 0.0000000000000000e+00  -7.0016877679430092e-26 1.2544028117745739e-26 0.0000000000000000e+00  -7.1874024603424903e-26 1.5217879733267362e-26 0.0000000000000000e+00  1.2502184034633952e-25 -2.6154531202440408e-26 0.0000000000000000e+00  5.1316938577028540e-25 -1.0421410195542427e-25 0.0000000000000000e+00  7.7003796921397509e-25 -1.4776466781984213e-25 0.0000000000000000e+00  6.8142865282863456e-25 -1.2482263805676742e-25 0.0000000000000000e+00  3.2770511575873755e-25 -6.3993559639392746e-26 0.0000000000000000e+00  6.0977869119851289e-26 -1.5687655209106130e-26 0.0000000000000000e+00  7.7285630281505015e-26 1.7334347077495921e-26 0.0000000000000000e+00  2.5550784678445417e-25 4.6737091014837994e-26 0.0000000000000000e+00  3.4700005531617079e-25 5.9731268439083668e-26 0.0000000000000000e+00  2.4101309205137037e-25 3.8659021154274996e-26 0.0000000000000000e+00  6.6754966677522657e-26 3.9764156162693809e-27 0.0000000000000000e+00  -3.3129593097722516e-26 -1.2303837824659209e-26 0.0000000000000000e+00  -2.7077228585146507e-26 -3.6808015964051829e-27 0.0000000000000000e+00  7.8869264533309591e-27 7.4156187289501563e-27 0.0000000000000000e+00  1.6632131605588677e-26 7.3844714710642224e-27 0.0000000000000000e+00  5.3517409365151588e-27 1.9024324582318276e-27 0.0000000000000000e+00  -2.0905353421128001e-27 -7.7437821895992612e-28 0.0000000000000000e+00  -1.5580849584551586e-27 -4.8851025073680711e-28 0.0000000000000000e+00  2.5772139647781169e-28 7.5186606710886245e-29 0.0000000000000000e+00  3.0058028056416947e-28 5.5274247883175276e-29 0.0000000000000000e+00  -7.2479658088219107e-29 -3.1984099214037355e-29 0.0000000000000000e+00  -5.4986842438379184e-29 -3.8305272595183215e-30 0.0000000000000000e+00  2.5457493936372865e-29 1.2575863730538369e-29 0.0000000000000000e+00  8.3072839414540170e-30 -8.4534871923093323e-31 0.0000000000000000e+00  -7.9659071353915471e-30 -3.6808596100041147e-30 0.0000000000000000e+00  -4.4180699674656593e-31 6.3583351677328097e-31 0.0000000000000000e+00  1.9136147355475344e-30 8.0329810269440412e-31 0.0000000000000000e+00  -3.3822123259065984e-31 -2.8324537789455373e-31 0.0000000000000000e+00  -3.4835250359207319e-31 -1.3241217469648786e-31 0.0000000000000000e+00  1.6052900271034527e-31 8.9206233054818396e-32 0.0000000000000000e+00  2.9015438151451553e-32 6.7550771053205295e-33 0.0000000000000000e+00  -4.1785259092297307e-32 -2.0351952378806078e-32 0.0000000000000000e+00  6.1414169792085332e-33 3.9782149162488985e-33 0.0000000000000000e+00  6.8814063258780055e-33 3.1015238988937429e-33 0.0000000000000000e+00  -3.5761968508588267e-33 -1.7912236258359712e-33 0.0000000000000000e+00  -9.5126775415796610e-35 -9.4472914688136471e-36 0.0000000000000000e+00  6.8043939377819398e-34 3.2699425001834767e-34 0.0000000000000000e+00  -2.4812223889503771e-34 -1.2270099652099661e-34 0.0000000000000000e+00  -2.8410362958565145e-35 -1.2898461072297052e-35 0.0000000000000000e+00  5.6755614287221958e-35 2.7454117485140346e-35 0.0000000000000000e+00  -1.8955291563579430e-35 -9.2690206128773009e-36 0.0000000000000000e+00  -1.4168950349498994e-36 -6.3317419446619033e-37 0.0000000000000000e+00  3.7604577974218896e-36 1.8161477412375935e-36 0.0000000000000000e+00  -1.4568938308638798e-36 -7.1973993877076325e-37 0.0000000000000000e+00  5.9720002690732568e-38 3.9870923618565141e-38 0.0000000000000000e+00  2.0348891613784069e-37 9.6409975566761793e-38 0.0000000000000000e+00  -1.0709526562606485e-37 -5.3913345992797183e-38 0.0000000000000000e+00  2.1566387774606836e-38 1.2305735327701702e-38 0.0000000000000000e+00  5.5879213424000524e-39 2.1389275017649056e-39 0.0000000000000000e+00  -6.2681614218490456e-39 -3.1579117691786022e-39 0.0000000000000000e+00  2.4505635887874788e-39 1.4007449191631345e-39 0.0000000000000000e+00  -3.6149929705050025e-40 -2.7488846611584397e-40 0.0000000000000000e+00  -1.7188249345439991e-40 -7.2340657824340032e-41 0.0000000000000000e+00  1.3005019493107156e-40 7.0229635488226703e-41 0.0000000000000000e+00  -7.3547159510824971e-41 -5.2296706522424277e-41 0.0000000000000000e+00  6.7620038823357124e-41 4.2891102165872852e-41 0.0000000000000000e+00  1.7495139795796268e-40 1.4178342574664473e-40 0.0000000000000000e+00  -3.7578911715852189e-40 -3.6288808538614315e-40 0.0000000000000000e+00  5.2182157746218440e-39 4.4511742855771363e-39 0.0000000000000000e+00  -2.2580255014473737e-38 -2.0072645309737859e-38 0.0000000000000000e+00  8.7298824299977576e-38 7.6006783251819550e-38 0.0000000000000000e+00  -2.3532316115099074e-37 -2.0744038216978559e-37 0.0000000000000000e+00  1.6686371767698006e-36 1.5748947409936324e-36 0.0000000000000000e+00  -3.3751128886409781e-36 -3.7147283495035186e-36 0.0000000000000000e+00  4.3002466232629102e-36 7.4033359484986578e-36 0.0000000000000000e+00  2.9969357550582150e-35 1.9564629412723215e-35 0.0000000000000000e+00  -2.5214728369443526e-34 -2.2100086168506562e-34 0.0000000000000000e+00  5.1744803988511257e-34 5.2489516296005073e-34 0.0000000000000000e+00  -1.5231175676056865e-33 -1.8337664488597356e-33 0.0000000000000000e+00  3.4605345035483146e-33 3.5041030557892636e-33 0.0000000000000000e+00  4.3991855809985036e-34 -8.2922906339869699e-34 0.0000000000000000e+00  -2.3018485979882128e-32 -1.6759245353682935e-32 0.0000000000000000e+00  -2.2618046451950427e-32 -2.9600002588043295e-32 0.0000000000000000e+00  1.2569553036801982e-32 7.5012854322854402e-32 0.0000000000000000e+00  -9.4662092272267985e-32 -3.0962816046454167e-31 0.0000000000000000e+00  -3.5224470101779752e-31 -8.2373650260356583e-31 0.0000000000000000e+00  2.8348642966121237e-30 6.1947941311081489e-30 0.0000000000000000e+00  1.5581523356502567e-30 2.7409124282674988e-30 0.0000000000000000e+00  -1.1243577107431728e-29 -2.1031800086272345e-29 0.0000000000000000e+00  -2.5926308548175215e-30 -7.4348877132124068e-30 0.0000000000000000e+00  -7.7365213895320437e-30 -4.8421714108221269e-29 0.0000000000000000e+00  1.5396561229081640e-29 6.2875417209064652e-29 0.0000000000000000e+00  5.2758507043246771e-29 2.1614752634774497e-28 0.0000000000000000e+00  1.1430254868170084e-29 4.4797537206964724e-29 0.0000000000000000e+00  1.6447988664301736e-29 1.0008322979974477e-28 0.0000000000000000e+00  -1.0659105478612286e-28 -6.0472353885199167e-28 0.0000000000000000e+00  3.1246764279151875e-29 2.6235055427721621e-28 0.0000000000000000e+00  7.3295805565673181e-30 2.8722914162141922e-28 0.0000000000000000e+00  7.7174173534495730e-29 5.5798981485296551e-28 0.0000000000000000e+00  1.3051413712802263e-28 5.7120077619430445e-28 0.0000000000000000e+00  9.6656879315914887e-30 -7.7223520850017624e-28 0.0000000000000000e+00  9.9484522163433714e-29 -3.3326614321823323e-29 0.0000000000000000e+00  7.9737611951276323e-29 -3.9823081360772111e-29 0.0000000000000000e+00  3.5547088867475769e-29 -5.4921459110323933e-28 0.0000000000000000e+00  4.6872239460916652e-29 -5.1627318720861758e-28 0.0000000000000000e+00  -1.3334060586622617e-28 -5.9114980113960873e-28 0.0000000000000000e+00  -2.4259969244907405e-28 -4.0639589176337900e-29 0.0000000000000000e+00  -2.8912502640942943e-28 8.2514363783528270e-28 0.0000000000000000e+00  -1.6112701067480724e-28 3.1139542872678476e-28 0.0000000000000000e+00  1.3621108777413075e-28 -3.2964963050784803e-28 0.0000000000000000e+00  -2.3251714989163736e-28 5.8792241401590991e-28 0.0000000000000000e+00  -2.3128892985636720e-28 6.3336098878030390e-28 0.0000000000000000e+00  4.1608581895598866e-29 4.0768945853547295e-28 0.0000000000000000e+00  -6.6805892217421429e-29 6.0563553435821117e-28 0.0000000000000000e+00  1.9153989401084871e-29 7.0802685467109970e-28 0.0000000000000000e+00  -2.1786127214140200e-28 7.5904298458581466e-28 0.0000000000000000e+00  -2.1953007335312442e-28 7.2479176938036233e-28 0.0000000000000000e+00  3.4579702034068793e-29 8.4703554902803958e-28 0.0000000000000000e+00  -5.5597075274638056e-29 8.4557579647562152e-28 0.0000000000000000e+00  5.0729463544657723e-29 2.5111026317525284e-28 0.0000000000000000e+00  -1.8651820821659659e-28 1.6696280286874575e-27 0.0000000000000000e+00  -1.3222076755247610e-28 1.1085273132931158e-27 0.0000000000000000e+00  -1.2146142027501285e-28 1.4454178032036222e-27 0.0000000000000000e+00  -1.0299254543482968e-28 1.0317730516748043e-27 0.0000000000000000e+00  4.4948625769942532e-29 1.3209613412213203e-28 0.0000000000000000e+00  -2.3885613548878216e-29 9.4430205754023572e-28 0.0000000000000000e+00  8.4721502642762373e-29 2.9929411223372889e-28 0.0000000000000000e+00  4.5871456785859244e-29 -1.8334686499433943e-28 0.0000000000000000e+00  2.7751458456823994e-29 -8.2422879490671400e-28 0.0000000000000000e+00  -7.0252232852705131e-29 -1.3200617204827715e-28 0.0000000000000000e+00  -8.6439435340345044e-29 8.0128851339383750e-29 0.0000000000000000e+00  -2.2909265934153605e-29 1.7998463934245373e-28 0.0000000000000000e+00  2.1941211539314809e-29 1.7608593901605141e-28 0.0000000000000000e+00  6.5532670712610705e-30 -1.0417733227563827e-28 0.0000000000000000e+00  2.7888756121244430e-29 -3.7505794632428222e-28 0.0000000000000000e+00  7.6448870718681326e-30 -7.2906638379347647e-29 0.0000000000000000e+00  -1.1382140769874996e-29 7.6693865857362894e-29 0.0000000000000000e+00  7.3129323715842626e-30 -3.6932039686229189e-29 0.0000000000000000e+00  -1.9297488613583645e-30 9.1983186885410231e-30 0.0000000000000000e+00  -2.9316654958695125e-30 1.3923265905801733e-29 0.0000000000000000e+00  1.9953947495859698e-30 -5.8613559327857178e-30 0.0000000000000000e+00  2.8630991119877606e-30 -7.8665984815757089e-30 0.0000000000000000e+00  3.89091882162