<?xml version="1.0"?>
<VTKFile type="UnstructuredGrid"  version="0.1"  >
<UnstructuredGrid>
<Piece  NumberOfPoints="11902" NumberOfCells="23402">
<Points>
<DataArray  type="Float64"  NumberOfComponents="3"  format="ascii">-5 -5 0  5 -5 0  5 5 0  -5 5 0  1.247555428817006 0.001370534145506971 0  -4.9 -5 0  -4.8 -5 0  -4.7 -5 0  -4.6 -5 0  -4.5 -5 0  -4.4 -5 0  -4.3 -5 0  -4.2 -5 0  -4.1 -5 0  -4 -5 0  -3.9 -5 0  -3.8 -5 0  -3.7 -5 0  -3.6 -5 0  -3.5 -5 0  -3.4 -5 0  -3.3 -5 0  -3.2 -5 0  -3.1 -5 0  -3 -5 0  -2.9 -5 0  -2.8 -5 0  -2.7 -5 0  -2.6 -5 0  -2.5 -5 0  -2.4 -5 0  -2.3 -5 0  -2.2 -5 0  -2.1 -5 0  -2 -5 0  -1.9 -5 0  -1.8 -5 0  -1.7 -5 0  -1.6 -5 0  -1.5 -5 0  -1.4 -5 0  -1.3 -5 0  -1.2 -5 0  -1.1 -5 0  -1 -5 0  -0.9000000000000004 -5 0  -0.7999999999999998 -5 0  -0.7000000000000002 -5 0  -0.5999999999999996 -5 0  -0.5 -5 0  -0.4000000000000004 -5 0  -0.2999999999999998 -5 0  -0.2000000000000002 -5 0  -0.09999999999999964 -5 0  0 -5 0  0.09999999999999964 -5 0  0.2000000000000002 -5 0  0.2999999999999998 -5 0  0.4000000000000004 -5 0  0.5 -5 0  0.5999999999999996 -5 0  0.7000000000000002 -5 0  0.7999999999999998 -5 0  0.9000000000000004 -5 0  1 -5 0  1.1 -5 0  1.2 -5 0  1.3 -5 0  1.4 -5 0  1.5 -5 0  1.6 -5 0  1.7 -5 0  1.8 -5 0  1.9 -5 0  2 -5 0  2.1 -5 0  2.2 -5 0  2.3 -5 0  2.4 -5 0  2.5 -5 0  2.6 -5 0  2.7 -5 0  2.8 -5 0  2.9 -5 0  3 -5 0  3.1 -5 0  3.199999999999999 -5 0  3.300000000000001 -5 0  3.4 -5 0  3.5 -5 0  3.6 -5 0  3.699999999999999 -5 0  3.800000000000001 -5 0  3.9 -5 0  4 -5 0  4.1 -5 0  4.199999999999999 -5 0  4.300000000000001 -5 0  4.4 -5 0  4.5 -5 0  4.6 -5 0  4.699999999999999 -5 0  4.800000000000001 -5 0  4.9 -5 0  5 -4.9 0  5 -4.8 0  5 -4.7 0  5 -4.6 0  5 -4.5 0  5 -4.4 0  5 -4.3 0  5 -4.2 0  5 -4.1 0  5 -4 0  5 -3.9 0  5 -3.8 0  5 -3.7 0  5 -3.6 0  5 -3.5 0  5 -3.4 0  5 -3.3 0  5 -3.2 0  5 -3.1 0  5 -3 0  5 -2.9 0  5 -2.8 0  5 -2.7 0  5 -2.6 0  5 -2.5 0  5 -2.4 0  5 -2.3 0  5 -2.2 0  5 -2.1 0  5 -2 0  5 -1.9 0  5 -1.8 0  5 -1.7 0  5 -1.6 0  5 -1.5 0  5 -1.4 0  5 -1.3 0  5 -1.2 0  5 -1.1 0  5 -1 0  5 -0.9000000000000004 0  5 -0.7999999999999998 0  5 -0.7000000000000002 0  5 -0.5999999999999996 0  5 -0.5 0  5 -0.4000000000000004 0  5 -0.2999999999999998 0  5 -0.2000000000000002 0  5 -0.09999999999999964 0  5 0 0  5 0.09999999999999964 0  5 0.2000000000000002 0  5 0.2999999999999998 0  5 0.4000000000000004 0  5 0.5 0  5 0.5999999999999996 0  5 0.7000000000000002 0  5 0.7999999999999998 0  5 0.9000000000000004 0  5 1 0  5 1.1 0  5 1.2 0  5 1.3 0  5 1.4 0  5 1.5 0  5 1.6 0  5 1.7 0  5 1.8 0  5 1.9 0  5 2 0  5 2.1 0  5 2.2 0  5 2.3 0  5 2.4 0  5 2.5 0  5 2.6 0  5 2.7 0  5 2.8 0  5 2.9 0  5 3 0  5 3.1 0  5 3.199999999999999 0  5 3.300000000000001 0  5 3.4 0  5 3.5 0  5 3.6 0  5 3.699999999999999 0  5 3.800000000000001 0  5 3.9 0  5 4 0  5 4.1 0  5 4.199999999999999 0  5 4.300000000000001 0  5 4.4 0  5 4.5 0  5 4.6 0  5 4.699999999999999 0  5 4.800000000000001 0  5 4.9 0  4.9 5 0  4.8 5 0  4.7 5 0  4.6 5 0  4.5 5 0  4.4 5 0  4.3 5 0  4.2 5 0  4.1 5 0  4 5 0  3.9 5 0  3.8 5 0  3.7 5 0  3.6 5 0  3.5 5 0  3.4 5 0  3.3 5 0  3.2 5 0  3.1 5 0  3 5 0  2.9 5 0  2.8 5 0  2.7 5 0  2.6 5 0  2.5 5 0  2.4 5 0  2.3 5 0  2.2 5 0  2.1 5 0  2 5 0  1.9 5 0  1.8 5 0  1.7 5 0  1.6 5 0  1.5 5 0  1.4 5 0  1.3 5 0  1.2 5 0  1.1 5 0  1 5 0  0.9000000000000004 5 0  0.7999999999999998 5 0  0.7000000000000002 5 0  0.5999999999999996 5 0  0.5 5 0  0.4000000000000004 5 0  0.2999999999999998 5 0  0.2000000000000002 5 0  0.09999999999999964 5 0  0 5 0  -0.09999999999999964 5 0  -0.2000000000000002 5 0  -0.2999999999999998 5 0  -0.4000000000000004 5 0  -0.5 5 0  -0.5999999999999996 5 0  -0.7000000000000002 5 0  -0.7999999999999998 5 0  -0.9000000000000004 5 0  -1 5 0  -1.1 5 0  -1.2 5 0  -1.3 5 0  -1.4 5 0  -1.5 5 0  -1.6 5 0  -1.7 5 0  -1.8 5 0  -1.9 5 0  -2 5 0  -2.1 5 0  -2.2 5 0  -2.3 5 0  -2.4 5 0  -2.5 5 0  -2.6 5 0  -2.7 5 0  -2.8 5 0  -2.9 5 0  -3 5 0  -3.1 5 0  -3.199999999999999 5 0  -3.300000000000001 5 0  -3.4 5 0  -3.5 5 0  -3.6 5 0  -3.699999999999999 5 0  -3.800000000000001 5 0  -3.9 5 0  -4 5 0  -4.1 5 0  -4.199999999999999 5 0  -4.300000000000001 5 0  -4.4 5 0  -4.5 5 0  -4.6 5 0  -4.699999999999999 5 0  -4.800000000000001 5 0  -4.9 5 0  -5 4.9 0  -5 4.8 0  -5 4.7 0  -5 4.6 0  -5 4.5 0  -5 4.4 0  -5 4.3 0  -5 4.2 0  -5 4.1 0  -5 4 0  -5 3.9 0  -5 3.8 0  -5 3.7 0  -5 3.6 0  -5 3.5 0  -5 3.4 0  -5 3.3 0  -5 3.2 0  -5 3.1 0  -5 3 0  -5 2.9 0  -5 2.8 0  -5 2.7 0  -5 2.6 0  -5 2.5 0  -5 2.4 0  -5 2.3 0  -5 2.2 0  -5 2.1 0  -5 2 0  -5 1.9 0  -5 1.8 0  -5 1.7 0  -5 1.6 0  -5 1.5 0  -5 1.4 0  -5 1.3 0  -5 1.2 0  -5 1.1 0  -5 1 0  -5 0.9000000000000004 0  -5 0.7999999999999998 0  -5 0.7000000000000002 0  -5 0.5999999999999996 0  -5 0.5 0  -5 0.4000000000000004 0  -5 0.2999999999999998 0  -5 0.2000000000000002 0  -5 0.09999999999999964 0  -5 0 0  -5 -0.09999999999999964 0  -5 -0.2000000000000002 0  -5 -0.2999999999999998 0  -5 -0.4000000000000004 0  -5 -0.5 0  -5 -0.5999999999999996 0  -5 -0.7000000000000002 0  -5 -0.7999999999999998 0  -5 -0.9000000000000004 0  -5 -1 0  -5 -1.1 0  -5 -1.2 0  -5 -1.3 0  -5 -1.4 0  -5 -1.5 0  -5 -1.6 0  -5 -1.7 0  -5 -1.8 0  -5 -1.9 0  -5 -2 0  -5 -2.1 0  -5 -2.2 0  -5 -2.3 0  -5 -2.4 0  -5 -2.5 0  -5 -2.6 0  -5 -2.7 0  -5 -2.8 0  -5 -2.9 0  -5 -3 0  -5 -3.1 0  -5 -3.199999999999999 0  -5 -3.300000000000001 0  -5 -3.4 0  -5 -3.5 0  -5 -3.6 0  -5 -3.699999999999999 0  -5 -3.800000000000001 0  -5 -3.9 0  -5 -4 0  -5 -4.1 0  -5 -4.199999999999999 0  -5 -4.300000000000001 0  -5 -4.4 0  -5 -4.5 0  -5 -4.6 0  -5 -4.699999999999999 0  -5 -4.800000000000001 0  -5 -4.9 0  1.240136662019355 0.09622199449906121 0  1.219314577142907 0.1934979215120294 0  1.186149180138183 0.2900788713390152 0  1.143550183861822 0.3795547987146407 0  1.086847033322614 0.4701369968731747 0  1.021862744041512 0.5548197956241672 0  0.944668633050634 0.6345798498339877 0  0.8588434179380957 0.7085650664288285 0  0.767284513071818 0.7739322545828669 0  0.6654338072774008 0.8314995035447957 0  0.5553990029548023 0.8837337151645255 0  0.4436558031584844 0.927197187300575 0  0.3307886343099168 0.959867139423314 0  0.2081152021949647 0.9814775818850757 0  0.08939082333041237 0.9996286769400602 0  -0.02749308971350843 1.002727992619123 0  -0.1452186497763823 0.9897755526606797 0  -0.2700926828168987 0.9713281281162031 0  -0.388449609123188 0.9465976878076334 0  -0.4993043882422894 0.9102922905104185 0  -0.6077098127308966 0.8639492158252793 0  -0.7097604233505417 0.8095151111789275 0  -0.8041308256544307 0.745031039183072 0  -0.8940885173994251 0.6724046190474042 0  -0.9781092877982664 0.5932375832850052 0  -1.050950044226365 0.5120071011334726 0  -1.112361968696947 0.4260429731965303 0  -1.163793931676365 0.3343805298874309 0  -1.201543163385421 0.2432544141467356 0  -1.22604388995015 0.1486534426645443 0  -1.23785669064398 0.05095884007352666 0  -1.237808443392439 -0.04884654408038724 0  -1.225954257821006 -0.1459066408137449 0  -1.201347109698047 -0.2397116941356589 0  -1.161463905392173 -0.3346418364629882 0  -1.112597206998355 -0.4258351735395545 0  -1.052370006501381 -0.5116616342652168 0  -0.9803354478931466 -0.5921718799029465 0  -0.8969303650272028 -0.6700990472815356 0  -0.8072759143262634 -0.7411900542822573 0  -0.7113679736799132 -0.802154631899561 0  -0.607343138342395 -0.8555070279045225 0  -0.4952514342188337 -0.9045396654426213 0  -0.3826462807178355 -0.9437439474661335 0  -0.2667877394789652 -0.9707682096363037 0  -0.1438753674025542 -0.9893426378136192 0  -0.02797044376230565 -1.001880891877627 0  0.08940385955180244 -0.9951763038885483 0  0.2127794566764968 -0.9784812041110794 0  0.3331384950477442 -0.9582929657430307 0  0.4477348452363654 -0.9258592148311755 0  0.5576470202659444 -0.882847191185545 0  0.6663158245548986 -0.8315102289575622 0  0.7673061403799041 -0.7750964392665378 0  0.8589375209527308 -0.7095169533950405 0  0.9440261186266452 -0.6344909512269149 0  1.019438487291701 -0.5540508097868336 0  1.087082790426697 -0.4691811923457542 0  1.144464880101859 -0.379705397234409 0  1.187848847402426 -0.2881044362105052 0  1.219882899177496 -0.1926109537120329 0  1.240360509056531 -0.09587210389197939 0  -2.448596897810562 4.918178691808881 0  -2.448474290870637 -4.910562934156148 0  4.910488819693087 2.447942390109592 0  4.918608919066502 -2.449399578988711 0  2.446210292153274 -4.895806379066228 0  2.44064236801397 4.899566462084307 0  -4.910515364981696 -2.447968291506129 0  -4.910512751905297 2.447972174343131 0  -1.748552389690496 4.911095678148656 0  -1.744337511187457 -4.914533584745539 0  4.920683216074851 1.744112698257649 0  4.909224026018155 -1.747880003613453 0  -4.909517295233612 -1.747613616680813 0  -4.910339111891417 1.747357965946234 0  1.745827568317528 4.904958113805859 0  1.747245244377976 -4.893113177632123 0  -1.148855948172713 4.908896781616392 0  -1.129710979519385 -4.916805672262917 0  -4.90925171384055 -1.14793366648351 0  -4.909070253487826 1.147734026782892 0  1.143849710760141 -4.91299304113773 0  1.148865653977725 4.908883712038874 0  4.909392251965546 1.146209187052087 0  4.920216391875767 -1.151990421979588 0  -0.5466764899342669 -4.910094202033584 0  -0.5464583580789463 4.918772457897872 0  -4.907997775961287 -0.5487117550380691 0  -4.908021777783666 0.547269320817108 0  4.907318284323364 -0.5490302282773095 0  4.918967291668271 0.5457870881205222 0  0.5424596106893548 -4.896981563359324 0  0.5511871989259375 4.915597520326584 0  -4.911922356998384 -3.048318395587642 0  4.918491373831992 3.046332939044635 0  4.911430449207566 -3.048294482148233 0  -4.912769993039807 3.045409756571796 0  3.055319132364991 -4.917416329813319 0  -3.048651384547609 -4.911354239350746 0  3.052218204516814 4.913431503418368 0  -3.048096857346517 4.912243781103133 0  -4.907110919661945 -0.04990807775858461 0  0.04512030276663144 -4.912044940222065 0  0.04956801088757392 4.919067351495335 0  4.914161877772993 -0.05129012413871183 0  3.54563379774215 -4.919050243252458 0  -3.54891554756926
[...]
<PointData  Vectors="f_3946"> 
<DataArray  type="Float64"  Name="f_3946"  NumberOfComponents="3" format="ascii">-8.6518443897506752e-41 -1.2038110463103560e-40 0.0000000000000000e+00  9.1718522674481385e-41 -1.2059538031767385e-40 0.0000000000000000e+00  -1.8243003865030562e-40 -1.7509112188324292e-40 0.0000000000000000e+00  -1.9327259807991446e-40 1.9555064014828895e-40 0.0000000000000000e+00  1.6335961372826652e+01 1.2323065949725205e-01 0.0000000000000000e+00  2.2146566644254792e-40 2.6726866367280760e-40 0.0000000000000000e+00  7.6605153864345880e-40 7.3179341993372766e-40 0.0000000000000000e+00  -1.9512604369699884e-39 -2.0316518577020037e-39 0.0000000000000000e+00  1.4954422541533645e-38 1.7520514781924662e-38 0.0000000000000000e+00  -5.2525570506964663e-38 -6.1012955908195852e-38 0.0000000000000000e+00  1.9229190765127999e-37 2.5517354509705367e-37 0.0000000000000000e+00  -7.2750344286037506e-37 -1.0129063500416891e-36 0.0000000000000000e+00  3.8188631433739844e-36 5.2097146516684494e-36 0.0000000000000000e+00  -2.1852698601933409e-35 -2.7889923426181910e-35 0.0000000000000000e+00  9.4011041537298446e-35 1.2034094331843794e-34 0.0000000000000000e+00  -2.0890538176009509e-34 -2.5063264957766015e-34 0.0000000000000000e+00  4.0159999080093608e-34 4.3855124134543588e-34 0.0000000000000000e+00  1.6810713029061599e-33 1.9075569292777736e-33 0.0000000000000000e+00  -6.8752693377134748e-33 -8.8022799232831293e-33 0.0000000000000000e+00  1.6990248948472077e-32 2.5015696332407215e-32 0.0000000000000000e+00  -1.0481405757647687e-31 -1.4746085658426910e-31 0.0000000000000000e+00  2.8375604554954580e-31 4.0043496585581410e-31 0.0000000000000000e+00  2.1454758215671563e-31 2.4035525855607459e-31 0.0000000000000000e+00  -1.6879182103012632e-30 -2.0513741422822624e-30 0.0000000000000000e+00  -4.6756059677098236e-31 -1.0996243987809301e-30 0.0000000000000000e+00  -5.7633150136059142e-31 -1.9476003978191255e-30 0.0000000000000000e+00  3.4945688168788166e-30 7.2294407735974527e-30 0.0000000000000000e+00  -8.1837756650347519e-30 -2.9349924353399426e-29 0.0000000000000000e+00  2.9553453372456144e-29 8.0699351502122237e-29 0.0000000000000000e+00  1.6575709618404802e-29 4.9883103169539844e-29 0.0000000000000000e+00  -1.4867543610338374e-28 -3.9007897325977694e-28 0.0000000000000000e+00  -6.0144160248482523e-29 -1.6673581071932158e-28 0.0000000000000000e+00  -8.8405946628288588e-29 -3.2601084537749343e-28 0.0000000000000000e+00  1.4209146896818421e-28 4.6213109498412702e-28 0.0000000000000000e+00  3.7217094408980191e-28 1.4125976032064436e-27 0.0000000000000000e+00  5.8366129035348843e-29 -6.3201513534183673e-29 0.0000000000000000e+00  1.7233373600013448e-28 4.2207939793522746e-28 0.0000000000000000e+00  -4.5853364414159650e-29 -2.4621068553156974e-28 0.0000000000000000e+00  -4.4791623454848378e-28 -1.3862745307376388e-27 0.0000000000000000e+00  -4.4317015174917060e-28 -1.3002667376978569e-27 0.0000000000000000e+00  -4.4959952773369143e-29 -1.1623895411089347e-28 0.0000000000000000e+00  3.9133700264290484e-28 1.3124891167166759e-27 0.0000000000000000e+00  2.6208595504444695e-28 7.2540371305142114e-28 0.0000000000000000e+00  8.8651121091775978e-30 -1.8856993469503664e-28 0.0000000000000000e+00  1.3620635139378988e-28 2.6791916481943290e-28 0.0000000000000000e+00  -2.7542009661104477e-28 1.0057087343216845e-27 0.0000000000000000e+00  -1.5233210550655306e-28 1.4856053395934897e-27 0.0000000000000000e+00  1.6919608792444242e-28 -8.8992306755231356e-28 0.0000000000000000e+00  -2.6904498709745257e-29 4.4902555518439054e-27 0.0000000000000000e+00  -2.7526769038867315e-28 5.8066438278324573e-29 0.0000000000000000e+00  -5.5831959183718075e-28 -3.6975237943926760e-27 0.0000000000000000e+00  -6.3575706746991409e-28 -1.9882504670987917e-27 0.0000000000000000e+00  -4.0060620049710381e-28 -3.2087772339945084e-27 0.0000000000000000e+00  1.0735173099442247e-28 -8.5545061474195458e-27 0.0000000000000000e+00  2.5551534990577783e-28 -9.8155814279312720e-27 0.0000000000000000e+00  -4.2700816215863863e-29 -1.6330579591898704e-27 0.0000000000000000e+00  -4.6570862216667025e-29 -5.2426578981542109e-27 0.0000000000000000e+00  -9.7423763366575805e-29 -1.8736415169610636e-27 0.0000000000000000e+00  3.6234695939230141e-29 -3.3831593701035088e-27 0.0000000000000000e+00  -1.1586072874276637e-28 1.7058567724519578e-27 0.0000000000000000e+00  2.8144574687115948e-28 -4.5439251858786080e-27 0.0000000000000000e+00  4.4042438048669564e-28 -4.1732901151691928e-27 0.0000000000000000e+00  -2.6160031986098432e-29 9.7912629558517163e-28 0.0000000000000000e+00  -5.3158726282851490e-28 6.4722822572005795e-27 0.0000000000000000e+00  -2.9375970276438223e-28 2.5850584495372552e-27 0.0000000000000000e+00  -2.9613124306269332e-28 1.3794406890228557e-27 0.0000000000000000e+00  -5.6503127704280339e-28 3.7221405781241633e-27 0.0000000000000000e+00  -3.2807029965267591e-28 1.9707493367052759e-27 0.0000000000000000e+00  3.2620817104651277e-28 -2.3148972117825254e-27 0.0000000000000000e+00  2.4377770935692002e-28 -1.0798917614867512e-27 0.0000000000000000e+00  5.1524450358972257e-29 -1.5192371012011819e-28 0.0000000000000000e+00  2.6140240607280539e-28 -7.8732848508494049e-28 0.0000000000000000e+00  1.6355514622667617e-28 -6.1974610035973168e-28 0.0000000000000000e+00  -1.4493033385444867e-28 5.4494967116845317e-28 0.0000000000000000e+00  -8.0734932245846544e-29 2.9110460551093267e-28 0.0000000000000000e+00  -6.1649195093660263e-29 2.3497911284347663e-28 0.0000000000000000e+00  2.0096321975123392e-29 -5.9236519514999123e-29 0.0000000000000000e+00  4.0819886510506532e-29 -1.4716486035703263e-28 0.0000000000000000e+00  6.3836844192759067e-29 -2.0688572925725025e-28 0.0000000000000000e+00  -9.1429952311098221e-30 1.4793715683612343e-29 0.0000000000000000e+00  -5.6629314445582823e-29 1.5041734356631687e-28 0.0000000000000000e+00  9.2036997200049305e-30 -2.3942299135294830e-29 0.0000000000000000e+00  3.3322361451091959e-30 -8.2943866599896900e-30 0.0000000000000000e+00  -1.1459931368078325e-29 2.1813126537149194e-29 0.0000000000000000e+00  -1.2432851146233853e-30 1.5959317743668106e-30 0.0000000000000000e+00  1.4522929768077591e-30 -2.3168501619722376e-30 0.0000000000000000e+00  -6.8659784810269803e-31 1.0659317763236318e-30 0.0000000000000000e+00  1.0760763748614065e-31 -1.6919893905368380e-31 0.0000000000000000e+00  -1.1048575838375278e-32 1.7614430406902966e-32 0.0000000000000000e+00  -3.2189200885250161e-33 4.1098121642648281e-33 0.0000000000000000e+00  6.5475148564160645e-33 -8.0675742166001434e-33 0.0000000000000000e+00  -1.3889239722951312e-34 2.5622870046944548e-34 0.0000000000000000e+00  -2.1429749122981406e-34 2.2631153812308049e-34 0.0000000000000000e+00  1.0318125870355771e-35 -6.3284185426811477e-37 0.0000000000000000e+00  -4.2350850732359680e-36 5.1840447075117260e-36 0.0000000000000000e+00  2.6450457533704524e-36 -3.0237470328803786e-36 0.0000000000000000e+00  -1.7576674567768818e-36 1.8461618789288866e-36 0.0000000000000000e+00  5.2469697809706089e-37 -5.9491130988989997e-37 0.0000000000000000e+00  -2.5308049117185673e-37 2.6789220280721310e-37 0.0000000000000000e+00  8.2099663902732402e-38 -8.3559203420769849e-38 0.0000000000000000e+00  -1.4796944037925406e-38 1.5455529122725631e-38 0.0000000000000000e+00  5.6332602914075722e-39 -5.6649298427797717e-39 0.0000000000000000e+00  -4.6305596059846600e-40 3.9537350186341194e-40 0.0000000000000000e+00  -1.6469161443203512e-40 2.1183148695639551e-40 0.0000000000000000e+00  8.9330468653240591e-42 -3.1549761907465136e-42 0.0000000000000000e+00  3.8110804116954684e-40 -3.1154841328848016e-40 0.0000000000000000e+00  -8.3939996956781693e-40 6.8226815177574855e-40 0.0000000000000000e+00  2.4045802229994824e-39 -2.2747254137237624e-39 0.0000000000000000e+00  -1.1723566960028272e-40 8.8067376687898021e-40 0.0000000000000000e+00  -1.5403504287763046e-38 1.1720069508891000e-38 0.0000000000000000e+00  4.8435518750883287e-38 -4.0957180564170977e-38 0.0000000000000000e+00  -4.7200755374116046e-38 4.8072180291362364e-38 0.0000000000000000e+00  -1.7347201325215186e-37 1.1676033868111071e-37 0.0000000000000000e+00  8.1461340371618055e-37 -6.3244233110356609e-37 0.0000000000000000e+00  -1.1542342849510220e-36 9.8995876231472613e-37 0.0000000000000000e+00  -1.9127296743661181e-36 1.1827308018461109e-36 0.0000000000000000e+00  1.1677243057529749e-35 -8.5862485193755266e-36 0.0000000000000000e+00  -1.9224583925756085e-35 1.5008007757104523e-35 0.0000000000000000e+00  -2.4141477755002117e-35 1.5034858027015731e-35 0.0000000000000000e+00  1.7020050361384316e-34 -1.2008519861638290e-34 0.0000000000000000e+00  -2.3630761596831797e-34 1.7287684892745870e-34 0.0000000000000000e+00  -4.4249169978888387e-34 2.9024289571998447e-34 0.0000000000000000e+00  2.2745418264856442e-33 -1.5393451557285938e-33 0.0000000000000000e+00  -1.8872490788504904e-33 1.2885833580623559e-33 0.0000000000000000e+00  -8.9228309574177379e-33 5.8066052621846495e-33 0.0000000000000000e+00  2.5517218261122239e-32 -1.6344605044639390e-32 0.0000000000000000e+00  6.3117031577169099e-33 -4.3466009975905159e-33 0.0000000000000000e+00  -1.4593738012441015e-31 9.0066353759907041e-32 0.0000000000000000e+00  1.7546032469139341e-31 -1.0113062438677151e-31 0.0000000000000000e+00  5.1198645077928245e-31 -3.1023576203728072e-31 0.0000000000000000e+00  -1.4123719900252843e-30 7.8921092687903029e-31 0.0000000000000000e+00  -9.8448928139790070e-31 6.4313771610666008e-31 0.0000000000000000e+00  7.8179419362806765e-30 -4.2072419685376026e-30 0.0000000000000000e+00  -1.8171541570986580e-30 2.8418383071153155e-31 0.0000000000000000e+00  -3.5386827708598364e-29 1.8414448591053247e-29 0.0000000000000000e+00  2.7914877928825630e-29 -9.7172926935684596e-30 0.0000000000000000e+00  1.4705744809326907e-28 -7.4444224893303694e-29 0.0000000000000000e+00  -1.6460694830359412e-28 5.3002294163465661e-29 0.0000000000000000e+00  -6.2306675421998507e-28 3.0069003566346047e-28 0.0000000000000000e+00  6.6978112386835445e-28 -1.5727099854226395e-28 0.0000000000000000e+00  2.6277950086437390e-27 -1.1591804131170600e-27 0.0000000000000000e+00  -2.0834683212063611e-27 1.6012099234821967e-28 0.0000000000000000e+00  -1.0285968306128312e-26 3.5576823173647901e-27 0.0000000000000000e+00  3.1641843919330618e-27 1.3452141889425289e-27 0.0000000000000000e+00  3.3082213696540458e-26 -8.0805663376923288e-27 0.0000000000000000e+00  1.6083039398180635e-26 -9.0693338542776688e-27 0.0000000000000000e+00  -9.0394598538253285e-26 1.1729212073361079e-26 0.0000000000000000e+00  -1.3038429989561928e-25 2.0830537497509229e-26 0.0000000000000000e+00  1.7361666151174582e-25 -4.3832260118954135e-26 0.0000000000000000e+00  9.1482819982808086e-25 -1.9871861158893464e-25 0.0000000000000000e+00  1.6113141957945772e-24 -3.3007583035244504e-25 0.0000000000000000e+00  1.8951179675648693e-24 -3.3632685512198325e-25 0.0000000000000000e+00  1.7826064736415827e-24 -1.8917048892549969e-25 0.0000000000000000e+00  1.7610321469069738e-24 2.3813357492134883e-26 0.0000000000000000e+00  1.8942519588413517e-24 2.1002370969140576e-25 0.0000000000000000e+00  1.7864626204525413e-24 2.7846696367496338e-25 0.0000000000000000e+00  1.2009038094714879e-24 2.0821781467995635e-25 0.0000000000000000e+00  3.8852762573065596e-25 6.6131445350284477e-26 0.0000000000000000e+00  -1.2326539114584859e-25 -3.0772971698261322e-26 0.0000000000000000e+00  -1.8961850831784369e-25 -3.8514209637669659e-26 0.0000000000000000e+00  -3.2863468640245097e-26 9.5478055770555221e-28 0.0000000000000000e+00  5.7005022127439540e-26 2.1019999315802111e-26 0.0000000000000000e+00  3.4936140514040042e-26 1.0997663216491840e-26 0.0000000000000000e+00  -4.1084825669218062e-27 -1.8261782725740243e-27 0.0000000000000000e+00  -9.3983632877021014e-27 -3.1401511483464060e-27 0.0000000000000000e+00  -4.1635639441586609e-28 6.5620595231573445e-29 0.0000000000000000e+00  2.3984935433243644e-27 9.2284353440709367e-28 0.0000000000000000e+00  2.3800873544695464e-28 4.5782912672191919e-29 0.0000000000000000e+00  -5.8665595426728837e-28 -2.4398316454922593e-28 0.0000000000000000e+00  -4.7642934075826110e-29 -8.5498899874780408e-30 0.0000000000000000e+00  1.3757388814936742e-28 6.0418234734746819e-29 0.0000000000000000e+00  -1.8654595422632408e-30 -4.0305561652488726e-30 0.0000000000000000e+00  -3.0247698512468404e-29 -1.3868956645409560e-29 0.0000000000000000e+00  4.1315513006144784e-30 2.7759221161714223e-30 0.0000000000000000e+00  5.5495208767416769e-30 2.6084610089731928e-30 0.0000000000000000e+00  -1.9270229797673452e-30 -1.1520735574465972e-30 0.0000000000000000e+00  -7.6890540615215013e-31 -3.4910335621745993e-31 0.0000000000000000e+00  5.6763462883913397e-31 3.3530148435757650e-31 0.0000000000000000e+00  1.1547171156339580e-32 -1.0337932108728977e-32 0.0000000000000000e+00  -1.1783971050141891e-31 -7.0110418804207395e-32 0.0000000000000000e+00  2.9329691837260988e-32 2.1287653566023648e-32 0.0000000000000000e+00  1.5793740602252359e-32 9.0612284637409989e-33 0.0000000000000000e+00  -1.0835011817476841e-32 -7.3398264820596202e-33 0.0000000000000000e+00  3.8729892475501887e-34 4.7085253757936606e-34 0.0000000000000000e+00  1.8387883447259489e-33 1.2469220841445916e-33 0.0000000000000000e+00  -7.3721429734235187e-34 -5.4186633963058202e-34 0.0000000000000000e+00  -7.6142519324181827e-35 -4.7303715645583457e-35 0.0000000000000000e+00  1.6462192582825937e-34 1.2192810637977755e-34 0.0000000000000000e+00  -5.0323510429124046e-35 -3.8409765983326881e-35 0.0000000000000000e+00  -8.4708536996173429e-36 -6.7673190625372743e-36 0.0000000000000000e+00  1.1811713412869507e-35 9.3829447826418131e-36 0.0000000000000000e+00  -3.4596529146248172e-36 -2.6939742146741619e-36 0.0000000000000000e+00  -5.1211651269547012e-37 -4.9116389457979081e-37 0.0000000000000000e+00  7.8570421556919279e-37 6.6928891320462189e-37 0.0000000000000000e+00  -2.6007728586367756e-37 -2.1025728039297456e-37 0.0000000000000000e+00  -9.3557986087213006e-39 -1.7104856316398169e-38 0.0000000000000000e+00  4.5057301104528809e-38 4.2136255182980366e-38 0.0000000000000000e+00  -1.9825430614797877e-38 -1.7228225480886591e-38 0.0000000000000000e+00  2.0896770619829973e-39 1.1119822125585974e-39 0.0000000000000000e+00  2.0371848317036093e-39 2.2032244898982472e-39 0.0000000000000000e+00  -1.2942893482278474e-39 -1.2414716207259900e-39 0.0000000000000000e+00  3.4280807937317194e-40 2.9378117634051269e-40 0.0000000000000000e+00  7.9046962227571336e-41 1.1456889650568973e-40 0.0000000000000000e+00  3.0114461210982618e-40 2.7976789750326457e-40 0.0000000000000000e+00  -6.2972306417826406e-40 -7.4792119895357158e-40 0.0000000000000000e+00  1.3318791896098622e-39 1.5787816250573575e-39 0.0000000000000000e+00  -8.4524233779860063e-39 -1.0549472325110435e-38 0.0000000000000000e+00  7.4727547694766298e-38 7.9710245184116137e-38 0.0000000000000000e+00  -2.1023640413951997e-37 -2.0564508408875472e-37 0.0000000000000000e+00  2.7574936327869660e-37 2.8713114350152612e-37 0.0000000000000000e+00  -3.3585024637486306e-36 -3.9352829996612706e-36 0.0000000000000000e+00  8.8202643222939529e-36 1.2124272842921720e-35 0.0000000000000000e+00  -3.2230843143744484e-35 -4.9806650027195543e-35 0.0000000000000000e+00  6.9292255959487834e-35 1.0385303754594151e-34 0.0000000000000000e+00  -7.1070334369338420e-35 -1.4542174863978928e-34 0.0000000000000000e+00  5.8957526229669719e-34 9.0181463893169088e-34 0.0000000000000000e+00  3.6293854355384017e-34 4.0963893758788467e-34 0.0000000000000000e+00  6.1045850806881982e-34 2.0066913749301599e-33 0.0000000000000000e+00  3.3813388038429986e-32 4.5185647309343981e-32 0.0000000000000000e+00  -1.2805914305033389e-31 -1.7852537175443020e-31 0.0000000000000000e+00  -5.1706703439822136e-31 -7.2596541008838135e-31 0.0000000000000000e+00  1.2400824807833440e-30 1.7481641474813243e-30 0.0000000000000000e+00  -8.3018602101682132e-31 -1.2113258217503697e-30 0.0000000000000000e+00  -2.9706424227236474e-30 -5.8863324131949694e-30 0.0000000000000000e+00  9.7447594796946042e-30 2.2791841743227766e-29 0.0000000000000000e+00  1.1924521012939721e-29 2.8181937083721776e-29 0.0000000000000000e+00  -6.9644879774386040e-29 -1.7576691645397262e-28 0.0000000000000000e+00  2.0433423980596780e-29 4.6939738448665671e-29 0.0000000000000000e+00  8.9026146086659425e-29 1.8412943952233722e-28 0.0000000000000000e+00  1.5076474397120761e-29 7.6924771325514673e-29 0.0000000000000000e+00  1.5272546507907439e-28 5.9868945159919008e-28 0.0000000000000000e+00  7.3839983419165439e-29 2.5850555458088872e-28 0.0000000000000000e+00  -1.3004125948495468e-28 -4.9273498355381350e-28 0.0000000000000000e+00  -3.5263979343043616e-28 -1.3662884602429126e-27 0.0000000000000000e+00  2.1640927873817678e-28 9.8712103929544385e-28 0.0000000000000000e+00  3.2038563946248152e-28 1.6239961967988552e-27 0.0000000000000000e+00  3.0286183928356171e-28 1.4323202205954276e-27 0.0000000000000000e+00  2.8483698280104397e-28 9.9372065065991042e-28 0.0000000000000000e+00  -3.7513658305157444e-28 -2.4291570524823906e-27 0.0000000000000000e+00  9.5511418029229751e-30 -4.0945697401436866e-28 0.0000000000000000e+00  6.4265882474216133e-29 -1.1624524299275233e-28 0.0000000000000000e+00  -1.6572581042657694e-28 -1.5460627921770862e-27 0.0000000000000000e+00  -1.2769574107156039e-28 -1.5116447256160154e-27 0.0000000000000000e+00  -4.0331235443742126e-28 -2.8725222253411741e-27 0.0000000000000000e+00  -3.4540476149065107e-28 -1.3732386752250226e-27 0.0000000000000000e+00  -1.3345260615581582e-28 1.3325135296921789e-27 0.0000000000000000e+00  -1.7834851219865093e-28 -4.9940688874244449e-28 0.0000000000000000e+00  -3.8713248668977886e-29 -2.5582144507328760e-27 0.0000000000000000e+00  -1.7502910893157078e-28 5.9839438326430432e-28 0.0000000000000000e+00  -1.6942009892003255e-28 4.6189799799122220e-28 0.0000000000000000e+00  3.7215120857645316e-29 -1.7069389115188904e-27 0.0000000000000000e+00  -1.8855442857058514e-29 -6.6006848138912494e-28 0.0000000000000000e+00  1.6068676124968575e-28 -1.7725995034293846e-27 0.0000000000000000e+00  -2.3614410621618751e-28 1.6035014383597757e-27 0.0000000000000000e+00  -2.2441646657764272e-28 1.5039342269375898e-27 0.0000000000000000e+00  3.3595919278062437e-28 -1.8449695855375690e-27 0.0000000000000000e+00  1.6733406612263808e-28 -5.2992314459737564e-28 0.0000000000000000e+00  3.3610346839430391e-28 -2.2071648913202035e-27 0.0000000000000000e+00  1.1918015195729767e-28 8.3888971006127226e-28 0.0000000000000000e+00  1.0381990822304344e-28 1.8053669732220217e-28 0.0000000000000000e+00  4.2362557253197349e-28 -1.3309795853738125e-27 0.0000000000000000e+00  2.4461728540674892e-28 -6.9898087477992181e-28 0.0000000000000000e+00  4.3686060896442693e-28 -2.6778319770832892e-27 0.0000000000000000e+00  7.0280219566426181e-28 -3.7201037158421484e-27 0.0000000000000000e+00  7.7908970239673885e-28 -4.6762087428853673e-27 0.0000000000000000e+00  1.8052456812081339e-28 -1.1186157767000897e-27 0.0000000000000000e+00  -3.6730296731126189e-28 1.7113562426670920e-27 0.0000000000000000e+00  -4.7996155791282313e-28 2.5231068845486991e-27 0.0000000000000000e+00  -5.1229807573469226e-28 2.6114910048953048e-27 0.0000000000000000e+00  -9.3585395781949283e-29 5.2523999044931124e-28 0.0000000000000000e+00  1.3958793077301842e-28 -6.1256855485810358e-28 0.0000000000000000e+00  7.3865071176142418e-29 -3.7653557424425838e-28 0.0000000000000000e+00  3.1866472282367961e-28 -1.4684157688160435e-27 0.0000000000000000e+00  1.4466910808439962e-28 -6.0321745430336865e-28 0.0000000000000000e+00  -1.2476040301959798e-28 5.2168512299284169e-28 0.0000000000000000e+00  -1.0339665718540936e-29 -1.1024946410493017e-30 0.0000000000000000e+00  1.8596602421461615e-29 -5.4009897208517594e-29 0.0000000000000000e+00  3.8498359865211168e-29 -1.1527604893925309e-28 0.0000000000000000e+00  -9.1011070390495468e-30 2.3987749115754122e-29 0.0000000000000000e+00  -1.3557345779246562e-29 3.5034913621309238e-29 0.0000000000000000e+00  6.6737478