<?xml version="1.0"?>
<VTKFile type="UnstructuredGrid"  version="0.1"  >
<UnstructuredGrid>
<Piece  NumberOfPoints="11902" NumberOfCells="23402">
<Points>
<DataArray  type="Float64"  NumberOfComponents="3"  format="ascii">-5 -5 0  5 -5 0  5 5 0  -5 5 0  1.255570688879097 0.001352198341671386 0  -4.9 -5 0  -4.8 -5 0  -4.7 -5 0  -4.6 -5 0  -4.5 -5 0  -4.4 -5 0  -4.3 -5 0  -4.2 -5 0  -4.1 -5 0  -4 -5 0  -3.9 -5 0  -3.8 -5 0  -3.7 -5 0  -3.6 -5 0  -3.5 -5 0  -3.4 -5 0  -3.3 -5 0  -3.2 -5 0  -3.1 -5 0  -3 -5 0  -2.9 -5 0  -2.8 -5 0  -2.7 -5 0  -2.6 -5 0  -2.5 -5 0  -2.4 -5 0  -2.3 -5 0  -2.2 -5 0  -2.1 -5 0  -2 -5 0  -1.9 -5 0  -1.8 -5 0  -1.7 -5 0  -1.6 -5 0  -1.5 -5 0  -1.4 -5 0  -1.3 -5 0  -1.2 -5 0  -1.1 -5 0  -1 -5 0  -0.9000000000000004 -5 0  -0.7999999999999998 -5 0  -0.7000000000000002 -5 0  -0.5999999999999996 -5 0  -0.5 -5 0  -0.4000000000000004 -5 0  -0.2999999999999998 -5 0  -0.2000000000000002 -5 0  -0.09999999999999964 -5 0  0 -5 0  0.09999999999999964 -5 0  0.2000000000000002 -5 0  0.2999999999999998 -5 0  0.4000000000000004 -5 0  0.5 -5 0  0.5999999999999996 -5 0  0.7000000000000002 -5 0  0.7999999999999998 -5 0  0.9000000000000004 -5 0  1 -5 0  1.1 -5 0  1.2 -5 0  1.3 -5 0  1.4 -5 0  1.5 -5 0  1.6 -5 0  1.7 -5 0  1.8 -5 0  1.9 -5 0  2 -5 0  2.1 -5 0  2.2 -5 0  2.3 -5 0  2.4 -5 0  2.5 -5 0  2.6 -5 0  2.7 -5 0  2.8 -5 0  2.9 -5 0  3 -5 0  3.1 -5 0  3.199999999999999 -5 0  3.300000000000001 -5 0  3.4 -5 0  3.5 -5 0  3.6 -5 0  3.699999999999999 -5 0  3.800000000000001 -5 0  3.9 -5 0  4 -5 0  4.1 -5 0  4.199999999999999 -5 0  4.300000000000001 -5 0  4.4 -5 0  4.5 -5 0  4.6 -5 0  4.699999999999999 -5 0  4.800000000000001 -5 0  4.9 -5 0  5 -4.9 0  5 -4.8 0  5 -4.7 0  5 -4.6 0  5 -4.5 0  5 -4.4 0  5 -4.3 0  5 -4.2 0  5 -4.1 0  5 -4 0  5 -3.9 0  5 -3.8 0  5 -3.7 0  5 -3.6 0  5 -3.5 0  5 -3.4 0  5 -3.3 0  5 -3.2 0  5 -3.1 0  5 -3 0  5 -2.9 0  5 -2.8 0  5 -2.7 0  5 -2.6 0  5 -2.5 0  5 -2.4 0  5 -2.3 0  5 -2.2 0  5 -2.1 0  5 -2 0  5 -1.9 0  5 -1.8 0  5 -1.7 0  5 -1.6 0  5 -1.5 0  5 -1.4 0  5 -1.3 0  5 -1.2 0  5 -1.1 0  5 -1 0  5 -0.9000000000000004 0  5 -0.7999999999999998 0  5 -0.7000000000000002 0  5 -0.5999999999999996 0  5 -0.5 0  5 -0.4000000000000004 0  5 -0.2999999999999998 0  5 -0.2000000000000002 0  5 -0.09999999999999964 0  5 0 0  5 0.09999999999999964 0  5 0.2000000000000002 0  5 0.2999999999999998 0  5 0.4000000000000004 0  5 0.5 0  5 0.5999999999999996 0  5 0.7000000000000002 0  5 0.7999999999999998 0  5 0.9000000000000004 0  5 1 0  5 1.1 0  5 1.2 0  5 1.3 0  5 1.4 0  5 1.5 0  5 1.6 0  5 1.7 0  5 1.8 0  5 1.9 0  5 2 0  5 2.1 0  5 2.2 0  5 2.3 0  5 2.4 0  5 2.5 0  5 2.6 0  5 2.7 0  5 2.8 0  5 2.9 0  5 3 0  5 3.1 0  5 3.199999999999999 0  5 3.300000000000001 0  5 3.4 0  5 3.5 0  5 3.6 0  5 3.699999999999999 0  5 3.800000000000001 0  5 3.9 0  5 4 0  5 4.1 0  5 4.199999999999999 0  5 4.300000000000001 0  5 4.4 0  5 4.5 0  5 4.6 0  5 4.699999999999999 0  5 4.800000000000001 0  5 4.9 0  4.9 5 0  4.8 5 0  4.7 5 0  4.6 5 0  4.5 5 0  4.4 5 0  4.3 5 0  4.2 5 0  4.1 5 0  4 5 0  3.9 5 0  3.8 5 0  3.7 5 0  3.6 5 0  3.5 5 0  3.4 5 0  3.3 5 0  3.2 5 0  3.1 5 0  3 5 0  2.9 5 0  2.8 5 0  2.7 5 0  2.6 5 0  2.5 5 0  2.4 5 0  2.3 5 0  2.2 5 0  2.1 5 0  2 5 0  1.9 5 0  1.8 5 0  1.7 5 0  1.6 5 0  1.5 5 0  1.4 5 0  1.3 5 0  1.2 5 0  1.1 5 0  1 5 0  0.9000000000000004 5 0  0.7999999999999998 5 0  0.7000000000000002 5 0  0.5999999999999996 5 0  0.5 5 0  0.4000000000000004 5 0  0.2999999999999998 5 0  0.2000000000000002 5 0  0.09999999999999964 5 0  0 5 0  -0.09999999999999964 5 0  -0.2000000000000002 5 0  -0.2999999999999998 5 0  -0.4000000000000004 5 0  -0.5 5 0  -0.5999999999999996 5 0  -0.7000000000000002 5 0  -0.7999999999999998 5 0  -0.9000000000000004 5 0  -1 5 0  -1.1 5 0  -1.2 5 0  -1.3 5 0  -1.4 5 0  -1.5 5 0  -1.6 5 0  -1.7 5 0  -1.8 5 0  -1.9 5 0  -2 5 0  -2.1 5 0  -2.2 5 0  -2.3 5 0  -2.4 5 0  -2.5 5 0  -2.6 5 0  -2.7 5 0  -2.8 5 0  -2.9 5 0  -3 5 0  -3.1 5 0  -3.199999999999999 5 0  -3.300000000000001 5 0  -3.4 5 0  -3.5 5 0  -3.6 5 0  -3.699999999999999 5 0  -3.800000000000001 5 0  -3.9 5 0  -4 5 0  -4.1 5 0  -4.199999999999999 5 0  -4.300000000000001 5 0  -4.4 5 0  -4.5 5 0  -4.6 5 0  -4.699999999999999 5 0  -4.800000000000001 5 0  -4.9 5 0  -5 4.9 0  -5 4.8 0  -5 4.7 0  -5 4.6 0  -5 4.5 0  -5 4.4 0  -5 4.3 0  -5 4.2 0  -5 4.1 0  -5 4 0  -5 3.9 0  -5 3.8 0  -5 3.7 0  -5 3.6 0  -5 3.5 0  -5 3.4 0  -5 3.3 0  -5 3.2 0  -5 3.1 0  -5 3 0  -5 2.9 0  -5 2.8 0  -5 2.7 0  -5 2.6 0  -5 2.5 0  -5 2.4 0  -5 2.3 0  -5 2.2 0  -5 2.1 0  -5 2 0  -5 1.9 0  -5 1.8 0  -5 1.7 0  -5 1.6 0  -5 1.5 0  -5 1.4 0  -5 1.3 0  -5 1.2 0  -5 1.1 0  -5 1 0  -5 0.9000000000000004 0  -5 0.7999999999999998 0  -5 0.7000000000000002 0  -5 0.5999999999999996 0  -5 0.5 0  -5 0.4000000000000004 0  -5 0.2999999999999998 0  -5 0.2000000000000002 0  -5 0.09999999999999964 0  -5 0 0  -5 -0.09999999999999964 0  -5 -0.2000000000000002 0  -5 -0.2999999999999998 0  -5 -0.4000000000000004 0  -5 -0.5 0  -5 -0.5999999999999996 0  -5 -0.7000000000000002 0  -5 -0.7999999999999998 0  -5 -0.9000000000000004 0  -5 -1 0  -5 -1.1 0  -5 -1.2 0  -5 -1.3 0  -5 -1.4 0  -5 -1.5 0  -5 -1.6 0  -5 -1.7 0  -5 -1.8 0  -5 -1.9 0  -5 -2 0  -5 -2.1 0  -5 -2.2 0  -5 -2.3 0  -5 -2.4 0  -5 -2.5 0  -5 -2.6 0  -5 -2.7 0  -5 -2.8 0  -5 -2.9 0  -5 -3 0  -5 -3.1 0  -5 -3.199999999999999 0  -5 -3.300000000000001 0  -5 -3.4 0  -5 -3.5 0  -5 -3.6 0  -5 -3.699999999999999 0  -5 -3.800000000000001 0  -5 -3.9 0  -5 -4 0  -5 -4.1 0  -5 -4.199999999999999 0  -5 -4.300000000000001 0  -5 -4.4 0  -5 -4.5 0  -5 -4.6 0  -5 -4.699999999999999 0  -5 -4.800000000000001 0  -5 -4.9 0  1.247648627534347 0.09527393770369737 0  1.226242791835634 0.1927268960167184 0  1.192886801716572 0.2892317347875368 0  1.150081320375095 0.3781917674735065 0  1.092515190944156 0.468935589703841 0  1.027038024946731 0.553380314307755 0  0.9490403180028762 0.6332477832765364 0  0.8625599536793573 0.7076745006342238 0  0.7708569488726182 0.7730849004499123 0  0.6685886970165194 0.8304730063210323 0  0.5573504995558679 0.8827681469644324 0  0.4451373784344511 0.9268790413859976 0  0.332505748359732 0.9592491277727357 0  0.2085888504128964 0.9807912458680199 0  0.08918132658371832 0.9995449977625903 0  -0.02726029428011542 1.00278021713516 0  -0.1450097682552423 0.9892301274841256 0  -0.2714166803343099 0.9704790615598561 0  -0.3904077616064394 0.9461004064395351 0  -0.5012216115105512 0.9099420034256254 0  -0.6102920665426319 0.8635131210789988 0  -0.7124574693207875 0.8089778199148382 0  -0.8070511925302265 0.7441871111008324 0  -0.8977083697900785 0.6709966842625058 0  -0.9827707405585013 0.5914687760753349 0  -1.05659746627405 0.5103826687689097 0  -1.118262039836174 0.42480582766672 0  -1.170876626519606 0.3327894852596119 0  -1.208847646277829 0.2428609170911987 0  -1.233346136301758 0.1485343207709036 0  -1.244691695961179 0.05132161698207413 0  -1.24464085645642 -0.04922704747723482 0  -1.233303262259676 -0.1457163417591996 0  -1.208543880354633 -0.2386418922217739 0  -1.167632866528183 -0.3334528621295182 0  -1.118568032465992 -0.4250041175547037 0  -1.058179478165291 -0.5101678902570692 0  -0.985136086478145 -0.5904391271907462 0  -0.900697320340562 -0.6688071035831672 0  -0.8104704894359106 -0.7403078606237963 0  -0.714513708025026 -0.8013141627609263 0  -0.6099640134891658 -0.8544438849383065 0  -0.4967680829490425 -0.9038272989034826 0  -0.3839515698351402 -0.9434534335947671 0  -0.2681476240398532 -0.9700890519245263 0  -0.1435922487848213 -0.9889528283356533 0  -0.02795120578619973 -1.001972885462898 0  0.08874384454060426 -0.9948649909073107 0  0.2136982752839794 -0.9775565554141148 0  0.3349600068817594 -0.9576862751341912 0  0.4492644525126358 -0.9255513393528192 0  0.5596921967890449 -0.8819354623244998 0  0.6695030098349005 -0.8305350792000841 0  0.7708322389548379 -0.7742166375230985 0  0.8626717275246907 -0.7086629987321273 0  0.9482624457448429 -0.6333005188034577 0  1.024443667577482 -0.5524588024199296 0  1.093093998797659 -0.4678841272520612 0  1.150951805437493 -0.3784493069095717 0  1.194632631202621 -0.287217638988584 0  1.226886745433894 -0.1918506030046641 0  1.247958424487883 -0.09499759780833704 0  -2.448567402681401 4.918124919057541 0  -2.448442133337552 -4.910504245136162 0  4.910428847100079 2.447900696614689 0  4.918554475529793 -2.449361671180981 0  2.446172871393797 -4.895737512326434 0  2.44060619724395 4.899499855679827 0  -4.910455795875845 -2.44792699769987 0  -4.910453093744074 2.447930897611613 0  -1.748521730198806 4.911017822359333 0  -1.74430814651849 -4.914458783511392 0  4.920607438118879 1.744074942734529 0  4.90913748040502 -1.747836735053578 0  -4.90943160459435 -1.747570931166796 0  -4.910254101752894 1.747315723162971 0  1.745794976080407 4.904874483090403 0  1.747208687138154 -4.893019264288532 0  -1.148831443144645 4.908802110616946 0  -1.12968892941088 -4.916719045594098 0  -4.909144406656948 -1.147898532032673 0  -4.908962652701279 1.147698911002095 0  1.143826721816399 -4.912902435083138 0  1.14884139015788 4.908788788451336 0  4.909284202350557 1.146173804131011 0  4.920121456035722 -1.15195913975102 0  -0.5466637005864577 -4.909991013294583 0  -0.5464468101831672 4.918679024491229 0  -4.907873068848831 -0.5486922289285336 0  -4.907897037091992 0.5472499563946299 0  4.907191636513335 -0.5490103475790257 0  4.918856509352966 0.5457698445289012 0  0.5424455041175613 -4.896863062076283 0  0.5511753846030247 4.915500364970993 0  -4.911882171466976 -3.048284276285918 0  4.918453922097984 3.046301057640109 0  4.911389849717912 -3.048259860116129 0  -4.912730043087923 3.04537592499807 0  3.055292918488705 -4.91737711814228 0  -3.048623196231695 -4.911312266357904 0  3.052190642424511 4.913390299540391 0  -3.04806887520487 4.912202162689189 0  -4.906979706211994 -0.04990615625198978 0  0.04511946281691925 -4.911940886670929 0  0.04956709337173242 4.918971414369373 0  4.914039636768128 -0.0512883134356935 0  3.545613097109861 -4.919022879590991 0  -3.548893053257092 4.91
[...]
<PointData  Vectors="f_4570"> 
<DataArray  type="Float64"  Name="f_4570"  NumberOfComponents="3" format="ascii">-7.7237265365774604e-41 -1.1711400547729162e-40 0.0000000000000000e+00  8.2355896873169556e-41 -1.1479478601241386e-40 0.0000000000000000e+00  -1.7610309509007318e-40 -1.7259958592278034e-40 0.0000000000000000e+00  -1.8412356450797103e-40 1.9337681844884944e-40 0.0000000000000000e+00  1.1581164260487169e+01 -2.8072512474649697e-01 0.0000000000000000e+00  2.0654300245682006e-40 2.6118595249888924e-40 0.0000000000000000e+00  8.7575788193527337e-40 8.2371342932231664e-40 0.0000000000000000e+00  -2.3891109533377536e-39 -2.3968093253412636e-39 0.0000000000000000e+00  1.6283336939879094e-38 1.8813101277934763e-38 0.0000000000000000e+00  -6.0179336520360848e-38 -6.8189953662699661e-38 0.0000000000000000e+00  2.1953841175019666e-37 2.8447017720072697e-37 0.0000000000000000e+00  -8.6404380961541071e-37 -1.1567784939778950e-36 0.0000000000000000e+00  4.0808126263619983e-36 5.5391229786296015e-36 0.0000000000000000e+00  -2.1182217213344295e-35 -2.7583116743392631e-35 0.0000000000000000e+00  9.4314279397102062e-35 1.2109227248723973e-34 0.0000000000000000e+00  -2.0697853890281497e-34 -2.4524433874346774e-34 0.0000000000000000e+00  3.7570950535770252e-34 4.0067497550417000e-34 0.0000000000000000e+00  1.7190723029277383e-33 1.8854415585411957e-33 0.0000000000000000e+00  -6.8255691696444123e-33 -8.5845088687010639e-33 0.0000000000000000e+00  1.5577200467170336e-32 2.3327866934764322e-32 0.0000000000000000e+00  -9.9864961945560747e-32 -1.4023406681479433e-31 0.0000000000000000e+00  2.7570995053703664e-31 3.8731036675210957e-31 0.0000000000000000e+00  1.9389810201657704e-31 1.8581686899207644e-31 0.0000000000000000e+00  -1.5758230366418134e-30 -1.7441577529835985e-30 0.0000000000000000e+00  -5.2270176791431923e-31 -1.2663593666605672e-30 0.0000000000000000e+00  -8.9764023977289904e-31 -2.8955465019677473e-30 0.0000000000000000e+00  3.5679572647786803e-30 7.5703867874339282e-30 0.0000000000000000e+00  -7.6435792884135501e-30 -2.8587197801943026e-29 0.0000000000000000e+00  2.9155491125840440e-29 8.0813490979644414e-29 0.0000000000000000e+00  1.5561405574503238e-29 4.9205182252167153e-29 0.0000000000000000e+00  -1.4133664180063291e-28 -3.8198502281507983e-28 0.0000000000000000e+00  -6.4482022502085834e-29 -1.7192697187184566e-28 0.0000000000000000e+00  -9.5567838032914071e-29 -3.0011429356381252e-28 0.0000000000000000e+00  1.3519536172852257e-28 4.1754818661615369e-28 0.0000000000000000e+00  3.3231137095568962e-28 1.1933840964064955e-27 0.0000000000000000e+00  8.6921997573834525e-29 6.3012808162175913e-29 0.0000000000000000e+00  1.7609953062661992e-28 4.3421399902638617e-28 0.0000000000000000e+00  -2.7654581624991359e-29 -1.6511977196955713e-28 0.0000000000000000e+00  -4.0478107306692935e-28 -1.2223581806334892e-27 0.0000000000000000e+00  -4.0251817656845947e-28 -1.2098011527706766e-27 0.0000000000000000e+00  -8.2657609775254054e-29 -3.3466277673233492e-28 0.0000000000000000e+00  2.6037032535542239e-28 9.2570083161407716e-28 0.0000000000000000e+00  1.7595742308647335e-28 4.8550543208534621e-28 0.0000000000000000e+00  -1.2539040856583924e-29 -2.9637862294911566e-28 0.0000000000000000e+00  9.8281999382195591e-29 1.8534865683804528e-28 0.0000000000000000e+00  -2.5347428694386362e-28 1.0582375913148022e-27 0.0000000000000000e+00  -1.8330478411897665e-28 1.3319501055005145e-27 0.0000000000000000e+00  1.9511658225043486e-28 -7.8720703230754593e-28 0.0000000000000000e+00  -1.6651727421465486e-28 3.7275088711652837e-27 0.0000000000000000e+00  -2.7109905920312706e-28 1.1249145729902877e-29 0.0000000000000000e+00  -4.5890989784932037e-28 -3.1529533179584652e-27 0.0000000000000000e+00  -5.8907088147036024e-28 -1.7844324301349157e-27 0.0000000000000000e+00  -3.9673260083386131e-28 -2.8332472807515184e-27 0.0000000000000000e+00  1.3128499321193092e-28 -7.2265139711996943e-27 0.0000000000000000e+00  2.6320697920836875e-28 -8.2577743490031889e-27 0.0000000000000000e+00  -4.2127382789565643e-29 -1.3913877062452260e-27 0.0000000000000000e+00  -1.0504081432966736e-28 -4.4925944463112819e-27 0.0000000000000000e+00  -1.9108349201677835e-28 -1.6535793985921781e-27 0.0000000000000000e+00  -5.9869206281212014e-29 -2.8788966637399755e-27 0.0000000000000000e+00  -1.2431441636423444e-28 1.5140962339167191e-27 0.0000000000000000e+00  8.3398834334354982e-29 -3.7198073604034781e-27 0.0000000000000000e+00  2.3071254998351314e-28 -3.3124670371675091e-27 0.0000000000000000e+00  -2.6989411470868796e-29 9.7183184784592702e-28 0.0000000000000000e+00  -3.0956450290295909e-28 5.6055759453168996e-27 0.0000000000000000e+00  -1.9480682401614423e-28 2.1915586911890002e-27 0.0000000000000000e+00  -2.0029455064688998e-28 9.2304607035790833e-28 0.0000000000000000e+00  -3.9724874231781017e-28 3.0246329309092457e-27 0.0000000000000000e+00  -2.2757013111965820e-28 1.5650626488767304e-27 0.0000000000000000e+00  2.5351451438727493e-28 -2.0390331700561093e-27 0.0000000000000000e+00  2.0103960842698102e-28 -8.6639057489823875e-28 0.0000000000000000e+00  1.3786908350177303e-29 -1.5891522453118226e-29 0.0000000000000000e+00  1.8401250984169344e-28 -4.7594492135556943e-28 0.0000000000000000e+00  1.1607729124674088e-28 -4.5636728619761000e-28 0.0000000000000000e+00  -1.1759346189689774e-28 4.6194818223720371e-28 0.0000000000000000e+00  -4.6493218802396116e-29 2.4367246107504886e-28 0.0000000000000000e+00  -3.3077079040992717e-29 1.2519122969869366e-28 0.0000000000000000e+00  3.0120868171485528e-29 -1.2283516755542237e-28 0.0000000000000000e+00  1.7837617706522535e-29 -4.9452587751011482e-29 0.0000000000000000e+00  3.7585715399288477e-29 -1.0362655899884527e-28 0.0000000000000000e+00  -9.5515476069116842e-30 1.7594691481971712e-29 0.0000000000000000e+00  -4.4879455874456701e-29 1.1148248814453466e-28 0.0000000000000000e+00  7.0874528949168653e-30 -1.6731158793269849e-29 0.0000000000000000e+00  2.9108789639024410e-30 -7.3077437119718251e-30 0.0000000000000000e+00  -1.0314214792633921e-29 1.9626837773891247e-29 0.0000000000000000e+00  -1.1750507601103024e-30 1.6064239129366101e-30 0.0000000000000000e+00  1.3286903131804926e-30 -2.1485220601495617e-30 0.0000000000000000e+00  -6.0926755730411810e-31 9.5091649171316306e-31 0.0000000000000000e+00  1.0649021839721384e-31 -1.6431682960490045e-31 0.0000000000000000e+00  -1.0592763887453909e-32 1.6739774086085852e-32 0.0000000000000000e+00  -4.0841640027695092e-33 4.9270976142036193e-33 0.0000000000000000e+00  6.7287906079290321e-33 -7.8505262011796268e-33 0.0000000000000000e+00  -2.6537578388869152e-34 3.9977841888983061e-34 0.0000000000000000e+00  -1.7290247191841373e-34 1.6048195977651689e-34 0.0000000000000000e+00  4.6894932642808288e-37 1.3137719045071532e-35 0.0000000000000000e+00  -3.3644238418525054e-36 3.0541241411114005e-36 0.0000000000000000e+00  2.5186974139262523e-36 -2.7044037479735570e-36 0.0000000000000000e+00  -1.6701537680142585e-36 1.7510711231919084e-36 0.0000000000000000e+00  5.0005487124509679e-37 -5.7334776275388925e-37 0.0000000000000000e+00  -2.3842330699093493e-37 2.5444525980183637e-37 0.0000000000000000e+00  7.6890909408174765e-38 -7.8685594239964358e-38 0.0000000000000000e+00  -1.4079110146829258e-38 1.4640710823470212e-38 0.0000000000000000e+00  5.1517854546996237e-39 -5.2746001797284294e-39 0.0000000000000000e+00  -4.2174583909560789e-40 3.5958112621085313e-40 0.0000000000000000e+00  -1.4522844551125773e-40 2.0055537497800036e-40 0.0000000000000000e+00  5.5583979354876845e-42 -1.1848944852519138e-42 0.0000000000000000e+00  3.4411558768081771e-40 -2.8540132605831151e-40 0.0000000000000000e+00  -7.6469962215912036e-40 6.3047230555944974e-40 0.0000000000000000e+00  1.9983854107582697e-39 -2.0704263736676717e-39 0.0000000000000000e+00  5.6063295332355359e-40 6.5355233224260269e-40 0.0000000000000000e+00  -1.5095957719107919e-38 1.1228239574606339e-38 0.0000000000000000e+00  4.3209891374579695e-38 -3.8063456155163402e-38 0.0000000000000000e+00  -3.2177744057849389e-38 4.1891618755218977e-38 0.0000000000000000e+00  -1.8905882047351301e-37 1.1887530750934612e-37 0.0000000000000000e+00  7.7494430774741698e-37 -6.0372032769128938e-37 0.0000000000000000e+00  -9.4952022006631825e-37 8.9553093523062216e-37 0.0000000000000000e+00  -2.2551772211294921e-36 1.2849756670900475e-36 0.0000000000000000e+00  1.1478312626131617e-35 -8.3461805182528287e-36 0.0000000000000000e+00  -1.6966055061442419e-35 1.3828313113770790e-35 0.0000000000000000e+00  -2.8423303592764775e-35 1.6629058762796344e-35 0.0000000000000000e+00  1.6862761469443853e-34 -1.1753193612385368e-34 0.0000000000000000e+00  -2.1368267807363181e-34 1.5903407237762604e-34 0.0000000000000000e+00  -4.7578524019729110e-34 3.0511714287797264e-34 0.0000000000000000e+00  2.2308476113037156e-33 -1.4963731626023417e-33 0.0000000000000000e+00  -1.6886480492986943e-33 1.1336346673903681e-33 0.0000000000000000e+00  -8.9545061151835150e-33 5.8423024468476473e-33 0.0000000000000000e+00  2.4638074382812336e-32 -1.5549896606319760e-32 0.0000000000000000e+00  6.8938806952386635e-33 -5.6129735264508744e-33 0.0000000000000000e+00  -1.4090102831783978e-31 8.7400153237131753e-32 0.0000000000000000e+00  1.6825331959284537e-31 -9.1038297346184094e-32 0.0000000000000000e+00  4.8375975919374583e-31 -3.0608259258474262e-31 0.0000000000000000e+00  -1.3448811233840073e-30 7.3416500050310089e-31 0.0000000000000000e+00  -8.6047047447295022e-31 6.6317368387262760e-31 0.0000000000000000e+00  7.3055196206524230e-30 -3.9345626837750904e-30 0.0000000000000000e+00  -2.1945768697380211e-30 3.2419989628101023e-32 0.0000000000000000e+00  -3.2320169051944921e-29 1.7195524127892177e-29 0.0000000000000000e+00  2.8774381798706307e-29 -8.2328005327945215e-30 0.0000000000000000e+00  1.3095041062778333e-28 -6.9078953864264433e-29 0.0000000000000000e+00  -1.6766266129592753e-28 4.6844206044816881e-29 0.0000000000000000e+00  -5.4494224646618919e-28 2.7598718242548326e-28 0.0000000000000000e+00  7.0756786454083731e-28 -1.4232424556003974e-28 0.0000000000000000e+00  2.2823937224162461e-27 -1.0448437633656722e-27 0.0000000000000000e+00  -2.4287801816339620e-27 1.8149891204800967e-28 0.0000000000000000e+00  -9.2760727136674044e-27 3.1684423482831838e-27 0.0000000000000000e+00  5.5430559252813872e-27 6.8662261450964856e-28 0.0000000000000000e+00  3.2470108384175301e-26 -7.8422798495743527e-27 0.0000000000000000e+00  8.4412918509513291e-27 -6.8373747006175413e-27 0.0000000000000000e+00  -9.7232277939975214e-26 1.3860377970137657e-26 0.0000000000000000e+00  -1.1275185058612679e-25 1.4898695701536122e-26 0.0000000000000000e+00  2.3466758521940887e-25 -6.7741623328049578e-26 0.0000000000000000e+00  1.0085807799498330e-24 -2.4550138831449615e-25 0.0000000000000000e+00  1.6723807495114987e-24 -3.8335252009530460e-25 0.0000000000000000e+00  1.8512619165271462e-24 -3.7459248326177314e-25 0.0000000000000000e+00  1.6016651022576714e-24 -2.0297758922266706e-25 0.0000000000000000e+00  1.4632529110270648e-24 2.2212277085187907e-26 0.0000000000000000e+00  1.5536777402171875e-24 2.0260193162648598e-25 0.0000000000000000e+00  1.5033926925710214e-24 2.6255316088718226e-25 0.0000000000000000e+00  1.0451940790867363e-24 1.9602207029677524e-25 0.0000000000000000e+00  3.6199474308941386e-25 6.7836419415478737e-26 0.0000000000000000e+00  -8.3629631549941629e-26 -1.9432807115304427e-26 0.0000000000000000e+00  -1.5161443467617206e-25 -2.8597568038032867e-26 0.0000000000000000e+00  -2.5073189607005288e-26 3.5398036664559042e-27 0.0000000000000000e+00  4.8818029283394104e-26 1.9429665080859697e-26 0.0000000000000000e+00  2.9892005056498713e-26 9.9993177078891257e-27 0.0000000000000000e+00  -2.8359313612310790e-27 -1.2125938991591848e-27 0.0000000000000000e+00  -7.4347441988026564e-27 -2.4083272414208575e-27 0.0000000000000000e+00  -2.6858818922317691e-28 1.4767817765246497e-28 0.0000000000000000e+00  1.8968519340362803e-27 7.3230407843248829e-28 0.0000000000000000e+00  1.4020653075520776e-28 -7.5295352673330511e-30 0.0000000000000000e+00  -4.7334128392950782e-28 -1.9945854195319622e-28 0.0000000000000000e+00  -2.0879561164068914e-29 8.3576209472368100e-30 0.0000000000000000e+00  1.1306375285448471e-28 5.0161862868096911e-29 0.0000000000000000e+00  -6.5711251601652023e-30 -8.0539417476535266e-30 0.0000000000000000e+00  -2.5066117619331554e-29 -1.1455764830159666e-29 0.0000000000000000e+00  4.6188206766405028e-30 3.5111297731381669e-30 0.0000000000000000e+00  4.5651020128058957e-30 2.0557999132700025e-30 0.0000000000000000e+00  -1.8753742589678887e-30 -1.2359999745737186e-30 0.0000000000000000e+00  -6.0685998567512446e-31 -2.3330581229896207e-31 0.0000000000000000e+00  5.3123728003439323e-31 3.3339272254797478e-31 0.0000000000000000e+00  -7.9168731875542946e-33 -3.1131783577785068e-32 0.0000000000000000e+00  -1.0833124052260636e-31 -6.6137183048790220e-32 0.0000000000000000e+00  3.0747659115091773e-32 2.4411952983778016e-32 0.0000000000000000e+00  1.3797502525931626e-32 7.5434566344945354e-33 0.0000000000000000e+00  -1.0583582461448895e-32 -7.5094503263686396e-33 0.0000000000000000e+00  6.4464240344564780e-34 7.6863305846342439e-34 0.0000000000000000e+00  1.7313069562744290e-33 1.1900763066006693e-33 0.0000000000000000e+00  -7.5019023666804939e-34 -5.7574297255544083e-34 0.0000000000000000e+00  -5.2834037569796355e-35 -2.6227892317933971e-35 0.0000000000000000e+00  1.5925530864596156e-34 1.2052547836818354e-34 0.0000000000000000e+00  -5.2491781443797393e-35 -4.1316218013627556e-35 0.0000000000000000e+00  -6.7046723210865631e-36 -5.4483928540757643e-36 0.0000000000000000e+00  1.1506560693173081e-35 9.3435691367781716e-36 0.0000000000000000e+00  -3.6377715242763220e-36 -2.8864328994521907e-36 0.0000000000000000e+00  -3.8013739297823460e-37 -4.0281269509853354e-37 0.0000000000000000e+00  7.5612313199348920e-37 6.6034066788604565e-37 0.0000000000000000e+00  -2.6881449540882156e-37 -2.2002822701727411e-37 0.0000000000000000e+00  -5.9718178772002499e-41 -1.1024234029519684e-38 0.0000000000000000e+00  4.2013936053633718e-38 4.0745756977442745e-38 0.0000000000000000e+00  -1.9821805876258954e-38 -1.7492951223188672e-38 0.0000000000000000e+00  2.6078342237239603e-39 1.4789970942078836e-39 0.0000000000000000e+00  1.7730004073319190e-39 2.0553112079270870e-39 0.0000000000000000e+00  -1.2380375305402765e-39 -1.2201408075631583e-39 0.0000000000000000e+00  3.5230659595873666e-40 3.0466764451226359e-40 0.0000000000000000e+00  5.9187774698692555e-41 1.0175311473437491e-40 0.0000000000000000e+00  2.9805712433394506e-40 2.7991665935440045e-40 0.0000000000000000e+00  -5.6722592704484038e-40 -7.0670071147629578e-40 0.0000000000000000e+00  1.2361965365895988e-39 1.5193988441125284e-39 0.0000000000000000e+00  -7.5453989323401771e-39 -9.9832707973189253e-39 0.0000000000000000e+00  7.0195388156995309e-38 7.7283540043360066e-38 0.0000000000000000e+00  -2.0392327579402149e-37 -2.0582372809536216e-37 0.0000000000000000e+00  2.8065918083956376e-37 3.0412686295295497e-37 0.0000000000000000e+00  -3.3559341872554163e-36 -4.0174804241239331e-36 0.0000000000000000e+00  8.9818471708879411e-36 1.2429522513655173e-35 0.0000000000000000e+00  -3.2358864445379348e-35 -4.9968275502842966e-35 0.0000000000000000e+00  6.5913762288365271e-35 9.9068456645267785e-35 0.0000000000000000e+00  -3.9775981422985412e-35 -1.0015804561434499e-34 0.0000000000000000e+00  4.3807012972801434e-34 6.9373822324760104e-34 0.0000000000000000e+00  9.4304901597999037e-34 1.1890445778644218e-33 0.0000000000000000e+00  -7.8640366929154489e-34 2.2284168247213735e-35 0.0000000000000000e+00  3.5163079011838383e-32 4.6466688779569391e-32 0.0000000000000000e+00  -1.2038648389828606e-31 -1.6374287547850415e-31 0.0000000000000000e+00  -5.6402093569813010e-31 -7.9381807473989055e-31 0.0000000000000000e+00  1.4353478636977551e-30 2.0569654225704244e-30 0.0000000000000000e+00  -1.1590617250513302e-30 -1.8083220300325286e-30 0.0000000000000000e+00  -3.2293106278299249e-30 -6.3937399349054643e-30 0.0000000000000000e+00  1.1027567754757411e-29 2.5832989335247198e-29 0.0000000000000000e+00  1.2456166967282619e-29 2.9477076121686622e-29 0.0000000000000000e+00  -6.9307614681109816e-29 -1.7759948222494413e-28 0.0000000000000000e+00  1.9383608385132297e-29 4.3807060540692373e-29 0.0000000000000000e+00  8.9536249530146867e-29 1.8950837218256080e-28 0.0000000000000000e+00  1.3005253544570161e-29 6.9149541205419404e-29 0.0000000000000000e+00  1.4392444729054105e-28 5.2918112870197479e-28 0.0000000000000000e+00  7.1843056548555697e-29 2.2974803665616086e-28 0.0000000000000000e+00  -1.2680149619445225e-28 -3.7015471269802768e-28 0.0000000000000000e+00  -3.4189785630408247e-28 -1.2832150554098322e-27 0.0000000000000000e+00  2.0784270736730871e-28 7.9868965348571079e-28 0.0000000000000000e+00  3.1337295474883323e-28 1.1034585477326440e-27 0.0000000000000000e+00  2.8687888822661474e-28 1.3378430979236835e-27 0.0000000000000000e+00  2.8116469477790594e-28 1.3005202285695677e-27 0.0000000000000000e+00  -3.5149459888206799e-28 -1.5348087432240625e-27 0.0000000000000000e+00  1.2573664270695734e-29 2.8608813024752793e-28 0.0000000000000000e+00  6.9280257220248409e-29 3.6604373765161091e-28 0.0000000000000000e+00  -1.4940040447629685e-28 -8.9365080063348169e-28 0.0000000000000000e+00  -1.0251551079983392e-28 -9.0378157070937323e-28 0.0000000000000000e+00  -3.1204326650963404e-28 -3.3937524638445340e-27 0.0000000000000000e+00  -2.9444383339798421e-28 -2.6956213306845009e-27 0.0000000000000000e+00  -1.5413514936562100e-28 -4.2759588052188012e-28 0.0000000000000000e+00  -1.3074213136766131e-28 -1.5753350221930914e-27 0.0000000000000000e+00  9.3496012143637307e-29 -2.2181539028192618e-27 0.0000000000000000e+00  -2.0266298858646348e-28 -5.4053511589920008e-28 0.0000000000000000e+00  -1.8516398281635403e-28 -6.9394034015986766e-28 0.0000000000000000e+00  1.6164548371438404e-28 -2.0821753275847656e-27 0.0000000000000000e+00  4.1093464496521961e-29 -1.3193140597031808e-27 0.0000000000000000e+00  2.8736870445005093e-28 -2.3111550433477302e-27 0.0000000000000000e+00  -3.1093433608416080e-28 8.0249260126008650e-28 0.0000000000000000e+00  -2.9853533673271178e-28 7.5197428171814723e-28 0.0000000000000000e+00  4.3105334885677784e-28 -2.1792959667986510e-27 0.0000000000000000e+00  1.9127849617198791e-28 -9.5611902539656223e-28 0.0000000000000000e+00  3.7873130063435656e-28 -2.1691835996805992e-27 0.0000000000000000e+00  8.7979667052873968e-29 -1.5058492341533459e-29 0.0000000000000000e+00  7.3655991090899674e-29 -3.5318008290106026e-28 0.0000000000000000e+00  3.6101255244462012e-28 -1.7795758988284691e-27 0.0000000000000000e+00  1.9205115582489833e-28 -1.0321505301125165e-27 0.0000000000000000e+00  3.8444285680052913e-28 -2.3839738036851890e-27 0.0000000000000000e+00  5.4242022564866324e-28 -3.4573520251985356e-27 0.0000000000000000e+00  5.9379400121112317e-28 -3.9027942027594911e-27 0.0000000000000000e+00  1.6142725317314724e-28 -8.6580597478267996e-28 0.0000000000000000e+00  -2.2358999938991774e-28 1.5781537995464233e-27 0.0000000000000000e+00  -3.2710389342157741e-28 1.8565555809489948e-27 0.0000000000000000e+00  -3.5987049877928615e-28 1.8310359137454783e-27 0.0000000000000000e+00  -7.4602734446233081e-29 3.4658079239859567e-28 0.0000000000000000e+00  8.8098728915078294e-29 -4.4962207792564368e-28 0.0000000000000000e+00  4.9241473844951481e-29 -2.4099560256901188e-28 0.0000000000000000e+00  2.0974580659111583e-28 -9.1266412276198822e-28 0.0000000000000000e+00  8.3982109728038611e-29 -3.6138683517798120e-28 0.0000000000000000e+00  -8.2182981363322021e-29 3.3478621474279703e-28 0.0000000000000000e+00  4.8800617369281156e-30 -3.0861190376810888e-29 0.0000000000000000e+00  8.5857817959077859e-30 -2.4874701210778648e-29 0.0000000000000000e+00  1.6361463372857949e-29 -5.0728559669669822e-29 0.0000000000000000e+00  -4.3513110849216864e-30 1.1462812473986593e-29 0.0000000000000000e+00  -7.2590193124240131e-30 1.8386550367729044e-29 0.0000000000000000e+00  5.76139