<?xml version="1.0"?>
<VTKFile type="UnstructuredGrid"  version="0.1"  >
<UnstructuredGrid>
<Piece  NumberOfPoints="11902" NumberOfCells="23402">
<Points>
<DataArray  type="Float64"  NumberOfComponents="3"  format="ascii">-5 -5 0  5 -5 0  5 5 0  -5 5 0  1.263013449392372 0.001286899505281089 0  -4.9 -5 0  -4.8 -5 0  -4.7 -5 0  -4.6 -5 0  -4.5 -5 0  -4.4 -5 0  -4.3 -5 0  -4.2 -5 0  -4.1 -5 0  -4 -5 0  -3.9 -5 0  -3.8 -5 0  -3.7 -5 0  -3.6 -5 0  -3.5 -5 0  -3.4 -5 0  -3.3 -5 0  -3.2 -5 0  -3.1 -5 0  -3 -5 0  -2.9 -5 0  -2.8 -5 0  -2.7 -5 0  -2.6 -5 0  -2.5 -5 0  -2.4 -5 0  -2.3 -5 0  -2.2 -5 0  -2.1 -5 0  -2 -5 0  -1.9 -5 0  -1.8 -5 0  -1.7 -5 0  -1.6 -5 0  -1.5 -5 0  -1.4 -5 0  -1.3 -5 0  -1.2 -5 0  -1.1 -5 0  -1 -5 0  -0.9000000000000004 -5 0  -0.7999999999999998 -5 0  -0.7000000000000002 -5 0  -0.5999999999999996 -5 0  -0.5 -5 0  -0.4000000000000004 -5 0  -0.2999999999999998 -5 0  -0.2000000000000002 -5 0  -0.09999999999999964 -5 0  0 -5 0  0.09999999999999964 -5 0  0.2000000000000002 -5 0  0.2999999999999998 -5 0  0.4000000000000004 -5 0  0.5 -5 0  0.5999999999999996 -5 0  0.7000000000000002 -5 0  0.7999999999999998 -5 0  0.9000000000000004 -5 0  1 -5 0  1.1 -5 0  1.2 -5 0  1.3 -5 0  1.4 -5 0  1.5 -5 0  1.6 -5 0  1.7 -5 0  1.8 -5 0  1.9 -5 0  2 -5 0  2.1 -5 0  2.2 -5 0  2.3 -5 0  2.4 -5 0  2.5 -5 0  2.6 -5 0  2.7 -5 0  2.8 -5 0  2.9 -5 0  3 -5 0  3.1 -5 0  3.199999999999999 -5 0  3.300000000000001 -5 0  3.4 -5 0  3.5 -5 0  3.6 -5 0  3.699999999999999 -5 0  3.800000000000001 -5 0  3.9 -5 0  4 -5 0  4.1 -5 0  4.199999999999999 -5 0  4.300000000000001 -5 0  4.4 -5 0  4.5 -5 0  4.6 -5 0  4.699999999999999 -5 0  4.800000000000001 -5 0  4.9 -5 0  5 -4.9 0  5 -4.8 0  5 -4.7 0  5 -4.6 0  5 -4.5 0  5 -4.4 0  5 -4.3 0  5 -4.2 0  5 -4.1 0  5 -4 0  5 -3.9 0  5 -3.8 0  5 -3.7 0  5 -3.6 0  5 -3.5 0  5 -3.4 0  5 -3.3 0  5 -3.2 0  5 -3.1 0  5 -3 0  5 -2.9 0  5 -2.8 0  5 -2.7 0  5 -2.6 0  5 -2.5 0  5 -2.4 0  5 -2.3 0  5 -2.2 0  5 -2.1 0  5 -2 0  5 -1.9 0  5 -1.8 0  5 -1.7 0  5 -1.6 0  5 -1.5 0  5 -1.4 0  5 -1.3 0  5 -1.2 0  5 -1.1 0  5 -1 0  5 -0.9000000000000004 0  5 -0.7999999999999998 0  5 -0.7000000000000002 0  5 -0.5999999999999996 0  5 -0.5 0  5 -0.4000000000000004 0  5 -0.2999999999999998 0  5 -0.2000000000000002 0  5 -0.09999999999999964 0  5 0 0  5 0.09999999999999964 0  5 0.2000000000000002 0  5 0.2999999999999998 0  5 0.4000000000000004 0  5 0.5 0  5 0.5999999999999996 0  5 0.7000000000000002 0  5 0.7999999999999998 0  5 0.9000000000000004 0  5 1 0  5 1.1 0  5 1.2 0  5 1.3 0  5 1.4 0  5 1.5 0  5 1.6 0  5 1.7 0  5 1.8 0  5 1.9 0  5 2 0  5 2.1 0  5 2.2 0  5 2.3 0  5 2.4 0  5 2.5 0  5 2.6 0  5 2.7 0  5 2.8 0  5 2.9 0  5 3 0  5 3.1 0  5 3.199999999999999 0  5 3.300000000000001 0  5 3.4 0  5 3.5 0  5 3.6 0  5 3.699999999999999 0  5 3.800000000000001 0  5 3.9 0  5 4 0  5 4.1 0  5 4.199999999999999 0  5 4.300000000000001 0  5 4.4 0  5 4.5 0  5 4.6 0  5 4.699999999999999 0  5 4.800000000000001 0  5 4.9 0  4.9 5 0  4.8 5 0  4.7 5 0  4.6 5 0  4.5 5 0  4.4 5 0  4.3 5 0  4.2 5 0  4.1 5 0  4 5 0  3.9 5 0  3.8 5 0  3.7 5 0  3.6 5 0  3.5 5 0  3.4 5 0  3.3 5 0  3.2 5 0  3.1 5 0  3 5 0  2.9 5 0  2.8 5 0  2.7 5 0  2.6 5 0  2.5 5 0  2.4 5 0  2.3 5 0  2.2 5 0  2.1 5 0  2 5 0  1.9 5 0  1.8 5 0  1.7 5 0  1.6 5 0  1.5 5 0  1.4 5 0  1.3 5 0  1.2 5 0  1.1 5 0  1 5 0  0.9000000000000004 5 0  0.7999999999999998 5 0  0.7000000000000002 5 0  0.5999999999999996 5 0  0.5 5 0  0.4000000000000004 5 0  0.2999999999999998 5 0  0.2000000000000002 5 0  0.09999999999999964 5 0  0 5 0  -0.09999999999999964 5 0  -0.2000000000000002 5 0  -0.2999999999999998 5 0  -0.4000000000000004 5 0  -0.5 5 0  -0.5999999999999996 5 0  -0.7000000000000002 5 0  -0.7999999999999998 5 0  -0.9000000000000004 5 0  -1 5 0  -1.1 5 0  -1.2 5 0  -1.3 5 0  -1.4 5 0  -1.5 5 0  -1.6 5 0  -1.7 5 0  -1.8 5 0  -1.9 5 0  -2 5 0  -2.1 5 0  -2.2 5 0  -2.3 5 0  -2.4 5 0  -2.5 5 0  -2.6 5 0  -2.7 5 0  -2.8 5 0  -2.9 5 0  -3 5 0  -3.1 5 0  -3.199999999999999 5 0  -3.300000000000001 5 0  -3.4 5 0  -3.5 5 0  -3.6 5 0  -3.699999999999999 5 0  -3.800000000000001 5 0  -3.9 5 0  -4 5 0  -4.1 5 0  -4.199999999999999 5 0  -4.300000000000001 5 0  -4.4 5 0  -4.5 5 0  -4.6 5 0  -4.699999999999999 5 0  -4.800000000000001 5 0  -4.9 5 0  -5 4.9 0  -5 4.8 0  -5 4.7 0  -5 4.6 0  -5 4.5 0  -5 4.4 0  -5 4.3 0  -5 4.2 0  -5 4.1 0  -5 4 0  -5 3.9 0  -5 3.8 0  -5 3.7 0  -5 3.6 0  -5 3.5 0  -5 3.4 0  -5 3.3 0  -5 3.2 0  -5 3.1 0  -5 3 0  -5 2.9 0  -5 2.8 0  -5 2.7 0  -5 2.6 0  -5 2.5 0  -5 2.4 0  -5 2.3 0  -5 2.2 0  -5 2.1 0  -5 2 0  -5 1.9 0  -5 1.8 0  -5 1.7 0  -5 1.6 0  -5 1.5 0  -5 1.4 0  -5 1.3 0  -5 1.2 0  -5 1.1 0  -5 1 0  -5 0.9000000000000004 0  -5 0.7999999999999998 0  -5 0.7000000000000002 0  -5 0.5999999999999996 0  -5 0.5 0  -5 0.4000000000000004 0  -5 0.2999999999999998 0  -5 0.2000000000000002 0  -5 0.09999999999999964 0  -5 0 0  -5 -0.09999999999999964 0  -5 -0.2000000000000002 0  -5 -0.2999999999999998 0  -5 -0.4000000000000004 0  -5 -0.5 0  -5 -0.5999999999999996 0  -5 -0.7000000000000002 0  -5 -0.7999999999999998 0  -5 -0.9000000000000004 0  -5 -1 0  -5 -1.1 0  -5 -1.2 0  -5 -1.3 0  -5 -1.4 0  -5 -1.5 0  -5 -1.6 0  -5 -1.7 0  -5 -1.8 0  -5 -1.9 0  -5 -2 0  -5 -2.1 0  -5 -2.2 0  -5 -2.3 0  -5 -2.4 0  -5 -2.5 0  -5 -2.6 0  -5 -2.7 0  -5 -2.8 0  -5 -2.9 0  -5 -3 0  -5 -3.1 0  -5 -3.199999999999999 0  -5 -3.300000000000001 0  -5 -3.4 0  -5 -3.5 0  -5 -3.6 0  -5 -3.699999999999999 0  -5 -3.800000000000001 0  -5 -3.9 0  -5 -4 0  -5 -4.1 0  -5 -4.199999999999999 0  -5 -4.300000000000001 0  -5 -4.4 0  -5 -4.5 0  -5 -4.6 0  -5 -4.699999999999999 0  -5 -4.800000000000001 0  -5 -4.9 0  1.254814941821269 0.09386636016639542 0  1.232768610694988 0.191651456482033 0  1.199180218940992 0.2882509935505097 0  1.156392448002781 0.3766333608241909 0  1.097994529806409 0.4676364175306422 0  1.031750369848716 0.551459128113524 0  0.9531254117172009 0.6317520971871925 0  0.8659258937919033 0.7066538862332351 0  0.7740845365679528 0.7720185830245239 0  0.6718690427446324 0.8294329258529315 0  0.5590511922785615 0.8816729113404702 0  0.4459520997362036 0.92649177664732 0  0.334392803813357 0.9583404126717465 0  0.2087695350492675 0.9803186673794813 0  0.08822773965989496 0.9991469771197677 0  -0.02664439080431361 1.002572982614818 0  -0.1443069461915678 0.9887819674658068 0  -0.2731107088480265 0.9693153277671657 0  -0.3928679853678338 0.9451961111444602 0  -0.5029325221730346 0.9096503489458948 0  -0.6125950740548212 0.8631841393531846 0  -0.7146665908783109 0.8082668867824815 0  -0.8092912102329435 0.7435321814996249 0  -0.9007596129858844 0.6697597884760761 0  -0.9870346737938369 0.5896405854977186 0  -1.061834728831108 0.5082564782183731 0  -1.123826769548471 0.4234680012202829 0  -1.178202001090052 0.330399001107016 0  -1.215881846232073 0.2426018529179547 0  -1.240312752266908 0.148643388900744 0  -1.250874878788112 0.05219287741276423 0  -1.250834572822139 -0.04992269246253789 0  -1.240270713122926 -0.1456488074066105 0  -1.215493032558331 -0.2371653223300396 0  -1.173558943062086 -0.3321511457661543 0  -1.12414537203645 -0.4243024043057239 0  -1.0637493438721 -0.5081533525583303 0  -0.9895487348981367 -0.5886529785632778 0  -0.9039000738822686 -0.6677129447841765 0  -0.813150877690308 -0.7393162013740779 0  -0.717514505011222 -0.8001797495827856 0  -0.6127629589193112 -0.8533993958216974 0  -0.4977292002829434 -0.9030593216018741 0  -0.3850598317534903 -0.942986505663753 0  -0.2697744214237403 -0.9691266402235931 0  -0.1426722879291576 -0.9887574207843486 0  -0.027676986897558 -1.001809214825957 0  0.08706722279368442 -0.9944165632988056 0  0.2148971651611055 -0.9765268433839119 0  0.3371903980428186 -0.9566345582561881 0  0.4501335996192047 -0.9251703610430403 0  0.56163786380631 -0.8809127069583904 0  0.673024154714333 -0.8293666663857687 0  0.7739724496557102 -0.7731619193998643 0  0.8656187648440425 -0.7079732621354903 0  0.9515598605186835 -0.632163492983378 0  1.029226420622681 -0.5502463898315155 0  1.099237626684377 -0.46629007207221 0  1.157194382314001 -0.3770503941299223 0  1.200946792962042 -0.286318349148617 0  1.233486871955261 -0.1908962435609527 0  1.25522058326231 -0.09379388252864278 0  -2.448533924529203 4.918064919662339 0  -2.448405472794243 -4.910438647794012 0  4.910361255882763 2.447854317665125 0  4.918493169012298 -2.449319671398634 0  2.446130390238611 -4.89566062318263 0  2.440564946249739 4.899425372273494 0  -4.910388558996985 -2.447881127561627 0  -4.91038583628699 2.447885202083215 0  -1.748486900456666 4.910930750771671 0  -1.744274558056146 -4.914375013377167 0  4.920522212554806 1.744032966211841 0  4.909040191101483 -1.747788887965567 0  -4.909335075803074 -1.747523554853036 0  -4.9101584180718 1.747269045582976 0  1.745757632673676 4.904780802186941 0  1.747167102740882 -4.892914178189767 0  -1.148803639702155 4.908696035661747 0  -1.129663620450221 -4.916621881672627 0  -4.909023710714613 -1.147859537230171 0  -4.908841690784135 1.147660185996964 0  1.143800549815382 -4.912800868291732 0  1.148813432075485 4.908682317239993 0  4.909162865071361 1.146134449731393 0  4.920014871772015 -1.151924622853573 0  -0.5466489411823872 -4.909875159625022 0  -0.5464338227199309 4.918574189233264 0  -4.907732952309898 -0.5486705013924366 0  -4.907756918477713 0.5472286866881836 0  4.907049572174265 -0.5489885171977925 0  4.918732229438242 0.5457505955058125 0  0.5424294905817469 -4.896730052380635 0  0.5511616097754926 4.915391298638212 0  -4.911836740817397 -3.048246343062839 0  4.918411639380502 3.046265570158539 0  4.911344070235666 -3.048221449860746 0  -4.912684947852663 3.045338421689724 0  3.055263212950718 -4.917333414592299 0  -3.048591136095718 -4.911265423356564 0  3.052159305042469 4.91334428553259 0  -3.048037154238635 4.912155806903726 0  -4.906832339704151 -0.04990388713698393 0  0.04511861889130307 -4.911824036495098 0  0.04956579122534304 4.918863701623686 0  4.913902549338152 -0.05128648210576889 0  3.545589667606517 -4.918992415993849 0  -3.548867578836485 4.911889
[...]
<PointData  Vectors="f_5714"> 
<DataArray  type="Float64"  Name="f_5714"  NumberOfComponents="3" format="ascii">2.0982123363469870e-42 -3.1464827503179590e-41 0.0000000000000000e+00  -4.0943787756099050e-41 2.2468470971067170e-41 0.0000000000000000e+00  -5.4117740546392494e-41 -4.8198356499424361e-41 0.0000000000000000e+00  -1.9136847881619023e-41 3.5831737012856119e-41 0.0000000000000000e+00  1.1342983231073607e+01 6.0015273430433147e-03 0.0000000000000000e+00  2.8394468597093055e-41 7.8754861400290924e-41 0.0000000000000000e+00  3.4202978985791887e-40 2.4879644849892511e-40 0.0000000000000000e+00  -8.8436275067282016e-40 -5.7326640080577650e-40 0.0000000000000000e+00  4.0763672906187029e-39 4.7643783396378053e-39 0.0000000000000000e+00  -1.5548603515687643e-38 -1.5859162467021525e-38 0.0000000000000000e+00  3.1941260265263312e-38 5.2812570340725622e-38 0.0000000000000000e+00  -1.2762533153308329e-37 -1.7895595711491282e-37 0.0000000000000000e+00  5.4883063134915215e-37 7.6523166050757239e-37 0.0000000000000000e+00  -3.1941439204236948e-36 -4.0736258943471723e-36 0.0000000000000000e+00  1.4635047383614758e-35 1.4864096869568591e-35 0.0000000000000000e+00  -3.8328069415260641e-35 -2.1305427168810317e-35 0.0000000000000000e+00  5.2787433851027051e-35 -4.6912569544780634e-36 0.0000000000000000e+00  6.9838942455113704e-34 5.5061592951287682e-34 0.0000000000000000e+00  -6.5953950478885784e-34 -2.0368677842971569e-34 0.0000000000000000e+00  -7.8386675053464015e-33 -8.8993672719128069e-33 0.0000000000000000e+00  2.3485243692430445e-32 2.9565793478052552e-32 0.0000000000000000e+00  -3.4355244510205585e-32 -4.7373808551252887e-32 0.0000000000000000e+00  -1.2411368558929230e-31 -1.7481009059056789e-31 0.0000000000000000e+00  6.6977545155083216e-31 9.4103059244621932e-31 0.0000000000000000e+00  -2.8032641733952554e-31 -3.5237084900913265e-31 0.0000000000000000e+00  -2.4443819962862412e-30 -4.3434276484525549e-30 0.0000000000000000e+00  1.0080693389439256e-30 1.7161360414406102e-30 0.0000000000000000e+00  6.5431782345107318e-30 1.9518740136890000e-29 0.0000000000000000e+00  -5.7195326176403040e-30 -2.1618751630346422e-29 0.0000000000000000e+00  -7.2587584300586459e-30 -2.6976181108274553e-29 0.0000000000000000e+00  3.1841921359608766e-29 1.2029959896674959e-28 0.0000000000000000e+00  3.0931018666837632e-30 6.8547237975999249e-30 0.0000000000000000e+00  -4.4310104388557013e-29 -2.4932766712501739e-28 0.0000000000000000e+00  1.8235140729110433e-29 1.4328394425377716e-28 0.0000000000000000e+00  6.1968321934855144e-29 6.2294680954879390e-28 0.0000000000000000e+00  -2.6572223381943582e-29 -3.6067606840509200e-28 0.0000000000000000e+00  1.9882325940469402e-29 -9.1109876672181889e-29 0.0000000000000000e+00  -3.2072301637600194e-29 -1.8704855784668652e-28 0.0000000000000000e+00  -1.6058002047951254e-28 -2.3828301436299589e-28 0.0000000000000000e+00  -1.2856132819721596e-28 -7.1227874572582942e-29 0.0000000000000000e+00  1.9981430674103411e-28 5.2419415058293652e-28 0.0000000000000000e+00  4.5585715981958387e-28 9.6059938138708273e-28 0.0000000000000000e+00  3.4858441152233289e-28 6.4305012705569440e-28 0.0000000000000000e+00  1.7639850078010599e-28 2.7469292195645993e-28 0.0000000000000000e+00  1.5969372848241041e-28 1.9136862020262263e-28 0.0000000000000000e+00  -5.1790891310387096e-28 1.0812906155017422e-28 0.0000000000000000e+00  -2.3052344531356216e-28 8.1410312006264868e-28 0.0000000000000000e+00  1.9663593267487639e-28 -5.1763053403797216e-28 0.0000000000000000e+00  1.2534849386472810e-28 3.2405535262929977e-27 0.0000000000000000e+00  -2.4450155409715891e-28 1.5316636544762211e-28 0.0000000000000000e+00  -6.6645031923941280e-28 -2.3990557036138400e-27 0.0000000000000000e+00  -6.4531188311721127e-28 -8.7152385555255996e-28 0.0000000000000000e+00  -3.8146239202022025e-28 -1.7123626013108122e-27 0.0000000000000000e+00  -1.4064662506167753e-28 -6.1021151441936505e-27 0.0000000000000000e+00  -8.5432898387498308e-29 -7.0106239704225203e-27 0.0000000000000000e+00  -1.0406424778345419e-28 -9.4480498210654551e-28 0.0000000000000000e+00  -1.5453775133778503e-28 -3.0313273337517759e-27 0.0000000000000000e+00  -4.0121780805681351e-29 -4.0520622609513581e-28 0.0000000000000000e+00  -4.1131440095560157e-29 -1.6707747136243102e-27 0.0000000000000000e+00  -4.1865803429064302e-29 1.6607754296473864e-27 0.0000000000000000e+00  1.4838719638214739e-28 -2.0675652884704693e-27 0.0000000000000000e+00  2.6434470765442435e-28 -1.9771488419843890e-27 0.0000000000000000e+00  -3.4922047209902504e-29 7.9782704680497334e-28 0.0000000000000000e+00  -3.1335534346201046e-28 3.8968679419754665e-27 0.0000000000000000e+00  -1.7489179668352605e-28 1.5612034762380823e-27 0.0000000000000000e+00  -1.5621401706399227e-28 7.4829921583484607e-28 0.0000000000000000e+00  -3.1492847819137006e-28 2.2114390604756238e-27 0.0000000000000000e+00  -1.7640904699231790e-28 1.1881491195379865e-27 0.0000000000000000e+00  1.8287348580311711e-28 -1.4332782185134288e-27 0.0000000000000000e+00  1.2779063801663893e-28 -6.5411119445619592e-28 0.0000000000000000e+00  2.1276948591863268e-29 -7.0416747116932935e-29 0.0000000000000000e+00  1.2858563191917953e-28 -4.2720674150890499e-28 0.0000000000000000e+00  7.6756821407722249e-29 -3.6295375443946841e-28 0.0000000000000000e+00  -6.8234335409784757e-29 3.2998466731235407e-28 0.0000000000000000e+00  -1.7702141408653431e-29 1.8482557626143834e-28 0.0000000000000000e+00  -2.0605002281280387e-29 8.6498851518804993e-29 0.0000000000000000e+00  6.0883503122790581e-30 -6.0160840562822972e-29 0.0000000000000000e+00  9.8676827449421876e-30 -2.0809413703124686e-29 0.0000000000000000e+00  1.1421848895601146e-29 -2.9129681685864240e-29 0.0000000000000000e+00  3.8856268239327147e-30 -1.1215683167198135e-29 0.0000000000000000e+00  -9.8313149375193182e-31 3.1915276778303983e-30 0.0000000000000000e+00  1.7509051617904906e-31 -9.2845374683515509e-31 0.0000000000000000e+00  -1.8473819741295034e-31 7.3223130818545182e-31 0.0000000000000000e+00  1.8005399477792454e-30 -3.5496430403295593e-30 0.0000000000000000e+00  3.0691969806693634e-31 -5.2810842987252892e-31 0.0000000000000000e+00  -2.7000580211537674e-31 4.8793869562472884e-31 0.0000000000000000e+00  1.2624007697907139e-31 -2.1439081734584502e-31 0.0000000000000000e+00  -9.3942247524992554e-33 2.0240444026703818e-32 0.0000000000000000e+00  1.3318900397001305e-33 -2.5832405676503126e-33 0.0000000000000000e+00  -7.5836686359002617e-34 9.9246532706259762e-34 0.0000000000000000e+00  -4.5155094930909730e-34 3.2182373725529568e-34 0.0000000000000000e+00  -2.2496916525793612e-34 2.3910551803277742e-34 0.0000000000000000e+00  1.3148317580449842e-34 -1.3019626592626720e-34 0.0000000000000000e+00  -3.0957999221441559e-35 3.4304100048318965e-35 0.0000000000000000e+00  1.3480266372965408e-35 -1.2111493484481643e-35 0.0000000000000000e+00  -1.0228557692723955e-36 8.8557680110855050e-37 0.0000000000000000e+00  -8.5262461591309686e-37 7.4256359196755144e-37 0.0000000000000000e+00  2.1778557278055253e-37 -2.0728579734323841e-37 0.0000000000000000e+00  -1.1397417325728039e-37 1.0221136819934517e-37 0.0000000000000000e+00  3.7620499153237192e-38 -3.2741477796418461e-38 0.0000000000000000e+00  -5.5323227267388311e-39 4.5760543387096654e-39 0.0000000000000000e+00  1.8246434374988015e-39 -1.7132548008179484e-39 0.0000000000000000e+00  -3.0057325413849339e-40 2.4609975840433655e-40 0.0000000000000000e+00  6.6056502133167967e-41 -3.0020477517654402e-41 0.0000000000000000e+00  1.7116225635727733e-41 -1.7450749005334756e-41 0.0000000000000000e+00  2.3527704041340871e-40 -1.9440913751616162e-40 0.0000000000000000e+00  -5.0305440573167846e-40 3.9952113078541315e-40 0.0000000000000000e+00  4.3892812362629545e-40 -6.4178763598958165e-40 0.0000000000000000e+00  2.6314188639791377e-39 -1.1180656126875723e-39 0.0000000000000000e+00  -1.1940769074918076e-38 7.8371711542052128e-39 0.0000000000000000e+00  2.1605216720373870e-38 -1.7729219737063745e-38 0.0000000000000000e+00  1.2030844476402857e-38 4.2529082246666911e-39 0.0000000000000000e+00  -1.8833839011070338e-37 1.0303261504997678e-37 0.0000000000000000e+00  5.2473738199486310e-37 -3.4366257493909506e-37 0.0000000000000000e+00  -3.1436213557800448e-37 3.2598480527717732e-37 0.0000000000000000e+00  -2.4386679943491110e-36 1.2088861793134588e-36 0.0000000000000000e+00  8.6004970677960380e-36 -5.0984993228936707e-36 0.0000000000000000e+00  -9.5368656393256620e-36 6.7036180929195066e-36 0.0000000000000000e+00  -2.8368577748389120e-35 1.3933477227885644e-35 0.0000000000000000e+00  1.2935703429243983e-34 -7.3297227732434580e-35 0.0000000000000000e+00  -1.4401423545499698e-34 8.8653801339173912e-35 0.0000000000000000e+00  -3.9045867373859318e-34 2.0641310272441902e-34 0.0000000000000000e+00  1.7050063376936433e-33 -9.4641419270716135e-34 0.0000000000000000e+00  -1.3382256536267562e-33 7.4234205935714997e-34 0.0000000000000000e+00  -6.5645845107481326e-33 3.6482804765334590e-33 0.0000000000000000e+00  1.9169257013868350e-32 -1.0357416622147042e-32 0.0000000000000000e+00  1.3120136773524064e-33 -1.8126743181025936e-33 0.0000000000000000e+00  -1.0158828561725049e-31 5.6293146736016111e-32 0.0000000000000000e+00  1.4607847171503757e-31 -7.1609062172937606e-32 0.0000000000000000e+00  3.0216159575913758e-31 -1.8210123320834753e-31 0.0000000000000000e+00  -1.0263743570691697e-30 5.2668093567561740e-31 0.0000000000000000e+00  -2.8821685192370771e-31 3.0109601971576308e-31 0.0000000000000000e+00  5.1128274661182209e-30 -2.6940430201187726e-30 0.0000000000000000e+00  -3.0458576195180922e-30 7.1464882596001282e-31 0.0000000000000000e+00  -2.1145844024631869e-29 1.1372617670897004e-29 0.0000000000000000e+00  2.6018117322142033e-29 -8.5157715069560505e-30 0.0000000000000000e+00  8.1450111215751634e-29 -4.4262746994325829e-29 0.0000000000000000e+00  -1.4094522475709662e-28 4.4779577381153330e-29 0.0000000000000000e+00  -3.3577107850299165e-28 1.7413029231878126e-28 0.0000000000000000e+00  6.2288069612499758e-28 -1.6956180601515974e-28 0.0000000000000000e+00  1.4767007494472361e-27 -6.8720942833384059e-28 0.0000000000000000e+00  -2.3971739954122756e-27 5.1980979269960362e-28 0.0000000000000000e+00  -7.1316744173041929e-27 2.6960259984719419e-27 0.0000000000000000e+00  6.2306872257169377e-27 -4.7469029327835479e-28 0.0000000000000000e+00  2.8475800628734885e-26 -8.3628195729976954e-27 0.0000000000000000e+00  8.4582015450167481e-27 -7.8065494210554899e-27 0.0000000000000000e+00  -8.1211791375480545e-26 1.0447626341599210e-26 0.0000000000000000e+00  -9.9809732672100311e-26 1.4951060305830295e-26 0.0000000000000000e+00  1.8743484937978057e-25 -4.5847562959690065e-26 0.0000000000000000e+00  8.4010560896157044e-25 -1.8016248338564566e-25 0.0000000000000000e+00  1.3821274093235497e-24 -2.8414704644685031e-25 0.0000000000000000e+00  1.4422449231134803e-24 -2.7978926671505554e-25 0.0000000000000000e+00  1.0790331433780446e-24 -1.6169709753632373e-25 0.0000000000000000e+00  8.3997043573826304e-25 -8.2865966144246655e-27 0.0000000000000000e+00  9.4287541535592867e-25 1.2219971918309489e-25 0.0000000000000000e+00  1.0697429082752527e-24 1.8013381963697967e-25 0.0000000000000000e+00  8.6432568555565771e-25 1.4663682349007630e-25 0.0000000000000000e+00  3.6813993707629051e-25 5.3576516068494842e-26 0.0000000000000000e+00  -2.2103651632012811e-26 -1.9224234720726116e-26 0.0000000000000000e+00  -1.2027620986407271e-25 -3.1005086927964484e-26 0.0000000000000000e+00  -3.2962675326618060e-26 -3.9337145765872741e-27 0.0000000000000000e+00  3.2837397568558457e-26 1.3329814959127476e-26 0.0000000000000000e+00  2.5360667393720453e-26 8.9809691769539631e-27 0.0000000000000000e+00  4.5622513769671251e-28 3.1710720889170771e-28 0.0000000000000000e+00  -5.1452763698151654e-27 -1.5908912409482108e-27 0.0000000000000000e+00  -6.8194409016856705e-28 -1.4202857032412175e-28 0.0000000000000000e+00  1.1358129947934546e-27 3.7695224853053439e-28 0.0000000000000000e+00  1.4176213075389369e-28 -3.3914217649543512e-30 0.0000000000000000e+00  -2.8178696674285217e-28 -1.1334273097103991e-28 0.0000000000000000e+00  -1.8034551148897988e-29 8.7755298398495669e-30 0.0000000000000000e+00  6.8768079374988990e-29 3.1319641872275937e-29 0.0000000000000000e+00  -2.8608895164554673e-30 -5.0420165165276523e-30 0.0000000000000000e+00  -1.5499981189834830e-29 -7.4232426830869554e-30 0.0000000000000000e+00  2.4403325433492708e-30 1.9062563971092531e-30 0.0000000000000000e+00  2.8980751171972739e-30 1.3863966937513395e-30 0.0000000000000000e+00  -1.0388337306163593e-30 -6.4989769088319127e-31 0.0000000000000000e+00  -4.1605910383833955e-31 -1.8757774964658540e-31 0.0000000000000000e+00  3.0514971431075989e-31 1.7618570464286315e-31 0.0000000000000000e+00  9.5552927797460946e-33 -2.7533543608412222e-33 0.0000000000000000e+00  -6.4758327325378174e-32 -3.5739245193978420e-32 0.0000000000000000e+00  1.5504900805888969e-32 9.8871725190940910e-33 0.0000000000000000e+00  8.8631410336491089e-33 4.6011080595777813e-33 0.0000000000000000e+00  -5.9740893167208477e-33 -3.4272720542851466e-33 0.0000000000000000e+00  2.5025770042430784e-34 1.9700182320671985e-34 0.0000000000000000e+00  9.9504758961890995e-34 5.5795908855540138e-34 0.0000000000000000e+00  -4.2425228114741905e-34 -2.4291957216858784e-34 0.0000000000000000e+00  -2.2228276522526563e-35 -1.3283496954470132e-35 0.0000000000000000e+00  8.6345567401356649e-35 4.9789405581324705e-35 0.0000000000000000e+00  -3.1478550371102358e-35 -1.7655704464301886e-35 0.0000000000000000e+00  -1.3981180763395252e-36 -1.2406350645800657e-36 0.0000000000000000e+00  5.7946775872295303e-36 3.4664200052542868e-36 0.0000000000000000e+00  -2.2956597036211234e-36 -1.2864111192880717e-36 0.0000000000000000e+00  8.5998372816117193e-38 -2.5385575208767579e-39 0.0000000000000000e+00  3.2233230188490192e-37 2.0796758224639188e-37 0.0000000000000000e+00  -1.6168978658365717e-37 -9.5037641224473215e-38 0.0000000000000000e+00  2.7313067811651941e-38 1.2300206285765162e-38 0.0000000000000000e+00  1.1235420639604596e-38 8.8027814574943100e-39 0.0000000000000000e+00  -9.6792163035208888e-39 -6.3125985181247883e-39 0.0000000000000000e+00  3.1075255869840119e-39 1.7750356476341464e-39 0.0000000000000000e+00  -1.4813792934377705e-40 5.2182221117707021e-41 0.0000000000000000e+00  -3.6558631275742914e-40 -2.9052942119263586e-40 0.0000000000000000e+00  1.9551439773576414e-40 1.3408876418202623e-40 0.0000000000000000e+00  -6.2560439037292221e-41 -3.6342901024602106e-41 0.0000000000000000e+00  1.1777316550060082e-40 9.8858364711443989e-41 0.0000000000000000e+00  7.2465287967270195e-41 2.2206758397911057e-41 0.0000000000000000e+00  -9.6220872740887662e-41 -4.3989789948928928e-41 0.0000000000000000e+00  2.3648997298725745e-39 1.4532696024692462e-39 0.0000000000000000e+00  2.5930657896086851e-39 5.8869861317545305e-39 0.0000000000000000e+00  -1.7102590000395677e-38 -2.6985315553442582e-38 0.0000000000000000e+00  -4.5235010690329623e-38 -2.0914186362240897e-38 0.0000000000000000e+00  3.6183305188614328e-37 2.0596389375811658e-37 0.0000000000000000e+00  -2.0324333856077809e-36 -1.8699597728461051e-36 0.0000000000000000e+00  7.7571101109999849e-36 8.0281850696525288e-36 0.0000000000000000e+00  7.6828564217977330e-36 4.9174005346065847e-36 0.0000000000000000e+00  -1.1920909599728727e-34 -1.0429184208817916e-34 0.0000000000000000e+00  4.6104427278202861e-34 4.7655716036010286e-34 0.0000000000000000e+00  -1.7415770671925187e-33 -1.8366862153501599e-33 0.0000000000000000e+00  2.3889730093432317e-33 2.3312155458617731e-33 0.0000000000000000e+00  4.8351047576161700e-33 6.4955902542170757e-33 0.0000000000000000e+00  -3.4753891077181103e-32 -4.1823104109458289e-32 0.0000000000000000e+00  -6.3749307566497627e-32 -7.9005051921263816e-32 0.0000000000000000e+00  9.0059915449938507e-32 1.0475844005244919e-31 0.0000000000000000e+00  3.7219337479672151e-33 1.0429258872098952e-31 0.0000000000000000e+00  -2.5781218601750947e-31 -5.2162905082966518e-31 0.0000000000000000e+00  7.7861324344751404e-31 1.4836793770575942e-30 0.0000000000000000e+00  9.8203028556986906e-31 9.2397967570479993e-31 0.0000000000000000e+00  -7.1591968711466056e-30 -1.3135737155652397e-29 0.0000000000000000e+00  2.3973968166198124e-30 2.8866612715466500e-30 0.0000000000000000e+00  -5.4942270324671873e-30 -8.3297273733352320e-29 0.0000000000000000e+00  1.6374149753082886e-29 1.0481465932515563e-28 0.0000000000000000e+00  9.1722687126249841e-29 5.1260485770988853e-28 0.0000000000000000e+00  3.0109481073279007e-29 1.5730300124259163e-28 0.0000000000000000e+00  -6.3094122830149339e-29 -2.9749094040848358e-28 0.0000000000000000e+00  -1.8322449775546816e-28 -9.6830380352583694e-28 0.0000000000000000e+00  1.4751033224927823e-28 7.4971098082623687e-28 0.0000000000000000e+00  2.3374373370254684e-28 1.2497356145005849e-27 0.0000000000000000e+00  2.1763764880379368e-28 1.0926519989462251e-27 0.0000000000000000e+00  1.2595600654245038e-28 6.5031669880946186e-28 0.0000000000000000e+00  -3.9167167055021266e-28 -1.9853533765333094e-27 0.0000000000000000e+00  -7.9873963694141528e-29 -4.0576713760177677e-28 0.0000000000000000e+00  -3.7072691465193089e-29 -8.0013332832772725e-29 0.0000000000000000e+00  -2.4201085024195493e-28 -1.2009491517737226e-27 0.0000000000000000e+00  -2.2060664544178287e-28 -1.1402163452572991e-27 0.0000000000000000e+00  -3.0052265224218418e-28 -2.5901841840940162e-27 0.0000000000000000e+00  -1.3365582632711499e-28 -1.5746537697975151e-27 0.0000000000000000e+00  1.2882339963376056e-28 4.9123618430214534e-28 0.0000000000000000e+00  -6.7513587658552329e-30 -8.9962680731086739e-28 0.0000000000000000e+00  -5.8133096098207356e-29 -2.3072164001665782e-27 0.0000000000000000e+00  -8.3107119318811348e-29 5.6337504888723395e-29 0.0000000000000000e+00  -6.4557136852116595e-29 -1.0143499933692896e-28 0.0000000000000000e+00  8.0096558808076334e-29 -1.9270929874816984e-27 0.0000000000000000e+00  1.9042433247857649e-29 -1.0259697580725159e-27 0.0000000000000000e+00  2.2698945365474908e-28 -2.0604331555272039e-27 0.0000000000000000e+00  -3.5049475184290159e-28 1.1525205719973998e-27 0.0000000000000000e+00  -3.2283002146095445e-28 1.1081940057094872e-27 0.0000000000000000e+00  3.2669165668952341e-28 -1.9053948171278696e-27 0.0000000000000000e+00  1.0105500816230876e-28 -6.5222198173499332e-28 0.0000000000000000e+00  3.5273144817693076e-28 -1.9084331430758732e-27 0.0000000000000000e+00  -8.3290394191768566e-29 5.3513615432116621e-28 0.0000000000000000e+00  -4.1860526875245833e-29 8.2742874624628663e-29 0.0000000000000000e+00  2.3525235858145007e-28 -9.6108016047616440e-28 0.0000000000000000e+00  8.9607976244987079e-29 -4.7845741363129283e-28 0.0000000000000000e+00  3.5765534121332746e-28 -1.9301253517879448e-27 0.0000000000000000e+00  4.2189800843341500e-28 -2.4793632387351152e-27 0.0000000000000000e+00  4.8580370990574453e-28 -3.1305618376863528e-27 0.0000000000000000e+00  1.2415354347935110e-28 -8.3091418980443264e-28 0.0000000000000000e+00  -1.5338708737570330e-28 9.7356565748704231e-28 0.0000000000000000e+00  -2.0948511727102602e-28 1.6194368491462222e-27 0.0000000000000000e+00  -2.1966252914069244e-28 1.7093888393861640e-27 0.0000000000000000e+00  -5.0601507969064547e-29 3.4503481220183378e-28 0.0000000000000000e+00  4.8097447012493383e-29 -4.1399748483420260e-28 0.0000000000000000e+00  3.1431587932283709e-29 -1.9811972692382273e-28 0.0000000000000000e+00  1.4009476462365536e-28 -8.4053610011860896e-28 0.0000000000000000e+00  4.2605032105534902e-29 -2.6135358718618403e-28 0.0000000000000000e+00  -5.8319339192630000e-29 3.4012146443019795e-28 0.0000000000000000e+00  1.8124104194211869e-29 -1.1172868158545626e-28 0.0000000000000000e+00  5.7948775895056090e-31 -9.5754460773567828e-31 0.0000000000000000e+00  7.1824515789946447e-31 6.4315432218049889e-30 0.0000000000000000e+00  2.5135722802899038e-30 -7.5852213404070974e-30 0.0000000000000000e+00  3.0110036956233443e-30 -6.3358150046709852e-30 0.0000000000000000e+00  8.9502