<?xml version="1.0"?>
<VTKFile type="UnstructuredGrid"  version="0.1"  >
<UnstructuredGrid>
<Piece  NumberOfPoints="11902" NumberOfCells="23402">
<Points>
<DataArray  type="Float64"  NumberOfComponents="3"  format="ascii">-5 -5 0  5 -5 0  5 5 0  -5 5 0  1.114557164237945 0.0007675340488023428 0  -4.9 -5 0  -4.8 -5 0  -4.7 -5 0  -4.6 -5 0  -4.5 -5 0  -4.4 -5 0  -4.3 -5 0  -4.2 -5 0  -4.1 -5 0  -4 -5 0  -3.9 -5 0  -3.8 -5 0  -3.7 -5 0  -3.6 -5 0  -3.5 -5 0  -3.4 -5 0  -3.3 -5 0  -3.2 -5 0  -3.1 -5 0  -3 -5 0  -2.9 -5 0  -2.8 -5 0  -2.7 -5 0  -2.6 -5 0  -2.5 -5 0  -2.4 -5 0  -2.3 -5 0  -2.2 -5 0  -2.1 -5 0  -2 -5 0  -1.9 -5 0  -1.8 -5 0  -1.7 -5 0  -1.6 -5 0  -1.5 -5 0  -1.4 -5 0  -1.3 -5 0  -1.2 -5 0  -1.1 -5 0  -1 -5 0  -0.9000000000000004 -5 0  -0.7999999999999998 -5 0  -0.7000000000000002 -5 0  -0.5999999999999996 -5 0  -0.5 -5 0  -0.4000000000000004 -5 0  -0.2999999999999998 -5 0  -0.2000000000000002 -5 0  -0.09999999999999964 -5 0  0 -5 0  0.09999999999999964 -5 0  0.2000000000000002 -5 0  0.2999999999999998 -5 0  0.4000000000000004 -5 0  0.5 -5 0  0.5999999999999996 -5 0  0.7000000000000002 -5 0  0.7999999999999998 -5 0  0.9000000000000004 -5 0  1 -5 0  1.1 -5 0  1.2 -5 0  1.3 -5 0  1.4 -5 0  1.5 -5 0  1.6 -5 0  1.7 -5 0  1.8 -5 0  1.9 -5 0  2 -5 0  2.1 -5 0  2.2 -5 0  2.3 -5 0  2.4 -5 0  2.5 -5 0  2.6 -5 0  2.7 -5 0  2.8 -5 0  2.9 -5 0  3 -5 0  3.1 -5 0  3.199999999999999 -5 0  3.300000000000001 -5 0  3.4 -5 0  3.5 -5 0  3.6 -5 0  3.699999999999999 -5 0  3.800000000000001 -5 0  3.9 -5 0  4 -5 0  4.1 -5 0  4.199999999999999 -5 0  4.300000000000001 -5 0  4.4 -5 0  4.5 -5 0  4.6 -5 0  4.699999999999999 -5 0  4.800000000000001 -5 0  4.9 -5 0  5 -4.9 0  5 -4.8 0  5 -4.7 0  5 -4.6 0  5 -4.5 0  5 -4.4 0  5 -4.3 0  5 -4.2 0  5 -4.1 0  5 -4 0  5 -3.9 0  5 -3.8 0  5 -3.7 0  5 -3.6 0  5 -3.5 0  5 -3.4 0  5 -3.3 0  5 -3.2 0  5 -3.1 0  5 -3 0  5 -2.9 0  5 -2.8 0  5 -2.7 0  5 -2.6 0  5 -2.5 0  5 -2.4 0  5 -2.3 0  5 -2.2 0  5 -2.1 0  5 -2 0  5 -1.9 0  5 -1.8 0  5 -1.7 0  5 -1.6 0  5 -1.5 0  5 -1.4 0  5 -1.3 0  5 -1.2 0  5 -1.1 0  5 -1 0  5 -0.9000000000000004 0  5 -0.7999999999999998 0  5 -0.7000000000000002 0  5 -0.5999999999999996 0  5 -0.5 0  5 -0.4000000000000004 0  5 -0.2999999999999998 0  5 -0.2000000000000002 0  5 -0.09999999999999964 0  5 0 0  5 0.09999999999999964 0  5 0.2000000000000002 0  5 0.2999999999999998 0  5 0.4000000000000004 0  5 0.5 0  5 0.5999999999999996 0  5 0.7000000000000002 0  5 0.7999999999999998 0  5 0.9000000000000004 0  5 1 0  5 1.1 0  5 1.2 0  5 1.3 0  5 1.4 0  5 1.5 0  5 1.6 0  5 1.7 0  5 1.8 0  5 1.9 0  5 2 0  5 2.1 0  5 2.2 0  5 2.3 0  5 2.4 0  5 2.5 0  5 2.6 0  5 2.7 0  5 2.8 0  5 2.9 0  5 3 0  5 3.1 0  5 3.199999999999999 0  5 3.300000000000001 0  5 3.4 0  5 3.5 0  5 3.6 0  5 3.699999999999999 0  5 3.800000000000001 0  5 3.9 0  5 4 0  5 4.1 0  5 4.199999999999999 0  5 4.300000000000001 0  5 4.4 0  5 4.5 0  5 4.6 0  5 4.699999999999999 0  5 4.800000000000001 0  5 4.9 0  4.9 5 0  4.8 5 0  4.7 5 0  4.6 5 0  4.5 5 0  4.4 5 0  4.3 5 0  4.2 5 0  4.1 5 0  4 5 0  3.9 5 0  3.8 5 0  3.7 5 0  3.6 5 0  3.5 5 0  3.4 5 0  3.3 5 0  3.2 5 0  3.1 5 0  3 5 0  2.9 5 0  2.8 5 0  2.7 5 0  2.6 5 0  2.5 5 0  2.4 5 0  2.3 5 0  2.2 5 0  2.1 5 0  2 5 0  1.9 5 0  1.8 5 0  1.7 5 0  1.6 5 0  1.5 5 0  1.4 5 0  1.3 5 0  1.2 5 0  1.1 5 0  1 5 0  0.9000000000000004 5 0  0.7999999999999998 5 0  0.7000000000000002 5 0  0.5999999999999996 5 0  0.5 5 0  0.4000000000000004 5 0  0.2999999999999998 5 0  0.2000000000000002 5 0  0.09999999999999964 5 0  0 5 0  -0.09999999999999964 5 0  -0.2000000000000002 5 0  -0.2999999999999998 5 0  -0.4000000000000004 5 0  -0.5 5 0  -0.5999999999999996 5 0  -0.7000000000000002 5 0  -0.7999999999999998 5 0  -0.9000000000000004 5 0  -1 5 0  -1.1 5 0  -1.2 5 0  -1.3 5 0  -1.4 5 0  -1.5 5 0  -1.6 5 0  -1.7 5 0  -1.8 5 0  -1.9 5 0  -2 5 0  -2.1 5 0  -2.2 5 0  -2.3 5 0  -2.4 5 0  -2.5 5 0  -2.6 5 0  -2.7 5 0  -2.8 5 0  -2.9 5 0  -3 5 0  -3.1 5 0  -3.199999999999999 5 0  -3.300000000000001 5 0  -3.4 5 0  -3.5 5 0  -3.6 5 0  -3.699999999999999 5 0  -3.800000000000001 5 0  -3.9 5 0  -4 5 0  -4.1 5 0  -4.199999999999999 5 0  -4.300000000000001 5 0  -4.4 5 0  -4.5 5 0  -4.6 5 0  -4.699999999999999 5 0  -4.800000000000001 5 0  -4.9 5 0  -5 4.9 0  -5 4.8 0  -5 4.7 0  -5 4.6 0  -5 4.5 0  -5 4.4 0  -5 4.3 0  -5 4.2 0  -5 4.1 0  -5 4 0  -5 3.9 0  -5 3.8 0  -5 3.7 0  -5 3.6 0  -5 3.5 0  -5 3.4 0  -5 3.3 0  -5 3.2 0  -5 3.1 0  -5 3 0  -5 2.9 0  -5 2.8 0  -5 2.7 0  -5 2.6 0  -5 2.5 0  -5 2.4 0  -5 2.3 0  -5 2.2 0  -5 2.1 0  -5 2 0  -5 1.9 0  -5 1.8 0  -5 1.7 0  -5 1.6 0  -5 1.5 0  -5 1.4 0  -5 1.3 0  -5 1.2 0  -5 1.1 0  -5 1 0  -5 0.9000000000000004 0  -5 0.7999999999999998 0  -5 0.7000000000000002 0  -5 0.5999999999999996 0  -5 0.5 0  -5 0.4000000000000004 0  -5 0.2999999999999998 0  -5 0.2000000000000002 0  -5 0.09999999999999964 0  -5 0 0  -5 -0.09999999999999964 0  -5 -0.2000000000000002 0  -5 -0.2999999999999998 0  -5 -0.4000000000000004 0  -5 -0.5 0  -5 -0.5999999999999996 0  -5 -0.7000000000000002 0  -5 -0.7999999999999998 0  -5 -0.9000000000000004 0  -5 -1 0  -5 -1.1 0  -5 -1.2 0  -5 -1.3 0  -5 -1.4 0  -5 -1.5 0  -5 -1.6 0  -5 -1.7 0  -5 -1.8 0  -5 -1.9 0  -5 -2 0  -5 -2.1 0  -5 -2.2 0  -5 -2.3 0  -5 -2.4 0  -5 -2.5 0  -5 -2.6 0  -5 -2.7 0  -5 -2.8 0  -5 -2.9 0  -5 -3 0  -5 -3.1 0  -5 -3.199999999999999 0  -5 -3.300000000000001 0  -5 -3.4 0  -5 -3.5 0  -5 -3.6 0  -5 -3.699999999999999 0  -5 -3.800000000000001 0  -5 -3.9 0  -5 -4 0  -5 -4.1 0  -5 -4.199999999999999 0  -5 -4.300000000000001 0  -5 -4.4 0  -5 -4.5 0  -5 -4.6 0  -5 -4.699999999999999 0  -5 -4.800000000000001 0  -5 -4.9 0  1.109155497125813 0.1003879641374345 0  1.092327972672979 0.1996636558070801 0  1.063950274860235 0.2973914441738205 0  1.026369368153621 0.3907999770534761 0  0.978178296355087 0.4817541599499771 0  0.9207693972394417 0.5674553182485286 0  0.8535628697360174 0.6472787783493779 0  0.7772836825084756 0.7203884887815691 0  0.6941065287556474 0.7867033247327561 0  0.6039906814041937 0.8455452037621126 0  0.5073738515805046 0.8955898164452286 0  0.405742340730562 0.9368954191249027 0  0.3012815748274792 0.9693334974505977 0  0.1929295247645462 0.9914411064714953 0  0.08367060606192538 1.004295380621651 0  -0.0268340823609812 1.006878356013775 0  -0.1370928432445349 0.9988631180774531 0  -0.2462800513090704 0.9817855361042033 0  -0.3530300756314366 0.954897151764814 0  -0.4560162225853269 0.9181453540025328 0  -0.5542570915925715 0.8727464895577282 0  -0.6473103306504725 0.8181931607042037 0  -0.7339309659607897 0.7557513941374757 0  -0.8134327365952693 0.685933739448698 0  -0.8851632680137878 0.6084048049848936 0  -0.9476567221861724 0.525268527550921 0  -1.001384556587343 0.4374077105663757 0  -1.044593044647266 0.3446303048776989 0  -1.077164489498449 0.2489691059901317 0  -1.099297779331483 0.1508683506164183 0  -1.110550783370087 0.05080159624191845 0  -1.110577435481206 -0.04983957487897702 0  -1.099347947191981 -0.1497489274683957 0  -1.078335286345713 -0.2478287326880862 0  -1.04452896110942 -0.3441257794666072 0  -1.00163938437712 -0.4363449330767142 0  -0.9481708587489673 -0.5244061665253626 0  -0.8858150420734482 -0.6072630853029388 0  -0.8140644051445877 -0.6841403449882537 0  -0.734125968167043 -0.7536870651063228 0  -0.6469538845242075 -0.8155215953700522 0  -0.5545893833875062 -0.8703255954545149 0  -0.4548256677812925 -0.9159034554110422 0  -0.3517383332465643 -0.9531709572384461 0  -0.2448060832517439 -0.9804613584290783 0  -0.1360261372331424 -0.997936584124373 0  -0.02613726056345124 -1.00643582692454 0  0.08403406182118971 -1.003365258143142 0  0.1941113912904023 -0.9902374414774078 0  0.301848917618478 -0.9681125868197997 0  0.4075508127834285 -0.9357937468294953 0  0.5080839638584466 -0.8946709856799056 0  0.604417257064303 -0.8447856271793625 0  0.6943471376874524 -0.7870982563856492 0  0.7774679631298396 -0.7207217199190477 0  0.8532437135501545 -0.6468313287285988 0  0.9200732409679576 -0.5667634957521659 0  0.9783407180315582 -0.4813206049247407 0  1.027366731024854 -0.3908839625713573 0  1.064877897625367 -0.2968172245993074 0  1.092409675040365 -0.1991746678846053 0  1.109186324935272 -0.1001324617987751 0  -2.449201186040082 4.919294890624695 0  -2.449132176583376 -4.911780052281793 0  4.911734500990737 2.44881842057164 0  4.919739368527966 -2.450196199649385 0  2.446975827544533 -4.897236422887754 0  2.441382948595706 4.900949818375917 0  -4.911750705777147 -2.448834675844385 0  -4.911751227308209 2.448838405116935 0  -1.749176738061275 4.912702987552114 0  -1.744934654279434 -4.916076323640226 0  4.922257265382485 1.744905580173529 0  4.911021192118813 -1.748788976147098 0  -4.911294449817389 -1.748508976668099 0  -4.912103611585009 1.748243865121301 0  1.746490484556247 4.906685430439227 0  1.747987956511999 -4.895052235250435 0  -1.149352732056435 4.91084302243313 0  -1.130157442521012 -4.918584691781747 0  -4.911476845897257 -1.148670461986713 0  -4.911302771381616 1.148469779414727 0  1.144313994877687 -4.914855444224964 0  1.149356485382611 4.91083578544606 0  4.911636040986305 1.146951732174798 0  4.922187532057412 -1.152647326303258 0  -0.5469351361597334 -4.912207615457499 0  -0.5466919752607633 4.920687704735878 0  -4.91058325399794 -0.5491213821683594 0  -4.910608703322839 0.5476744663011209 0  4.909947206188762 -0.5494476993251181 0  4.921267110838988 0.5461486073612453 0  0.5427428318381711 -4.899409539506844 0  0.5514250145780794 4.917589406005742 0  -4.912755558180497 -3.049034326630155 0  4.919269133106885 3.047002961169313 0  4.912273183922041 -3.049022135974934 0  -4.913599282973894 3.046119973960265 0  3.055858305055093 -4.918234358730961 0  -3.049230877660765 -4.912228543115932 0  3.052785508685863 4.914291197302207 0  -3.048672928127675 4.913111435259663 0  -4.909831303281371 -0.04994895773818998 0  0.04513621702683499 -4.914174516202138 0  0.04958589381561064 4.921032238131227 0  4.916699158175238 -0.05132843208979508 0  3.546061109975605 -4.919622902584666 0  -3.5493802280
[...]
<PointData  Vectors="f_1138"> 
<DataArray  type="Float64"  Name="f_1138"  NumberOfComponents="3" format="ascii">-1.6058020722964401e-40 -1.6525320001683602e-40 0.0000000000000000e+00  2.0386900422868831e-40 -2.0464539126879341e-40 0.0000000000000000e+00  -2.4526535075389679e-40 -2.4782078460802441e-40 0.0000000000000000e+00  -3.0735284042104621e-40 3.2170199661877581e-40 0.0000000000000000e+00  1.3925986899601270e+01 -5.6974304524640051e-01 0.0000000000000000e+00  3.5881147998694731e-40 3.6784186709759728e-40 0.0000000000000000e+00  8.1283497450361128e-40 9.0401302208327875e-40 0.0000000000000000e+00  -1.8031377323721197e-39 -2.1216519141830144e-39 0.0000000000000000e+00  1.8587293725998872e-38 2.0808036685223891e-38 0.0000000000000000e+00  -5.9834459592579831e-38 -6.5091315393633782e-38 0.0000000000000000e+00  2.3057326048595683e-37 2.4781887775937637e-37 0.0000000000000000e+00  -8.3747812012633574e-37 -9.1780126433089581e-37 0.0000000000000000e+00  4.9357552613966457e-36 5.9580334982027033e-36 0.0000000000000000e+00  -3.0116252974061589e-35 -3.8492911361058618e-35 0.0000000000000000e+00  1.2132251708577589e-34 1.5780379135349323e-34 0.0000000000000000e+00  -2.5676130399730502e-34 -3.4807500199818188e-34 0.0000000000000000e+00  5.0113947892486810e-34 7.0699922607986242e-34 0.0000000000000000e+00  1.7968202410665035e-33 2.5896532247090526e-33 0.0000000000000000e+00  -8.1959997825635222e-33 -1.1893936511496279e-32 0.0000000000000000e+00  2.4010639467822974e-32 3.5531431724481207e-32 0.0000000000000000e+00  -1.3461860047893553e-31 -2.0490876256817312e-31 0.0000000000000000e+00  3.5331808875204279e-31 5.4180505050240799e-31 0.0000000000000000e+00  1.8789021020680639e-31 3.4292272102360505e-31 0.0000000000000000e+00  -1.6042204859186672e-30 -2.7990333108054627e-30 0.0000000000000000e+00  -8.6018176845598145e-31 -1.3559586696773044e-30 0.0000000000000000e+00  -2.2856132008061203e-30 -3.6566180938100703e-30 0.0000000000000000e+00  5.4604473627721685e-30 9.5985301117374060e-30 0.0000000000000000e+00  -1.3677387483519914e-29 -2.2341799200725861e-29 0.0000000000000000e+00  4.5522884074355059e-29 8.0626762919587216e-29 0.0000000000000000e+00  2.7214284802301883e-29 5.1561429886234280e-29 0.0000000000000000e+00  -2.2525339337990414e-28 -4.3928653661183185e-28 0.0000000000000000e+00  -7.4698838373943015e-29 -1.5527648735821811e-28 0.0000000000000000e+00  -1.2498925742484013e-28 -2.5934887676078799e-28 0.0000000000000000e+00  2.1924776468102607e-28 4.6156440108295296e-28 0.0000000000000000e+00  6.6299065492167316e-28 1.4933602002442923e-27 0.0000000000000000e+00  -7.6793096822406018e-29 -1.1997209473806719e-28 0.0000000000000000e+00  1.3569313148980752e-28 4.0087460840592362e-28 0.0000000000000000e+00  -1.1294585458094867e-28 -2.6814476045358429e-28 0.0000000000000000e+00  -4.8786717511444912e-28 -1.4276173697836820e-27 0.0000000000000000e+00  -4.4099721848878759e-28 -1.4344430717046624e-27 0.0000000000000000e+00  -3.2420846609793669e-29 -1.8371537991836865e-28 0.0000000000000000e+00  4.7753536969780460e-28 1.7211584976777170e-27 0.0000000000000000e+00  2.5660322621022175e-28 1.0510340888353068e-27 0.0000000000000000e+00  -5.6533482757801284e-29 -1.9563636460799140e-28 0.0000000000000000e+00  8.2939571932395884e-29 4.2907184729948631e-28 0.0000000000000000e+00  3.1516528504757270e-28 1.1322406558784344e-27 0.0000000000000000e+00  4.1605852930166436e-28 1.8995047684154135e-27 0.0000000000000000e+00  -2.1786597151737486e-28 -1.0764033890332489e-27 0.0000000000000000e+00  8.6541601399958322e-28 6.1258212932294910e-27 0.0000000000000000e+00  -5.8229076296339534e-30 -4.4536023371458326e-29 0.0000000000000000e+00  -4.5089401218890180e-28 -5.3291310137428537e-27 0.0000000000000000e+00  -1.0579026459140308e-28 -3.1460748669026702e-27 0.0000000000000000e+00  -1.7889137728258685e-28 -4.4640802947316788e-27 0.0000000000000000e+00  -3.7941438395283242e-28 -1.1045727712532383e-26 0.0000000000000000e+00  -1.9582212218387438e-28 -1.2658972422418985e-26 0.0000000000000000e+00  1.5255988606296917e-29 -2.2028905754739161e-27 0.0000000000000000e+00  1.7472117398098933e-28 -6.9572237039094991e-27 0.0000000000000000e+00  2.1102848064409374e-28 -2.5601496719035718e-27 0.0000000000000000e+00  4.3641564761422193e-28 -4.5292860610456930e-27 0.0000000000000000e+00  -2.4641994895066541e-28 1.9662235385818936e-27 0.0000000000000000e+00  7.6291756396933092e-28 -6.1165952420747984e-27 0.0000000000000000e+00  8.4379303653596481e-28 -5.5430276665077935e-27 0.0000000000000000e+00  -1.8087766516768883e-28 1.0813533672247148e-27 0.0000000000000000e+00  -1.6740053850782468e-27 8.1067062279705443e-27 0.0000000000000000e+00  -7.3860790239625120e-28 3.2152143840525316e-27 0.0000000000000000e+00  -4.0353313199257957e-28 1.9156872737914514e-27 0.0000000000000000e+00  -1.2086195788802040e-27 4.6324822917716912e-27 0.0000000000000000e+00  -7.1505322826666324e-28 2.4453890979452169e-27 0.0000000000000000e+00  8.3916114367024955e-28 -2.7218497237828694e-27 0.0000000000000000e+00  4.1831178623706017e-28 -1.2795987276998979e-27 0.0000000000000000e+00  8.6840303132589461e-29 -2.8755651587844553e-28 0.0000000000000000e+00  3.3966619074017390e-28 -9.8631846764848511e-28 0.0000000000000000e+00  3.0328866738151478e-28 -7.7081637265523081e-28 0.0000000000000000e+00  -2.5808475354330127e-28 6.3747276741504440e-28 0.0000000000000000e+00  -2.1003076736936981e-28 4.7640919908623648e-28 0.0000000000000000e+00  -1.5111505998222250e-28 3.2772298868443632e-28 0.0000000000000000e+00  1.9233528087402568e-29 -4.5488432925804018e-29 0.0000000000000000e+00  1.0845019431755842e-28 -2.2367345501442748e-28 0.0000000000000000e+00  1.5357807664843093e-28 -2.9311159078492096e-28 0.0000000000000000e+00  -5.2399087496660101e-30 1.5156482236938825e-29 0.0000000000000000e+00  -1.0559776059393488e-28 1.8988511215725882e-28 0.0000000000000000e+00  1.7250212580782914e-29 -3.1413667283031063e-29 0.0000000000000000e+00  5.7800643367734207e-30 -9.3725512702555744e-30 0.0000000000000000e+00  -1.4769951482761513e-29 2.5576260677100503e-29 0.0000000000000000e+00  -1.0617035663972287e-30 1.7575894429146163e-30 0.0000000000000000e+00  1.6446475134928383e-30 -2.7281875505523060e-30 0.0000000000000000e+00  -8.5373497270575941e-31 1.3914156440690302e-30 0.0000000000000000e+00  1.0674516568322224e-31 -1.7110717096919687e-31 0.0000000000000000e+00  -1.2939895008181481e-32 1.9652806673552747e-32 0.0000000000000000e+00  -4.5867947801651581e-34 8.3646278623199125e-34 0.0000000000000000e+00  6.9177012744528773e-33 -1.0155115838831198e-32 0.0000000000000000e+00  3.8987527455386833e-34 -4.8136601062727544e-34 0.0000000000000000e+00  -4.5879028804618452e-34 6.3223747427203328e-34 0.0000000000000000e+00  5.1190414467314258e-35 -7.4475900576292729e-35 0.0000000000000000e+00  -2.0401437769997088e-35 2.6788674978796003e-35 0.0000000000000000e+00  4.7164019421631163e-36 -5.9604699952635613e-36 0.0000000000000000e+00  -1.5626190410982365e-36 1.9256944435588289e-36 0.0000000000000000e+00  5.0923667757086702e-37 -6.0222275122402855e-37 0.0000000000000000e+00  -2.5392366018322198e-37 2.9606656464597813e-37 0.0000000000000000e+00  8.5789607282628974e-38 -9.8842334664094892e-38 0.0000000000000000e+00  -1.7686930198249632e-38 1.9826872465783236e-38 0.0000000000000000e+00  7.1762009303660104e-39 -7.8712439237710484e-39 0.0000000000000000e+00  -4.3051475589431271e-40 4.8965129663909537e-40 0.0000000000000000e+00  -3.4856069139705628e-40 3.5460099345017593e-40 0.0000000000000000e+00  -1.3204284223187748e-41 6.9973181984763074e-42 0.0000000000000000e+00  4.0231744386888684e-40 -3.9941213705583581e-40 0.0000000000000000e+00  -9.3305500705338028e-40 8.8695475788388885e-40 0.0000000000000000e+00  3.6038154530188912e-39 -3.3222284909234277e-39 0.0000000000000000e+00  -2.4348700942676327e-39 2.1557197777825443e-39 0.0000000000000000e+00  -1.5754429321256115e-38 1.3976160020774632e-38 0.0000000000000000e+00  6.3294684638774874e-38 -5.4570008026700600e-38 0.0000000000000000e+00  -8.8479989694958999e-38 7.4310031099392446e-38 0.0000000000000000e+00  -1.4332687817452138e-37 1.1780705272825869e-37 0.0000000000000000e+00  9.6497782719401821e-37 -7.7261670304991583e-37 0.0000000000000000e+00  -1.7192757046186655e-36 1.3484642007867400e-36 0.0000000000000000e+00  -1.3298870939876294e-36 9.8512621271706128e-37 0.0000000000000000e+00  1.3300888598025298e-35 -9.8246554909995743e-36 0.0000000000000000e+00  -2.6155193457160834e-35 1.8898075159788758e-35 0.0000000000000000e+00  -1.7560355225708612e-35 1.1767362443874196e-35 0.0000000000000000e+00  1.9264777736368897e-34 -1.3005972344057032e-34 0.0000000000000000e+00  -3.1365982680446263e-34 2.0955927404339300e-34 0.0000000000000000e+00  -4.0874474602261482e-34 2.5233329162749408e-34 0.0000000000000000e+00  2.6092126187255030e-33 -1.6013988631482316e-33 0.0000000000000000e+00  -2.6322846098271386e-33 1.6155157692589274e-33 0.0000000000000000e+00  -9.3311538512281283e-33 5.2428634895774634e-33 0.0000000000000000e+00  2.9873504695173873e-32 -1.6712428390973570e-32 0.0000000000000000e+00  1.9769804303188566e-33 -8.9444217496480743e-35 0.0000000000000000e+00  -1.6067300811868719e-31 8.1389984973836129e-32 0.0000000000000000e+00  2.1583254886875183e-31 -1.0902605567870009e-31 0.0000000000000000e+00  5.2973359723026352e-31 -2.3902199002357881e-31 0.0000000000000000e+00  -1.5932298884003658e-30 7.2249830587610266e-31 0.0000000000000000e+00  -8.7967998890939508e-31 3.2210295136509821e-31 0.0000000000000000e+00  8.3950896936804361e-30 -3.4140847154523653e-30 0.0000000000000000e+00  -2.5932104606671709e-30 1.2738342771030938e-30 0.0000000000000000e+00  -3.6627644499913132e-29 1.3191725711982906e-29 0.0000000000000000e+00  3.0509035061156937e-29 -1.1665718922394701e-29 0.0000000000000000e+00  1.4751128810788512e-28 -4.6783379956210350e-29 0.0000000000000000e+00  -1.6690413126436311e-28 5.5560253514920858e-29 0.0000000000000000e+00  -6.0779895181852550e-28 1.6790594965163062e-28 0.0000000000000000e+00  6.4107388013336286e-28 -1.9638179391732602e-28 0.0000000000000000e+00  2.5101369283265164e-27 -6.0120076122583978e-28 0.0000000000000000e+00  -1.8954375497161191e-27 5.2248693957256344e-28 0.0000000000000000e+00  -9.6134515281516052e-27 1.9390027906172889e-27 0.0000000000000000e+00  2.4310159954040405e-27 -6.9625617150982716e-28 0.0000000000000000e+00  2.9896093781350567e-26 -5.0765144960481282e-27 0.0000000000000000e+00  1.4532911994394486e-26 -1.5804405654783717e-27 0.0000000000000000e+00  -8.5103984050531183e-26 1.2079969967440561e-26 0.0000000000000000e+00  -1.2894769813783568e-25 1.4966052172776375e-26 0.0000000000000000e+00  1.4611606486566428e-25 -1.3261904080643752e-26 0.0000000000000000e+00  8.5024564064246911e-25 -5.3092663847304642e-26 0.0000000000000000e+00  1.5526472061857623e-24 -5.9203434018793155e-26 0.0000000000000000e+00  1.8939098090267598e-24 -3.3770282566644133e-26 0.0000000000000000e+00  1.8517521040716977e-24 -9.2097219852451385e-27 0.0000000000000000e+00  1.8731433341901958e-24 -2.1938132339017784e-27 0.0000000000000000e+00  2.0071243770423306e-24 1.2512187700487859e-26 0.0000000000000000e+00  1.8619369022089032e-24 4.0685455686847266e-26 0.0000000000000000e+00  1.2186647178973152e-24 5.1163852232269236e-26 0.0000000000000000e+00  3.5934180868934915e-25 2.4907961489757052e-26 0.0000000000000000e+00  -1.6566668145052085e-25 -1.0966223053297363e-26 0.0000000000000000e+00  -2.1626256235691232e-25 -2.1674606941118792e-26 0.0000000000000000e+00  -3.8584599131429223e-26 -5.6989642705605633e-27 0.0000000000000000e+00  6.0105412025200446e-26 7.8914479601134459e-27 0.0000000000000000e+00  3.6759600829951657e-26 6.0223682663175324e-27 0.0000000000000000e+00  -5.1496290301219061e-27 -8.0008646804985183e-28 0.0000000000000000e+00  -1.0773550093177468e-26 -2.1898207922824068e-27 0.0000000000000000e+00  -7.4213157326141150e-28 -2.0182219141943886e-28 0.0000000000000000e+00  2.6807119356822487e-27 6.4736751449027608e-28 0.0000000000000000e+00  3.8747633436529420e-28 1.1084254690396956e-28 0.0000000000000000e+00  -6.3471192000632970e-28 -1.7955236668883460e-28 0.0000000000000000e+00  -8.7909344304792344e-29 -2.9188798737489346e-29 0.0000000000000000e+00  1.4744604972590462e-28 4.8648818173447964e-29 0.0000000000000000e+00  6.7279494110329699e-30 3.0912922229698766e-30 0.0000000000000000e+00  -3.3046756583808016e-29 -1.2428277842014725e-29 0.0000000000000000e+00  2.7916763656551819e-30 9.3177366507408770e-31 0.0000000000000000e+00  6.3085536505562969e-30 2.7068025174710978e-30 0.0000000000000000e+00  -1.8464686405998348e-30 -7.6753932094013497e-31 0.0000000000000000e+00  -9.3263726324332796e-31 -4.4986180046833034e-31 0.0000000000000000e+00  6.0027915550156106e-31 2.8430784708829696e-31 0.0000000000000000e+00  3.3290493849973987e-32 2.2629709784853913e-32 0.0000000000000000e+00  -1.3258435322515338e-31 -6.9008232013077436e-32 0.0000000000000000e+00  2.9891997681920688e-32 1.4841224042036094e-32 0.0000000000000000e+00  1.9054859121641868e-32 1.0980576392430502e-32 0.0000000000000000e+00  -1.2214796130941500e-32 -6.9107731258531249e-33 0.0000000000000000e+00  1.8567245090482775e-34 3.8154416410088073e-36 0.0000000000000000e+00  2.2003877093108270e-33 1.3770347612269451e-33 0.0000000000000000e+00  -8.3575974676978324e-34 -5.1622792588436683e-34 0.0000000000000000e+00  -1.1637988887916141e-34 -8.4676549490521661e-35 0.0000000000000000e+00  2.0119460070051562e-34 1.3601044526800475e-34 0.0000000000000000e+00  -5.6706231507213832e-35 -3.8411591525645624e-35 0.0000000000000000e+00  -1.3163380845654901e-35 -9.8058251267706425e-36 0.0000000000000000e+00  1.4926453535155005e-35 1.0953197842856196e-35 0.0000000000000000e+00  -3.8868642182642541e-36 -2.8689343299537277e-36 0.0000000000000000e+00  -9.2208618318574165e-37 -7.3259249255925331e-37 0.0000000000000000e+00  1.0480857742169601e-36 8.3036120403431273e-37 0.0000000000000000e+00  -3.0278082150940009e-37 -2.4408308773326207e-37 0.0000000000000000e+00  -3.7684478291139169e-38 -3.1787874670755968e-38 0.0000000000000000e+00  6.5906845900410827e-38 5.6180564935744094e-38 0.0000000000000000e+00  -2.5044426164599750e-38 -2.1796265728085009e-38 0.0000000000000000e+00  8.7075830125045981e-40 7.7928992201543702e-40 0.0000000000000000e+00  3.5299982565885143e-39 3.2001628409576563e-39 0.0000000000000000e+00  -1.8390546654134720e-39 -1.7047260935286720e-39 0.0000000000000000e+00  3.9553085790160431e-40 3.7564406277813270e-40 0.0000000000000000e+00  1.9169523325985645e-40 1.8450670209733939e-40 0.0000000000000000e+00  3.6378958938582846e-40 3.8800330568727308e-40 0.0000000000000000e+00  -1.0696180119702580e-39 -1.1311921870177745e-39 0.0000000000000000e+00  2.1015789836238970e-39 2.2891087444938093e-39 0.0000000000000000e+00  -1.4244280987343297e-38 -1.5464584044649404e-38 0.0000000000000000e+00  1.0164920229634244e-37 1.1167060247132723e-37 0.0000000000000000e+00  -2.3356836523275693e-37 -2.6222244559681443e-37 0.0000000000000000e+00  2.6905248460443708e-37 3.1518091749700601e-37 0.0000000000000000e+00  -4.2301410664226278e-36 -5.0731153375866153e-36 0.0000000000000000e+00  1.3500955858693808e-35 1.6322684862207778e-35 0.0000000000000000e+00  -5.8929966989691051e-35 -7.2435461541507189e-35 0.0000000000000000e+00  1.3124562850996047e-34 1.6769323516656503e-34 0.0000000000000000e+00  -2.7440662692335791e-34 -3.6832939966990517e-34 0.0000000000000000e+00  1.4084729140974686e-33 1.8974098950264176e-33 0.0000000000000000e+00  -1.0931846088425403e-33 -1.4731103553937776e-33 0.0000000000000000e+00  5.7813625725039542e-33 7.5951164808819505e-33 0.0000000000000000e+00  4.3083230860459694e-32 6.6609119689439943e-32 0.0000000000000000e+00  -2.0396525582990737e-31 -3.0859804145667939e-31 0.0000000000000000e+00  -5.5787757938128991e-31 -9.1618438379031730e-31 0.0000000000000000e+00  1.0649718044545105e-30 1.7892340988201286e-30 0.0000000000000000e+00  -9.8094923547169270e-32 -1.5774315533626655e-31 0.0000000000000000e+00  -3.3065300592105014e-30 -5.6624827574378312e-30 0.0000000000000000e+00  9.7797320750657157e-30 1.6334147017756130e-29 0.0000000000000000e+00  1.4849148481766166e-29 2.7536932887284956e-29 0.0000000000000000e+00  -9.7235350506411524e-29 -1.7918556725783166e-28 0.0000000000000000e+00  3.1530070461013633e-29 5.9742423094942434e-29 0.0000000000000000e+00  1.0021906396067012e-28 2.1036640595967890e-28 0.0000000000000000e+00  3.9671436498900838e-29 7.4290194817189822e-29 0.0000000000000000e+00  3.4073064596674921e-28 6.9745931477468424e-28 0.0000000000000000e+00  1.4500611254361931e-28 3.3619426525821155e-28 0.0000000000000000e+00  -4.1576457269683135e-28 -8.8142588133159096e-28 0.0000000000000000e+00  -4.0215789701033813e-28 -1.0577131884863248e-27 0.0000000000000000e+00  4.0996898794139709e-28 9.9260654196027230e-28 0.0000000000000000e+00  7.4856401548249655e-28 1.9198987073704751e-27 0.0000000000000000e+00  3.8932704911871399e-28 1.1810933791729810e-27 0.0000000000000000e+00  7.6389577900767071e-29 4.5307490013199334e-28 0.0000000000000000e+00  -8.5698677853993294e-28 -2.6133045603192726e-27 0.0000000000000000e+00  -3.1612255967213155e-28 -9.1086526289021751e-28 0.0000000000000000e+00  -1.4687319027646507e-28 -4.1900985520656446e-28 0.0000000000000000e+00  -4.2079240897977322e-28 -1.6626943183327451e-27 0.0000000000000000e+00  -3.7330322551642486e-28 -1.5945983896556003e-27 0.0000000000000000e+00  -3.2906891523889243e-28 -1.9907325467877674e-27 0.0000000000000000e+00  4.8255405114399770e-29 -2.9805101088173265e-28 0.0000000000000000e+00  3.9866964899172392e-28 2.1336507277586452e-27 0.0000000000000000e+00  5.4385930625364682e-29 1.7758097491793868e-28 0.0000000000000000e+00  -2.7388059870992023e-28 -2.5201088184881118e-27 0.0000000000000000e+00  1.5992907295819202e-28 1.3355686291423279e-27 0.0000000000000000e+00  9.5862918052432649e-29 1.1929270961347564e-27 0.0000000000000000e+00  -6.7826543487685178e-29 -1.3970613079856057e-27 0.0000000000000000e+00  -9.1475434841605792e-30 -1.8602899909540295e-28 0.0000000000000000e+00  -1.9055247989963121e-29 -1.4788149232663883e-27 0.0000000000000000e+00  -4.4601300422241551e-29 2.4559738889643522e-27 0.0000000000000000e+00  -1.2205563400391478e-28 2.2975418563914230e-27 0.0000000000000000e+00  4.9223265577398257e-29 -1.6772251753318512e-27 0.0000000000000000e+00  -3.5766282358785045e-29 -1.6091221131250487e-28 0.0000000000000000e+00  2.3092577525645999e-28 -2.3683308921174940e-27 0.0000000000000000e+00  -3.1798367117218782e-28 1.8021766920468199e-27 0.0000000000000000e+00  -1.9806827158125783e-28 8.1753343506224019e-28 0.0000000000000000e+00  1.9804545754547060e-29 -7.0182769694273747e-28 0.0000000000000000e+00  -4.9740921342199779e-29 -2.0093146233953465e-28 0.0000000000000000e+00  5.8735627645476106e-28 -2.8311196092460371e-27 0.0000000000000000e+00  7.2993933139631899e-28 -3.3884106327989615e-27 0.0000000000000000e+00  1.2354144517117717e-27 -4.7082423532268684e-27 0.0000000000000000e+00  4.0579690096112988e-28 -1.3023445349782913e-27 0.0000000000000000e+00  -3.1757063413995398e-28 1.2278142393210716e-27 0.0000000000000000e+00  -8.2610369226300965e-28 2.5054843918083425e-27 0.0000000000000000e+00  -9.8335744531627771e-28 2.7410493495892395e-27 0.0000000000000000e+00  -2.8566401746570447e-28 6.9998098715877189e-28 0.0000000000000000e+00  1.6247813914762685e-28 -4.4694352057755552e-28 0.0000000000000000e+00  2.1271932177332701e-28 -5.2553498759456455e-28 0.0000000000000000e+00  8.7128508856232652e-28 -1.9168624563113850e-27 0.0000000000000000e+00  3.5975950090404115e-28 -7.4793357883907109e-28 0.0000000000000000e+00  -2.9649591283318224e-28 6.0367794905570296e-28 0.0000000000000000e+00  -1.0868146656379891e-29 2.9890117570114690e-29 0.0000000000000000e+00  3.2417137917630691e-29 -6.7701254808999831e-29 0.0000000000000000e+00  8.1062949042436551e-29 -1.5306424928952657e-28 0.0000000000000000e+00  -1.6423857281099483e-29 3.1199738517659812e-29 0.0000000000000000e+00  -2.4072962491569632e-29 4.2210752287391085e-29 0.0000000000000000e+00  2.35