<?xml version="1.0"?>
<VTKFile type="UnstructuredGrid"  version="0.1"  >
<UnstructuredGrid>
<Piece  NumberOfPoints="11902" NumberOfCells="23402">
<Points>
<DataArray  type="Float64"  NumberOfComponents="3"  format="ascii">-5 -5 0  5 -5 0  5 5 0  -5 5 0  1.241960469140394 0.001379227217138261 0  -4.9 -5 0  -4.8 -5 0  -4.7 -5 0  -4.6 -5 0  -4.5 -5 0  -4.4 -5 0  -4.3 -5 0  -4.2 -5 0  -4.1 -5 0  -4 -5 0  -3.9 -5 0  -3.8 -5 0  -3.7 -5 0  -3.6 -5 0  -3.5 -5 0  -3.4 -5 0  -3.3 -5 0  -3.2 -5 0  -3.1 -5 0  -3 -5 0  -2.9 -5 0  -2.8 -5 0  -2.7 -5 0  -2.6 -5 0  -2.5 -5 0  -2.4 -5 0  -2.3 -5 0  -2.2 -5 0  -2.1 -5 0  -2 -5 0  -1.9 -5 0  -1.8 -5 0  -1.7 -5 0  -1.6 -5 0  -1.5 -5 0  -1.4 -5 0  -1.3 -5 0  -1.2 -5 0  -1.1 -5 0  -1 -5 0  -0.9000000000000004 -5 0  -0.7999999999999998 -5 0  -0.7000000000000002 -5 0  -0.5999999999999996 -5 0  -0.5 -5 0  -0.4000000000000004 -5 0  -0.2999999999999998 -5 0  -0.2000000000000002 -5 0  -0.09999999999999964 -5 0  0 -5 0  0.09999999999999964 -5 0  0.2000000000000002 -5 0  0.2999999999999998 -5 0  0.4000000000000004 -5 0  0.5 -5 0  0.5999999999999996 -5 0  0.7000000000000002 -5 0  0.7999999999999998 -5 0  0.9000000000000004 -5 0  1 -5 0  1.1 -5 0  1.2 -5 0  1.3 -5 0  1.4 -5 0  1.5 -5 0  1.6 -5 0  1.7 -5 0  1.8 -5 0  1.9 -5 0  2 -5 0  2.1 -5 0  2.2 -5 0  2.3 -5 0  2.4 -5 0  2.5 -5 0  2.6 -5 0  2.7 -5 0  2.8 -5 0  2.9 -5 0  3 -5 0  3.1 -5 0  3.199999999999999 -5 0  3.300000000000001 -5 0  3.4 -5 0  3.5 -5 0  3.6 -5 0  3.699999999999999 -5 0  3.800000000000001 -5 0  3.9 -5 0  4 -5 0  4.1 -5 0  4.199999999999999 -5 0  4.300000000000001 -5 0  4.4 -5 0  4.5 -5 0  4.6 -5 0  4.699999999999999 -5 0  4.800000000000001 -5 0  4.9 -5 0  5 -4.9 0  5 -4.8 0  5 -4.7 0  5 -4.6 0  5 -4.5 0  5 -4.4 0  5 -4.3 0  5 -4.2 0  5 -4.1 0  5 -4 0  5 -3.9 0  5 -3.8 0  5 -3.7 0  5 -3.6 0  5 -3.5 0  5 -3.4 0  5 -3.3 0  5 -3.2 0  5 -3.1 0  5 -3 0  5 -2.9 0  5 -2.8 0  5 -2.7 0  5 -2.6 0  5 -2.5 0  5 -2.4 0  5 -2.3 0  5 -2.2 0  5 -2.1 0  5 -2 0  5 -1.9 0  5 -1.8 0  5 -1.7 0  5 -1.6 0  5 -1.5 0  5 -1.4 0  5 -1.3 0  5 -1.2 0  5 -1.1 0  5 -1 0  5 -0.9000000000000004 0  5 -0.7999999999999998 0  5 -0.7000000000000002 0  5 -0.5999999999999996 0  5 -0.5 0  5 -0.4000000000000004 0  5 -0.2999999999999998 0  5 -0.2000000000000002 0  5 -0.09999999999999964 0  5 0 0  5 0.09999999999999964 0  5 0.2000000000000002 0  5 0.2999999999999998 0  5 0.4000000000000004 0  5 0.5 0  5 0.5999999999999996 0  5 0.7000000000000002 0  5 0.7999999999999998 0  5 0.9000000000000004 0  5 1 0  5 1.1 0  5 1.2 0  5 1.3 0  5 1.4 0  5 1.5 0  5 1.6 0  5 1.7 0  5 1.8 0  5 1.9 0  5 2 0  5 2.1 0  5 2.2 0  5 2.3 0  5 2.4 0  5 2.5 0  5 2.6 0  5 2.7 0  5 2.8 0  5 2.9 0  5 3 0  5 3.1 0  5 3.199999999999999 0  5 3.300000000000001 0  5 3.4 0  5 3.5 0  5 3.6 0  5 3.699999999999999 0  5 3.800000000000001 0  5 3.9 0  5 4 0  5 4.1 0  5 4.199999999999999 0  5 4.300000000000001 0  5 4.4 0  5 4.5 0  5 4.6 0  5 4.699999999999999 0  5 4.800000000000001 0  5 4.9 0  4.9 5 0  4.8 5 0  4.7 5 0  4.6 5 0  4.5 5 0  4.4 5 0  4.3 5 0  4.2 5 0  4.1 5 0  4 5 0  3.9 5 0  3.8 5 0  3.7 5 0  3.6 5 0  3.5 5 0  3.4 5 0  3.3 5 0  3.2 5 0  3.1 5 0  3 5 0  2.9 5 0  2.8 5 0  2.7 5 0  2.6 5 0  2.5 5 0  2.4 5 0  2.3 5 0  2.2 5 0  2.1 5 0  2 5 0  1.9 5 0  1.8 5 0  1.7 5 0  1.6 5 0  1.5 5 0  1.4 5 0  1.3 5 0  1.2 5 0  1.1 5 0  1 5 0  0.9000000000000004 5 0  0.7999999999999998 5 0  0.7000000000000002 5 0  0.5999999999999996 5 0  0.5 5 0  0.4000000000000004 5 0  0.2999999999999998 5 0  0.2000000000000002 5 0  0.09999999999999964 5 0  0 5 0  -0.09999999999999964 5 0  -0.2000000000000002 5 0  -0.2999999999999998 5 0  -0.4000000000000004 5 0  -0.5 5 0  -0.5999999999999996 5 0  -0.7000000000000002 5 0  -0.7999999999999998 5 0  -0.9000000000000004 5 0  -1 5 0  -1.1 5 0  -1.2 5 0  -1.3 5 0  -1.4 5 0  -1.5 5 0  -1.6 5 0  -1.7 5 0  -1.8 5 0  -1.9 5 0  -2 5 0  -2.1 5 0  -2.2 5 0  -2.3 5 0  -2.4 5 0  -2.5 5 0  -2.6 5 0  -2.7 5 0  -2.8 5 0  -2.9 5 0  -3 5 0  -3.1 5 0  -3.199999999999999 5 0  -3.300000000000001 5 0  -3.4 5 0  -3.5 5 0  -3.6 5 0  -3.699999999999999 5 0  -3.800000000000001 5 0  -3.9 5 0  -4 5 0  -4.1 5 0  -4.199999999999999 5 0  -4.300000000000001 5 0  -4.4 5 0  -4.5 5 0  -4.6 5 0  -4.699999999999999 5 0  -4.800000000000001 5 0  -4.9 5 0  -5 4.9 0  -5 4.8 0  -5 4.7 0  -5 4.6 0  -5 4.5 0  -5 4.4 0  -5 4.3 0  -5 4.2 0  -5 4.1 0  -5 4 0  -5 3.9 0  -5 3.8 0  -5 3.7 0  -5 3.6 0  -5 3.5 0  -5 3.4 0  -5 3.3 0  -5 3.2 0  -5 3.1 0  -5 3 0  -5 2.9 0  -5 2.8 0  -5 2.7 0  -5 2.6 0  -5 2.5 0  -5 2.4 0  -5 2.3 0  -5 2.2 0  -5 2.1 0  -5 2 0  -5 1.9 0  -5 1.8 0  -5 1.7 0  -5 1.6 0  -5 1.5 0  -5 1.4 0  -5 1.3 0  -5 1.2 0  -5 1.1 0  -5 1 0  -5 0.9000000000000004 0  -5 0.7999999999999998 0  -5 0.7000000000000002 0  -5 0.5999999999999996 0  -5 0.5 0  -5 0.4000000000000004 0  -5 0.2999999999999998 0  -5 0.2000000000000002 0  -5 0.09999999999999964 0  -5 0 0  -5 -0.09999999999999964 0  -5 -0.2000000000000002 0  -5 -0.2999999999999998 0  -5 -0.4000000000000004 0  -5 -0.5 0  -5 -0.5999999999999996 0  -5 -0.7000000000000002 0  -5 -0.7999999999999998 0  -5 -0.9000000000000004 0  -5 -1 0  -5 -1.1 0  -5 -1.2 0  -5 -1.3 0  -5 -1.4 0  -5 -1.5 0  -5 -1.6 0  -5 -1.7 0  -5 -1.8 0  -5 -1.9 0  -5 -2 0  -5 -2.1 0  -5 -2.2 0  -5 -2.3 0  -5 -2.4 0  -5 -2.5 0  -5 -2.6 0  -5 -2.7 0  -5 -2.8 0  -5 -2.9 0  -5 -3 0  -5 -3.1 0  -5 -3.199999999999999 0  -5 -3.300000000000001 0  -5 -3.4 0  -5 -3.5 0  -5 -3.6 0  -5 -3.699999999999999 0  -5 -3.800000000000001 0  -5 -3.9 0  -5 -4 0  -5 -4.1 0  -5 -4.199999999999999 0  -5 -4.300000000000001 0  -5 -4.4 0  -5 -4.5 0  -5 -4.6 0  -5 -4.699999999999999 0  -5 -4.800000000000001 0  -5 -4.9 0  1.234849657408437 0.09675628372592184 0  1.214370982276771 0.1940230864403638 0  1.181376010147985 0.2906675983471317 0  1.138972183132686 0.3804542117761958 0  1.082839461751739 0.4709770855638369 0  1.018157115727678 0.5557442039748562 0  0.9415119985358973 0.6354939593072892 0  0.856122106473886 0.7092144742377886 0  0.7646910113987681 0.7745722918976851 0  0.663247685180015 0.83229227073941 0  0.5539550093366491 0.8844019633424116 0  0.4424962077403445 0.9275235903658381 0  0.3296265493455049 0.9603091663246583 0  0.2077469191007751 0.9820447405213487 0  0.08942476287720959 0.9996991739088258 0  -0.02757756405301644 1.002730232567445 0  -0.1452616346928391 0.9902388579536175 0  -0.2691689635430663 0.9719225576730813 0  -0.3870991582973736 0.9469550942931049 0  -0.4979245791013349 0.91061685107872 0  -0.6058621458264443 0.8643554888272634 0  -0.7077593623225449 0.8099051270706378 0  -0.8019698739110739 0.7456642387331577 0  -0.891448126970754 0.673386026528414 0  -0.974767678999838 0.5944247863074874 0  -1.046964508593658 0.5130383306765093 0  -1.108155596579822 0.4269078000201005 0  -1.158928820104011 0.3353247046417314 0  -1.196436278775938 0.2436033374033845 0  -1.220923614790753 0.1487755205352949 0  -1.232920210435126 0.05082530755614412 0  -1.232875831564895 -0.04872585894843467 0  -1.220808908126714 -0.1460900293128777 0  -1.196348129890074 -0.2403869308608834 0  -1.157045546653698 -0.3354237399296551 0  -1.108379094346047 -0.4264755367669026 0  -1.048305183055132 -0.5126036774315913 0  -0.9769036124617179 -0.5933254550042019 0  -0.8941862219863401 -0.6710192028246429 0  -0.8049068290095951 -0.7418242328945294 0  -0.7090958316227649 -0.8027926837051456 0  -0.6055414035507979 -0.8563143468928409 0  -0.4940791405683513 -0.9050627261572727 0  -0.3816762438583681 -0.9440292033015836 0  -0.2658544247858578 -0.9712465136670012 0  -0.1439161510866492 -0.9897316313083397 0  -0.02793780790946557 -1.00185816857289 0  0.08961249493785801 -0.9954660278026172 0  0.2121551643837845 -0.9791605774396306 0  0.3319016167863275 -0.958712836062083 0  0.44652492687418 -0.9261707775414131 0  0.5561412708400344 -0.8835007903846074 0  0.664111713001291 -0.8322595709670163 0  0.7647377214479331 -0.7757405723867856 0  0.8561987741662203 -0.7101458517602314 0  0.9409044615100851 -0.635310381732586 0  1.015885131386532 -0.5550364594287394 0  1.082914810571872 -0.4700856162067056 0  1.139907472920915 -0.3805577123845501 0  1.183045387438497 -0.2887362363603848 0  1.214891533919154 -0.1931318098600171 0  1.235026284167744 -0.09637016038500201 0  -2.448617052942145 4.918215596294927 0  -2.448496254439221 -4.910603202285961 0  4.910529960367058 2.447971099960419 0  4.918646265938152 -2.449425684764197 0  2.446235852585472 -4.895853656980287 0  2.440667077555535 4.899612185257804 0  -4.910556206335808 -2.447996708841511 0  -4.910553668206583 2.448000585593434 0  -1.74857331635153 4.911149058490623 0  -1.744357543630179 -4.914584858484625 0  4.920735234585101 1.744138708614791 0  4.909283434831263 -1.747909815635702 0  -4.909576084787734 -1.747643006294622 0  -4.910397450381195 1.747387054440541 0  1.745849801519293 4.905015464684259 0  1.747270177850988 -4.893177582038112 0  -1.14887266079711 4.908961641101971 0  -1.129726009782915 -4.916865007530051 0  -4.909325370332655 -1.147957866428325 0  -4.909144125684587 1.147758214224675 0  1.143865369087218 -4.913055123678825 0  1.14888218485173 4.908948753589367 0  4.90946645951942 1.146233570612247 0  4.920281592240539 -1.152011983168004 0  -0.5466852074104523 -4.910164849026904 0  -0.5464662334913687 4.918836435767503 0  -4.908083405540907 -0.5487252087821043 0  -4.90810743870439 0.5472826600577935 0  4.907405291995165 -0.5490439351814438 0  4.919043400121573 0.5457989728451342 0  0.5424692046322227 -4.897062707277878 0  0.5511952364676397 4.915664051559375 0  -4.911949893890509 -3.048341866324837 0  4.918517050980966 3.046354883795833 0  4.911458283357706 -3.04831831557273 0  -4.912797379003148 3.045433034824375 0  3.05533705772334 -4.917443271355137 0  -3.048670655230266 -4.911383059942378 0  3.052237053526699 4.913459811627186 0  -3.048115996133217 4.912272365768665 0  -4.907201029020058 -0.04990940386873584 0  0.04512086416415007 -4.912116173095524 0  0.04956862565413341 4.919133034508234 0  4.914245866363166 -0.05129137458119681 0  3.545647963089745 -4.919069054408168 0  -3.548930942545721 4.
[...]
<PointData  Vectors="f_3634"> 
<DataArray  type="Float64"  Name="f_3634"  NumberOfComponents="3" format="ascii">-9.2507651512813762e-41 -1.2325316603586940e-40 0.0000000000000000e+00  1.0216974748376564e-40 -1.2853809483199213e-40 0.0000000000000000e+00  -1.8506434671194082e-40 -1.7730892524925553e-40 0.0000000000000000e+00  -1.9938201525277809e-40 2.0115560712572154e-40 0.0000000000000000e+00  1.6286043423096675e+01 7.2852249859304760e-02 0.0000000000000000e+00  2.3160947238123500e-40 2.7336047678118415e-40 0.0000000000000000e+00  7.3390466645906291e-40 7.0567968226341972e-40 0.0000000000000000e+00  -1.8048212878098372e-39 -1.8994301199817369e-39 0.0000000000000000e+00  1.4655087711901086e-38 1.7151500156303483e-38 0.0000000000000000e+00  -5.0225731417807795e-38 -5.8438338422306914e-38 0.0000000000000000e+00  1.8289871157616374e-37 2.4191089284614062e-37 0.0000000000000000e+00  -6.7754644048120021e-37 -9.4342459125681887e-37 0.0000000000000000e+00  3.7263248936728837e-36 5.0434557823817459e-36 0.0000000000000000e+00  -2.2183635169227309e-35 -2.8088347157725715e-35 0.0000000000000000e+00  9.3988180230637765e-35 1.2001596842611233e-34 0.0000000000000000e+00  -2.0956541344012989e-34 -2.5364161093302457e-34 0.0000000000000000e+00  4.1340919916856630e-34 4.6225234095377803e-34 0.0000000000000000e+00  1.6524514865504574e-33 1.9103981283888632e-33 0.0000000000000000e+00  -6.8401497652602961e-33 -8.8369964095081928e-33 0.0000000000000000e+00  1.7411567052876188e-32 2.5510628118364708e-32 0.0000000000000000e+00  -1.0584971109496113e-31 -1.4942908918850155e-31 0.0000000000000000e+00  2.8455204166511549e-31 4.0333188984888405e-31 0.0000000000000000e+00  2.0890871042710492e-31 2.4410935010852839e-31 0.0000000000000000e+00  -1.6484842363037675e-30 -2.0661614308103536e-30 0.0000000000000000e+00  -4.9119395439626144e-31 -1.0932205910958335e-30 0.0000000000000000e+00  -7.2758962425548788e-31 -2.0474752715785328e-30 0.0000000000000000e+00  3.5828342062324448e-30 7.2390306708181181e-30 0.0000000000000000e+00  -8.1347578257083798e-30 -2.7861863594397075e-29 0.0000000000000000e+00  2.9760999832664476e-29 7.8587164122864453e-29 0.0000000000000000e+00  1.6691068065206049e-29 4.7270123647836592e-29 0.0000000000000000e+00  -1.4999138085434768e-28 -3.7755496225512753e-28 0.0000000000000000e+00  -5.9322809114478148e-29 -1.6663730388051741e-28 0.0000000000000000e+00  -9.1105757407833032e-29 -3.6032694554611969e-28 0.0000000000000000e+00  1.4673601398453463e-28 4.8587966366297617e-28 0.0000000000000000e+00  3.9428528202185583e-28 1.4966604052303401e-27 0.0000000000000000e+00  4.2549024076306323e-29 -8.4780001884023982e-29 0.0000000000000000e+00  1.6731381443325616e-28 4.4411012634628493e-28 0.0000000000000000e+00  -5.3938185326404430e-29 -2.7352967677798508e-28 0.0000000000000000e+00  -4.5587275118606220e-28 -1.5275222501408268e-27 0.0000000000000000e+00  -4.4329859840233351e-28 -1.4486302383608851e-27 0.0000000000000000e+00  -2.7430835533405997e-29 -4.9730553439845260e-29 0.0000000000000000e+00  4.1897201921481735e-28 1.6567696915761572e-27 0.0000000000000000e+00  2.7564720903446310e-28 9.7020963149854685e-28 0.0000000000000000e+00  1.3216457098666288e-29 -1.2802396153322612e-28 0.0000000000000000e+00  1.3711573018966143e-28 3.8377529904334751e-28 0.0000000000000000e+00  -2.4428394650922558e-28 8.6228055152028835e-28 0.0000000000000000e+00  -1.1051565590673376e-28 1.5176913756074896e-27 0.0000000000000000e+00  1.3872960637940913e-28 -8.9609357308039819e-28 0.0000000000000000e+00  5.9849460631982947e-29 4.9432338491670329e-27 0.0000000000000000e+00  -2.5285155221125899e-28 -3.7430734312525635e-29 0.0000000000000000e+00  -5.6224095241012645e-28 -4.2976957250971824e-27 0.0000000000000000e+00  -5.9688656321269333e-28 -2.4506145728239053e-27 0.0000000000000000e+00  -3.8268190752525696e-28 -3.6037285571465601e-27 0.0000000000000000e+00  4.8341892668073709e-29 -9.2011008212593282e-27 0.0000000000000000e+00  1.9459828405802873e-28 -1.0538960090101264e-26 0.0000000000000000e+00  -4.1194865561427294e-29 -1.8054432107717134e-27 0.0000000000000000e+00  -3.0620645961309732e-29 -5.7000880415165732e-27 0.0000000000000000e+00  -5.7098380223581510e-29 -2.0650119188508388e-27 0.0000000000000000e+00  7.3315035622630154e-29 -3.6814685973623013e-27 0.0000000000000000e+00  -1.1111385954382184e-28 1.7610856281323551e-27 0.0000000000000000e+00  3.3760799253670422e-28 -4.9259540489037047e-27 0.0000000000000000e+00  4.9062722135126311e-28 -4.5086941052112656e-27 0.0000000000000000e+00  -3.1814764055385815e-29 1.0098086673243619e-27 0.0000000000000000e+00  -6.1821236489631938e-28 6.8854058317002096e-27 0.0000000000000000e+00  -3.2794777206522860e-28 2.7559503537257516e-27 0.0000000000000000e+00  -3.1102248725423706e-28 1.4994295230755826e-27 0.0000000000000000e+00  -6.1594063098170374e-28 3.9895206567573499e-27 0.0000000000000000e+00  -3.5854072019286111e-28 2.1081688557154522e-27 0.0000000000000000e+00  3.6088067539544843e-28 -2.4779819520888804e-27 0.0000000000000000e+00  2.5643474941743154e-28 -1.1736884603946605e-27 0.0000000000000000e+00  5.6254596911082637e-29 -1.5171555025497001e-28 0.0000000000000000e+00  2.7121899584085728e-28 -8.3546320620168811e-28 0.0000000000000000e+00  1.7412415897136076e-28 -6.5309767714254233e-28 0.0000000000000000e+00  -1.5244516733065005e-28 5.7676956340671404e-28 0.0000000000000000e+00  -8.7629919399187011e-29 2.8043645111150823e-28 0.0000000000000000e+00  -6.8110899720981200e-29 2.4173912545644958e-28 0.0000000000000000e+00  1.8877033361616475e-29 -6.1176872620685928e-29 0.0000000000000000e+00  4.6113773721282149e-29 -1.5039783024249663e-28 0.0000000000000000e+00  7.0426237840637818e-29 -2.1043224466943998e-28 0.0000000000000000e+00  -8.6775744523528692e-30 1.4330933198561479e-29 0.0000000000000000e+00  -5.9691514026389927e-29 1.5192038629546399e-28 0.0000000000000000e+00  9.6950854153450098e-30 -2.4195416315848696e-29 0.0000000000000000e+00  3.4748114360794094e-30 -8.3211522769162974e-30 0.0000000000000000e+00  -1.1485377157731107e-29 2.1686548541137096e-29 0.0000000000000000e+00  -1.1984357949878912e-30 1.5515544265842791e-30 0.0000000000000000e+00  1.4358864579270563e-30 -2.2917917928366798e-30 0.0000000000000000e+00  -6.9009114048829477e-31 1.0713141475043557e-30 0.0000000000000000e+00  1.0321468902996243e-31 -1.6288628654177978e-31 0.0000000000000000e+00  -1.0855049382369071e-32 1.7244358044664337e-32 0.0000000000000000e+00  -2.6825781136370257e-33 3.4417291839371281e-33 0.0000000000000000e+00  6.4032147708475988e-33 -7.9706236861778126e-33 0.0000000000000000e+00  -4.8967511090117843e-35 1.3833811292165522e-34 0.0000000000000000e+00  -2.4661812758545988e-34 2.7230460193442332e-34 0.0000000000000000e+00  1.7375391052952022e-35 -1.0721463367344098e-35 0.0000000000000000e+00  -6.3658114284872184e-36 7.8770821437057208e-36 0.0000000000000000e+00  2.8413687715842040e-36 -3.2846072730321294e-36 0.0000000000000000e+00  -1.6870633571046709e-36 1.7786251432797324e-36 0.0000000000000000e+00  5.0606829422183042e-37 -5.7172179970007269e-37 0.0000000000000000e+00  -2.4638803777500925e-37 2.6090175044026542e-37 0.0000000000000000e+00  8.0560587186814195e-38 -8.2271672285556848e-38 0.0000000000000000e+00  -1.4739205270681810e-38 1.5449939019018912e-38 0.0000000000000000e+00  5.7023586097800273e-39 -5.7460799606801194e-39 0.0000000000000000e+00  -4.5176834880830098e-40 3.9047068294621842e-40 0.0000000000000000e+00  -1.8223940789044406e-40 2.2492320210105714e-40 0.0000000000000000e+00  6.7358049746042107e-42 -1.2538824491932025e-42 0.0000000000000000e+00  3.7728459102599662e-40 -3.0999780607934945e-40 0.0000000000000000e+00  -8.3705918234743233e-40 6.8397428721494414e-40 0.0000000000000000e+00  2.5253898018731755e-39 -2.3503706692182509e-39 0.0000000000000000e+00  -4.6822071916729976e-40 1.0727157213275692e-39 0.0000000000000000e+00  -1.5051606702345565e-38 1.1581934582843111e-38 0.0000000000000000e+00  4.9513278087613220e-38 -4.1659390401817531e-38 0.0000000000000000e+00  -5.2812313321082964e-38 5.1056598770416585e-38 0.0000000000000000e+00  -1.6272453490093214e-37 1.1174956490270667e-37 0.0000000000000000e+00  8.1502639197841200e-37 -6.3412430096302674e-37 0.0000000000000000e+00  -1.2194140957831679e-36 1.0240048335512039e-36 0.0000000000000000e+00  -1.7345687977706728e-36 1.0951388511210867e-36 0.0000000000000000e+00  1.1564924276592888e-35 -8.5329773447975856e-36 0.0000000000000000e+00  -1.9867575788903700e-35 1.5325882925589020e-35 0.0000000000000000e+00  -2.1920590000982022e-35 1.3868583077273237e-35 0.0000000000000000e+00  1.6815663738724588e-34 -1.1875221802640973e-34 0.0000000000000000e+00  -2.4264292740076221e-34 1.7588062505642967e-34 0.0000000000000000e+00  -4.1912482183049926e-34 2.7609851105052009e-34 0.0000000000000000e+00  2.2545238474593453e-33 -1.5209873288363512e-33 0.0000000000000000e+00  -1.9579395843686237e-33 1.3259033352533345e-33 0.0000000000000000e+00  -8.6918416649144186e-33 5.6249250421297680e-33 0.0000000000000000e+00  2.5435033978965053e-32 -1.6197139472180639e-32 0.0000000000000000e+00  5.4471535817813230e-33 -3.6605183882213344e-33 0.0000000000000000e+00  -1.4415136514468089e-31 8.8028191061440591e-32 0.0000000000000000e+00  1.7652496720337912e-31 -1.0144396525179674e-31 0.0000000000000000e+00  5.0330240150414564e-31 -2.9940287317642429e-31 0.0000000000000000e+00  -1.4050349951535738e-30 7.7694238022930061e-31 0.0000000000000000e+00  -9.6057979984701243e-31 6.0515268145344169e-31 0.0000000000000000e+00  7.7545830665900950e-30 -4.1047757138508233e-30 0.0000000000000000e+00  -1.8285124487582651e-30 3.7386210634709252e-31 0.0000000000000000e+00  -3.5079560345741668e-29 1.7837547088169775e-29 0.0000000000000000e+00  2.7558843007535616e-29 -9.7922706531646056e-30 0.0000000000000000e+00  1.4581856348292300e-28 -7.1633505701616918e-29 0.0000000000000000e+00  -1.6150170150380230e-28 5.2582687470286174e-29 0.0000000000000000e+00  -6.1756019972456825e-28 2.8755704671183265e-28 0.0000000000000000e+00  6.5111946801602593e-28 -1.5772054056252073e-28 0.0000000000000000e+00  2.6001658938244022e-27 -1.1036575141901658e-27 0.0000000000000000e+00  -1.9948396073362698e-27 1.8235004358717134e-28 0.0000000000000000e+00  -1.0110088415336137e-26 3.3856764773782567e-27 0.0000000000000000e+00  2.8501676165418975e-27 1.2048769207276023e-27 0.0000000000000000e+00  3.2183510155211376e-26 -7.6483896093249490e-27 0.0000000000000000e+00  1.6016550110269522e-26 -8.2056236211986402e-27 0.0000000000000000e+00  -8.8291710123455887e-26 1.1876723792369426e-26 0.0000000000000000e+00  -1.3046232423755945e-25 2.0913199137115338e-26 0.0000000000000000e+00  1.6075452947179383e-25 -3.8593399525510013e-26 0.0000000000000000e+00  8.8082482981183220e-25 -1.8004719277702877e-25 0.0000000000000000e+00  1.5674460869200986e-24 -2.9856817221909597e-25 0.0000000000000000e+00  1.8608184341377397e-24 -3.0318384506696287e-25 0.0000000000000000e+00  1.7676126666589483e-24 -1.7041594626349037e-25 0.0000000000000000e+00  1.7553459202141154e-24 2.0956401909761468e-26 0.0000000000000000e+00  1.8832998136933263e-24 1.9003570368412811e-25 0.0000000000000000e+00  1.7679755123870747e-24 2.5443497187035000e-25 0.0000000000000000e+00  1.1830230165945852e-24 1.9178283703601133e-25 0.0000000000000000e+00  3.7817731410324765e-25 6.0784643682757368e-26 0.0000000000000000e+00  -1.2718133860682121e-25 -2.9942131793408810e-26 0.0000000000000000e+00  -1.9078179887271011e-25 -3.7408254775092236e-26 0.0000000000000000e+00  -3.3380134558584178e-26 2.5581060372742957e-28 0.0000000000000000e+00  5.6779560942112496e-26 1.9821660591222835e-26 0.0000000000000000e+00  3.4834799555614763e-26 1.0478170299540102e-26 0.0000000000000000e+00  -4.2847304742915061e-27 -1.8536904775777269e-27 0.0000000000000000e+00  -9.5650765832433452e-27 -3.1359120236250543e-27 0.0000000000000000e+00  -4.4856766000028192e-28 3.3063207783031784e-29 0.0000000000000000e+00  2.4453836346985254e-27 9.1949684003615356e-28 0.0000000000000000e+00  2.5991115107839824e-28 5.9635384461900060e-29 0.0000000000000000e+00  -5.9598393074036104e-28 -2.4259146201964476e-28 0.0000000000000000e+00  -5.4370844304501090e-29 -1.3145147217300837e-29 0.0000000000000000e+00  1.3939661032995477e-28 6.0204249976342572e-29 0.0000000000000000e+00  -2.8223722389585503e-31 -2.6623502876932584e-30 0.0000000000000000e+00  -3.0675294462800556e-29 -1.3920916231031887e-29 0.0000000000000000e+00  3.8320923963409860e-30 2.4488131789257209e-30 0.0000000000000000e+00  5.6563043296537151e-30 2.6627904863379416e-30 0.0000000000000000e+00  -1.8817883788855245e-30 -1.0861567618927909e-30 0.0000000000000000e+00  -7.9382853782644943e-31 -3.7024335538160874e-31 0.0000000000000000e+00  5.6277717786515486e-31 3.2545975492184232e-31 0.0000000000000000e+00  1.6978947012707592e-32 -4.0401352526870276e-33 0.0000000000000000e+00  -1.1788714066984462e-31 -6.9435762378955939e-32 0.0000000000000000e+00  2.8265187967085805e-32 1.9860849630267278e-32 0.0000000000000000e+00  1.6080734846701021e-32 9.3162941954893774e-33 0.0000000000000000e+00  -1.0705319900445753e-32 -7.1443456557645177e-33 0.0000000000000000e+00  2.9533479637434673e-34 3.7044936431085984e-34 0.0000000000000000e+00  1.8448614965501041e-33 1.2458291534826336e-33 0.0000000000000000e+00  -7.2110913115896326e-34 -5.2355330142109802e-34 0.0000000000000000e+00  -8.3800523258070184e-35 -5.3759565062465435e-35 0.0000000000000000e+00  1.6456779113823805e-34 1.2119452426873533e-34 0.0000000000000000e+00  -4.8827981465810888e-35 -3.7078099463370786e-35 0.0000000000000000e+00  -9.1409786783879763e-36 -7.1987371567575759e-36 0.0000000000000000e+00  1.1834589014918813e-35 9.3506035972318063e-36 0.0000000000000000e+00  -3.3477631507552407e-36 -2.6110816911916656e-36 0.0000000000000000e+00  -5.7105222423699176e-37 -5.2452433476911559e-37 0.0000000000000000e+00  7.9480191806696605e-37 6.7215366814218034e-37 0.0000000000000000e+00  -2.5403504119672090e-37 -2.0625507984626060e-37 0.0000000000000000e+00  -1.4139314738045414e-38 -1.9688165415557138e-38 0.0000000000000000e+00  4.6450316571616528e-38 4.2826280025641341e-38 0.0000000000000000e+00  -1.9732303435448984e-38 -1.7161214599750850e-38 0.0000000000000000e+00  1.7894855462941807e-39 9.4956697352395919e-40 0.0000000000000000e+00  2.1798291849191856e-39 2.2812846502393312e-39 0.0000000000000000e+00  -1.3212237930231057e-39 -1.2574532910987251e-39 0.0000000000000000e+00  3.3585974208796607e-40 2.9019320776108886e-40 0.0000000000000000e+00  9.1318441231289124e-41 1.2174335043999333e-40 0.0000000000000000e+00  3.0083583445035510e-40 2.8134017058003444e-40 0.0000000000000000e+00  -6.6793155716000118e-40 -7.7472243764494592e-40 0.0000000000000000e+00  1.3936908802912685e-39 1.6229284328125120e-39 0.0000000000000000e+00  -9.0171837961127280e-39 -1.0921154881855408e-38 0.0000000000000000e+00  7.6989457943055128e-38 8.1387233838784573e-38 0.0000000000000000e+00  -2.1187156025590851e-37 -2.0647398844096208e-37 0.0000000000000000e+00  2.7323520942500368e-37 2.8178649084875505e-37 0.0000000000000000e+00  -3.3899376433612617e-36 -3.9441095559527632e-36 0.0000000000000000e+00  8.9829457836196543e-36 1.2196991085198990e-35 0.0000000000000000e+00  -3.3436931631876952e-35 -5.0705947562684197e-35 0.0000000000000000e+00  7.2853312341175384e-35 1.0766880926971627e-34 0.0000000000000000e+00  -8.8042960315427853e-35 -1.6669122103749298e-34 0.0000000000000000e+00  6.6413965906083082e-34 9.9489823600995804e-34 0.0000000000000000e+00  1.5035557639179662e-34 1.3504706605858565e-34 0.0000000000000000e+00  1.2080379714274571e-33 2.7350961714386589e-33 0.0000000000000000e+00  3.3788155666829804e-32 4.5658023005957423e-32 0.0000000000000000e+00  -1.3318709200439666e-31 -1.8725669030211666e-31 0.0000000000000000e+00  -5.0513379232200560e-31 -7.1487323160386090e-31 0.0000000000000000e+00  1.1771403956768287e-30 1.6674754475679700e-30 0.0000000000000000e+00  -7.0704038260158436e-31 -1.0168318401339923e-30 0.0000000000000000e+00  -2.8944248076985464e-30 -5.6675263293605528e-30 0.0000000000000000e+00  9.3013360898573363e-30 2.1392499115005878e-29 0.0000000000000000e+00  1.1760314713231798e-29 2.7279901344731457e-29 0.0000000000000000e+00  -7.0013375970643350e-29 -1.7176874896847683e-28 0.0000000000000000e+00  2.0923438741138799e-29 4.7027833510412563e-29 0.0000000000000000e+00  8.7645794580505283e-29 1.8058944226682461e-28 0.0000000000000000e+00  1.7014329409348598e-29 7.6169347276064747e-29 0.0000000000000000e+00  1.6354273631583152e-28 6.0080713647079453e-28 0.0000000000000000e+00  7.7090160488078152e-29 2.6219525334874597e-28 0.0000000000000000e+00  -1.4300121344262824e-28 -5.3145829883781420e-28 0.0000000000000000e+00  -3.5706125983886048e-28 -1.2948136247403243e-27 0.0000000000000000e+00  2.2889927070617879e-28 9.6675708582194870e-28 0.0000000000000000e+00  3.4994954363903031e-28 1.6368394453580896e-27 0.0000000000000000e+00  3.0707220014256357e-28 1.3547773742534894e-27 0.0000000000000000e+00  2.6449363214533458e-28 8.8651816039236632e-28 0.0000000000000000e+00  -4.1411140764265589e-28 -2.3903019391591710e-27 0.0000000000000000e+00  -2.0024970282129727e-29 -4.7471751971045178e-28 0.0000000000000000e+00  4.0889250468327975e-29 -1.4006217119674625e-28 0.0000000000000000e+00  -1.9188439551535163e-28 -1.4989524314701339e-27 0.0000000000000000e+00  -1.5627057071781269e-28 -1.4438047893556614e-27 0.0000000000000000e+00  -3.9466115262104658e-28 -2.6669969497314050e-27 0.0000000000000000e+00  -2.9514873549930536e-28 -1.2547221399836472e-27 0.0000000000000000e+00  -5.6396712356155604e-29 1.2446744388547192e-27 0.0000000000000000e+00  -1.4244788727156459e-28 -4.7328832123622555e-28 0.0000000000000000e+00  -7.2950212550375698e-29 -2.4299892537202530e-27 0.0000000000000000e+00  -1.2579711109735198e-28 5.3808725032695396e-28 0.0000000000000000e+00  -1.2343150541491698e-28 3.9845997766902515e-28 0.0000000000000000e+00  2.7901803514536047e-29 -1.6699145721988615e-27 0.0000000000000000e+00  -9.2194184452731870e-30 -6.7767347000577334e-28 0.0000000000000000e+00  1.5407953224490341e-28 -1.7714666527369035e-27 0.0000000000000000e+00  -2.1396172142721206e-28 1.5449986523391639e-27 0.0000000000000000e+00  -2.0638428248960260e-28 1.4452907019224587e-27 0.0000000000000000e+00  3.1938717822770345e-28 -1.8393086089854449e-27 0.0000000000000000e+00  1.5725142991936059e-28 -5.4071558935600013e-28 0.0000000000000000e+00  3.3751644990282907e-28 -2.1984989413989075e-27 0.0000000000000000e+00  8.8969704182972988e-29 8.4244542697684442e-28 0.0000000000000000e+00  8.6492186266524722e-29 1.7666937074447976e-28 0.0000000000000000e+00  4.0405637715408502e-28 -1.2758493804408875e-27 0.0000000000000000e+00  2.3022995870793240e-28 -6.7491148252078865e-28 0.0000000000000000e+00  4.5840009878509004e-28 -2.6416777388422046e-27 0.0000000000000000e+00  7.2129811494543988e-28 -3.6392259897306177e-27 0.0000000000000000e+00  8.2824426835057023e-28 -4.6057351614662352e-27 0.0000000000000000e+00  1.9981035266070361e-28 -1.1334586722291663e-27 0.0000000000000000e+00  -3.7224709184728393e-28 1.6244228179181694e-27 0.0000000000000000e+00  -5.1166612103327670e-28 2.4921364202942621e-27 0.0000000000000000e+00  -5.5216101884070783e-28 2.6070126153784520e-27 0.0000000000000000e+00  -1.0754314473451026e-28 5.4473774934535143e-28 0.0000000000000000e+00  1.4439913127863571e-28 -5.8396816541172397e-28 0.0000000000000000e+00  8.3376860929859590e-29 -3.9224616953809958e-28 0.0000000000000000e+00  3.5595697302775254e-28 -1.5140464241958591e-27 0.0000000000000000e+00  1.5996124008422025e-28 -6.1711887555761483e-28 0.0000000000000000e+00  -1.3659771226441642e-28 5.2697018300032762e-28 0.0000000000000000e+00  -1.0740930206619608e-29 2.7733147093355206e-30 0.0000000000000000e+00  1.9743985162977016e-29 -5.5146888446965219e-29 0.0000000000000000e+00  4.1784025496969608e-29 -1.1894112371759199e-28 0.0000000000000000e+00  -9.7604542353457363e-30 2.4848379908603276e-29 0.0000000000000000e+00  -1.4484450817240008e-29 3.5917804863502691e-29 0.0000000000000000e+00  7.7608117