<?xml version="1.0"?>
<VTKFile type="UnstructuredGrid"  version="0.1"  >
<UnstructuredGrid>
<Piece  NumberOfPoints="11902" NumberOfCells="23402">
<Points>
<DataArray  type="Float64"  NumberOfComponents="3"  format="ascii">-5 -5 0  5 -5 0  5 5 0  -5 5 0  1.264238952531494 0.001268289834125641 0  -4.9 -5 0  -4.8 -5 0  -4.7 -5 0  -4.6 -5 0  -4.5 -5 0  -4.4 -5 0  -4.3 -5 0  -4.2 -5 0  -4.1 -5 0  -4 -5 0  -3.9 -5 0  -3.8 -5 0  -3.7 -5 0  -3.6 -5 0  -3.5 -5 0  -3.4 -5 0  -3.3 -5 0  -3.2 -5 0  -3.1 -5 0  -3 -5 0  -2.9 -5 0  -2.8 -5 0  -2.7 -5 0  -2.6 -5 0  -2.5 -5 0  -2.4 -5 0  -2.3 -5 0  -2.2 -5 0  -2.1 -5 0  -2 -5 0  -1.9 -5 0  -1.8 -5 0  -1.7 -5 0  -1.6 -5 0  -1.5 -5 0  -1.4 -5 0  -1.3 -5 0  -1.2 -5 0  -1.1 -5 0  -1 -5 0  -0.9000000000000004 -5 0  -0.7999999999999998 -5 0  -0.7000000000000002 -5 0  -0.5999999999999996 -5 0  -0.5 -5 0  -0.4000000000000004 -5 0  -0.2999999999999998 -5 0  -0.2000000000000002 -5 0  -0.09999999999999964 -5 0  0 -5 0  0.09999999999999964 -5 0  0.2000000000000002 -5 0  0.2999999999999998 -5 0  0.4000000000000004 -5 0  0.5 -5 0  0.5999999999999996 -5 0  0.7000000000000002 -5 0  0.7999999999999998 -5 0  0.9000000000000004 -5 0  1 -5 0  1.1 -5 0  1.2 -5 0  1.3 -5 0  1.4 -5 0  1.5 -5 0  1.6 -5 0  1.7 -5 0  1.8 -5 0  1.9 -5 0  2 -5 0  2.1 -5 0  2.2 -5 0  2.3 -5 0  2.4 -5 0  2.5 -5 0  2.6 -5 0  2.7 -5 0  2.8 -5 0  2.9 -5 0  3 -5 0  3.1 -5 0  3.199999999999999 -5 0  3.300000000000001 -5 0  3.4 -5 0  3.5 -5 0  3.6 -5 0  3.699999999999999 -5 0  3.800000000000001 -5 0  3.9 -5 0  4 -5 0  4.1 -5 0  4.199999999999999 -5 0  4.300000000000001 -5 0  4.4 -5 0  4.5 -5 0  4.6 -5 0  4.699999999999999 -5 0  4.800000000000001 -5 0  4.9 -5 0  5 -4.9 0  5 -4.8 0  5 -4.7 0  5 -4.6 0  5 -4.5 0  5 -4.4 0  5 -4.3 0  5 -4.2 0  5 -4.1 0  5 -4 0  5 -3.9 0  5 -3.8 0  5 -3.7 0  5 -3.6 0  5 -3.5 0  5 -3.4 0  5 -3.3 0  5 -3.2 0  5 -3.1 0  5 -3 0  5 -2.9 0  5 -2.8 0  5 -2.7 0  5 -2.6 0  5 -2.5 0  5 -2.4 0  5 -2.3 0  5 -2.2 0  5 -2.1 0  5 -2 0  5 -1.9 0  5 -1.8 0  5 -1.7 0  5 -1.6 0  5 -1.5 0  5 -1.4 0  5 -1.3 0  5 -1.2 0  5 -1.1 0  5 -1 0  5 -0.9000000000000004 0  5 -0.7999999999999998 0  5 -0.7000000000000002 0  5 -0.5999999999999996 0  5 -0.5 0  5 -0.4000000000000004 0  5 -0.2999999999999998 0  5 -0.2000000000000002 0  5 -0.09999999999999964 0  5 0 0  5 0.09999999999999964 0  5 0.2000000000000002 0  5 0.2999999999999998 0  5 0.4000000000000004 0  5 0.5 0  5 0.5999999999999996 0  5 0.7000000000000002 0  5 0.7999999999999998 0  5 0.9000000000000004 0  5 1 0  5 1.1 0  5 1.2 0  5 1.3 0  5 1.4 0  5 1.5 0  5 1.6 0  5 1.7 0  5 1.8 0  5 1.9 0  5 2 0  5 2.1 0  5 2.2 0  5 2.3 0  5 2.4 0  5 2.5 0  5 2.6 0  5 2.7 0  5 2.8 0  5 2.9 0  5 3 0  5 3.1 0  5 3.199999999999999 0  5 3.300000000000001 0  5 3.4 0  5 3.5 0  5 3.6 0  5 3.699999999999999 0  5 3.800000000000001 0  5 3.9 0  5 4 0  5 4.1 0  5 4.199999999999999 0  5 4.300000000000001 0  5 4.4 0  5 4.5 0  5 4.6 0  5 4.699999999999999 0  5 4.800000000000001 0  5 4.9 0  4.9 5 0  4.8 5 0  4.7 5 0  4.6 5 0  4.5 5 0  4.4 5 0  4.3 5 0  4.2 5 0  4.1 5 0  4 5 0  3.9 5 0  3.8 5 0  3.7 5 0  3.6 5 0  3.5 5 0  3.4 5 0  3.3 5 0  3.2 5 0  3.1 5 0  3 5 0  2.9 5 0  2.8 5 0  2.7 5 0  2.6 5 0  2.5 5 0  2.4 5 0  2.3 5 0  2.2 5 0  2.1 5 0  2 5 0  1.9 5 0  1.8 5 0  1.7 5 0  1.6 5 0  1.5 5 0  1.4 5 0  1.3 5 0  1.2 5 0  1.1 5 0  1 5 0  0.9000000000000004 5 0  0.7999999999999998 5 0  0.7000000000000002 5 0  0.5999999999999996 5 0  0.5 5 0  0.4000000000000004 5 0  0.2999999999999998 5 0  0.2000000000000002 5 0  0.09999999999999964 5 0  0 5 0  -0.09999999999999964 5 0  -0.2000000000000002 5 0  -0.2999999999999998 5 0  -0.4000000000000004 5 0  -0.5 5 0  -0.5999999999999996 5 0  -0.7000000000000002 5 0  -0.7999999999999998 5 0  -0.9000000000000004 5 0  -1 5 0  -1.1 5 0  -1.2 5 0  -1.3 5 0  -1.4 5 0  -1.5 5 0  -1.6 5 0  -1.7 5 0  -1.8 5 0  -1.9 5 0  -2 5 0  -2.1 5 0  -2.2 5 0  -2.3 5 0  -2.4 5 0  -2.5 5 0  -2.6 5 0  -2.7 5 0  -2.8 5 0  -2.9 5 0  -3 5 0  -3.1 5 0  -3.199999999999999 5 0  -3.300000000000001 5 0  -3.4 5 0  -3.5 5 0  -3.6 5 0  -3.699999999999999 5 0  -3.800000000000001 5 0  -3.9 5 0  -4 5 0  -4.1 5 0  -4.199999999999999 5 0  -4.300000000000001 5 0  -4.4 5 0  -4.5 5 0  -4.6 5 0  -4.699999999999999 5 0  -4.800000000000001 5 0  -4.9 5 0  -5 4.9 0  -5 4.8 0  -5 4.7 0  -5 4.6 0  -5 4.5 0  -5 4.4 0  -5 4.3 0  -5 4.2 0  -5 4.1 0  -5 4 0  -5 3.9 0  -5 3.8 0  -5 3.7 0  -5 3.6 0  -5 3.5 0  -5 3.4 0  -5 3.3 0  -5 3.2 0  -5 3.1 0  -5 3 0  -5 2.9 0  -5 2.8 0  -5 2.7 0  -5 2.6 0  -5 2.5 0  -5 2.4 0  -5 2.3 0  -5 2.2 0  -5 2.1 0  -5 2 0  -5 1.9 0  -5 1.8 0  -5 1.7 0  -5 1.6 0  -5 1.5 0  -5 1.4 0  -5 1.3 0  -5 1.2 0  -5 1.1 0  -5 1 0  -5 0.9000000000000004 0  -5 0.7999999999999998 0  -5 0.7000000000000002 0  -5 0.5999999999999996 0  -5 0.5 0  -5 0.4000000000000004 0  -5 0.2999999999999998 0  -5 0.2000000000000002 0  -5 0.09999999999999964 0  -5 0 0  -5 -0.09999999999999964 0  -5 -0.2000000000000002 0  -5 -0.2999999999999998 0  -5 -0.4000000000000004 0  -5 -0.5 0  -5 -0.5999999999999996 0  -5 -0.7000000000000002 0  -5 -0.7999999999999998 0  -5 -0.9000000000000004 0  -5 -1 0  -5 -1.1 0  -5 -1.2 0  -5 -1.3 0  -5 -1.4 0  -5 -1.5 0  -5 -1.6 0  -5 -1.7 0  -5 -1.8 0  -5 -1.9 0  -5 -2 0  -5 -2.1 0  -5 -2.2 0  -5 -2.3 0  -5 -2.4 0  -5 -2.5 0  -5 -2.6 0  -5 -2.7 0  -5 -2.8 0  -5 -2.9 0  -5 -3 0  -5 -3.1 0  -5 -3.199999999999999 0  -5 -3.300000000000001 0  -5 -3.4 0  -5 -3.5 0  -5 -3.6 0  -5 -3.699999999999999 0  -5 -3.800000000000001 0  -5 -3.9 0  -5 -4 0  -5 -4.1 0  -5 -4.199999999999999 0  -5 -4.300000000000001 0  -5 -4.4 0  -5 -4.5 0  -5 -4.6 0  -5 -4.699999999999999 0  -5 -4.800000000000001 0  -5 -4.9 0  1.256107315289402 0.09335649891625548 0  1.23396322338133 0.1911833854513106 0  1.200246416505505 0.2878868750284498 0  1.157513569856896 0.3762437955427331 0  1.098928404773511 0.4673420541630757 0  1.032443783954256 0.5509141052576993 0  0.9538004142238967 0.6313503986031676 0  0.8665063437628439 0.7062935624132268 0  0.7746674863644746 0.771570804423107 0  0.6726471310732091 0.8290119274249225 0  0.5594174161102056 0.8812463193046879 0  0.4460223337334145 0.9261947781582359 0  0.3350009385918882 0.9578696492642145 0  0.2087940649078472 0.9801584114313521 0  0.08781996068900827 0.9987933544476817 0  -0.02640833599987463 1.002293491746254 0  -0.1440833718517678 0.9885722708671828 0  -0.2736711592789701 0.9688338744795121 0  -0.3936920268067608 0.9446888428784571 0  -0.503381426725212 0.9094084897205533 0  -0.613013608043565 0.8629701792398358 0  -0.7150077279572005 0.8079177485896674 0  -0.8095285955822966 0.7433508802928555 0  -0.9011368031662025 0.6695385743973592 0  -0.9876851064860561 0.5892489460783724 0  -1.062643358861587 0.5076597396822917 0  -1.124759671946413 0.42317146820809 0  -1.179692759907081 0.3295998152078323 0  -1.217176590157575 0.2424660197961875 0  -1.241555601325421 0.1486610250190783 0  -1.251910326809003 0.05249238018333782 0  -1.251864747035268 -0.05018324224372285 0  -1.241466468717505 -0.1456274926384674 0  -1.216798240556531 -0.236644844563603 0  -1.174638716543256 -0.3318229393448144 0  -1.125060627983869 -0.4241647871865763 0  -1.064694982741688 -0.5075352764611707 0  -0.9902322846296753 -0.5882700369921541 0  -0.9042961264290628 -0.6675134827047312 0  -0.8135292998874298 -0.7389735796523349 0  -0.7181258004018721 -0.7996821032990812 0  -0.6134371544666447 -0.8530010376733645 0  -0.4978016952990358 -0.9027241293580309 0  -0.3853050902499327 -0.9426526274822085 0  -0.2703369600643868 -0.9686815267085814 0  -0.1423835277997712 -0.9886043358789648 0  -0.02755484035146913 -1.001536240518449 0  0.08637926442323546 -0.9941227261110359 0  0.2152271701028873 -0.9761395348046508 0  0.3379004803901033 -0.956080077319821 0  0.4502253666238926 -0.9248706467789474 0  0.5621167734109256 -0.8804772523514429 0  0.6738954683737137 -0.8288773122962571 0  0.7744873518050659 -0.7727549542663655 0  0.8658929456004746 -0.7078182370694457 0  0.951782245061141 -0.6319664456948749 0  1.029997908419287 -0.5495785534634255 0  1.10045558155906 -0.4657679869491648 0  1.158349960770989 -0.376600706927283 0  1.202049099933051 -0.2859633830308942 0  1.23469290269157 -0.1905095823707198 0  1.256522863816911 -0.09340508408996391 0  -2.4485250651301 4.918049387270099 0  -2.448395731734613 -4.91042165232043 0  4.910343471670351 2.447842369453136 0  4.918477028262338 -2.449308872891494 0  2.446119116220465 -4.895640694563885 0  2.440554001845815 4.899406039382027 0  -4.910370808088881 -2.447869350209216 0  -4.910368106336709 2.447873484614194 0  -1.74847768519686 4.910908148749773 0  -1.744265621616692 -4.914353255252091 0  4.920499826187292 1.744022168680642 0  4.909014623668921 -1.747776607598063 0  -4.909309635146953 -1.747511415129917 0  -4.910133227025487 1.747257100974174 0  1.745747693526387 4.904756436487652 0  1.747156041048464 -4.892886878286448 0  -1.148796297660798 4.908668440094943 0  -1.129656883223248 -4.91659659459897 0  -4.908991945546244 -1.147849559850983 0  -4.908809878005162 1.14765029227366 0  1.143793572703981 -4.9127744339173 0  1.148805960611963 4.908654581873394 0  4.909131033724657 1.146124336259344 0  4.919986901868191 -1.151915776848892 0  -0.5466450165282702 -4.909844969195721 0  -0.5464304212340918 4.918546870899569 0  -4.90769611512273 -0.5486649458042949 0  -4.907720093238615 0.5472232602640684 0  4.907012330046439 -0.5489829331942072 0  4.918699654225705 0.5457456474749407 0  0.5424252086843415 -4.896695389863568 0  0.5511578945941524 4.915362859744249 0  -4.911824731727668 -3.048236587930957 0  4.918400499457176 3.04625641622955 0  4.91133200039417 -3.048211560685364 0  -4.912673049324343 3.045328789068277 0  3.05525534325696 -4.917322107617088 0  -3.048582627820408 -4.911253310366794 0  3.052151007920559 4.913332361978103 0  -3.048028763776805 4.912143831339226 0  -4.906793613457689 -0.0499033021604433 0  0.0451183815729714 -4.91179357307182 0  0.04956538988941026 4.918835612028728 0  4.913866625045017 -0.05128602525983569 0  3.545583467651948 -4.918984543660296 0  -3.548860843986085 4.91188
[...]
<PointData  Vectors="f_6130"> 
<DataArray  type="Float64"  Name="f_6130"  NumberOfComponents="3" format="ascii">1.1475850030015182e-40 7.5212154084690288e-41 0.0000000000000000e+00  -6.3534981192322264e-41 4.8344812799950720e-41 0.0000000000000000e+00  -4.1916656326366330e-41 -3.6232424183983156e-41 0.0000000000000000e+00  6.9321547755881098e-41 -4.4885503454048645e-41 0.0000000000000000e+00  1.1232386072222905e+01 -3.0634607479358783e-02 0.0000000000000000e+00  -1.9114555920940653e-40 -1.3271975389495759e-40 0.0000000000000000e+00  4.2028418764249502e-40 2.8430699664176787e-40 0.0000000000000000e+00  -1.3641404014433657e-39 -9.0568382840380548e-40 0.0000000000000000e+00  -2.2210582507335616e-39 -1.8227133051346286e-39 0.0000000000000000e+00  -3.3805366812208660e-39 -1.9936629964373622e-39 0.0000000000000000e+00  -4.2953334054372451e-38 -2.2278943143477089e-38 0.0000000000000000e+00  1.8187805889629623e-38 -2.5823687647268849e-38 0.0000000000000000e+00  -9.6807720885124277e-37 -8.2787876453341967e-37 0.0000000000000000e+00  9.5198788211402463e-36 9.3456691978478462e-36 0.0000000000000000e+00  -2.8904992559694494e-35 -3.2379915002262499e-35 0.0000000000000000e+00  4.0534428714742756e-35 7.0546075782890028e-35 0.0000000000000000e+00  -9.7592673329011395e-35 -2.0290454080423063e-34 0.0000000000000000e+00  -6.7832151768444211e-35 -1.9968312066714689e-34 0.0000000000000000e+00  1.6471180433804987e-33 2.3948954330073635e-33 0.0000000000000000e+00  -9.7616078263951760e-33 -1.3224990105222814e-32 0.0000000000000000e+00  4.5749603089407804e-32 6.2867354914430855e-32 0.0000000000000000e+00  -1.0482451377816894e-31 -1.4687890897708284e-31 0.0000000000000000e+00  -1.1412843435156659e-31 -1.1624443669786378e-31 0.0000000000000000e+00  7.5343209899313270e-31 8.0908851784328807e-31 0.0000000000000000e+00  5.8342750112033352e-32 3.1445748393865292e-31 0.0000000000000000e+00  -4.3237595502341793e-31 -7.8367216113252194e-32 0.0000000000000000e+00  -5.9382297048949383e-31 -1.2496804239463641e-30 0.0000000000000000e+00  1.0855163040001630e-30 7.7576381324788204e-30 0.0000000000000000e+00  -4.9258144479516787e-30 -1.8401642434106659e-29 0.0000000000000000e+00  -2.4690859406018513e-30 -8.7808129582333928e-30 0.0000000000000000e+00  2.6194517137943136e-29 5.8136699874781661e-29 0.0000000000000000e+00  1.3459686220653438e-29 5.7781028032170226e-29 0.0000000000000000e+00  5.6941597898223104e-30 5.0315120750838715e-29 0.0000000000000000e+00  -1.0839780468403731e-29 -2.2435804388872525e-29 0.0000000000000000e+00  4.1166585135115855e-30 2.6472178550017069e-28 0.0000000000000000e+00  -5.7980723071999373e-29 -4.9676530834314225e-28 0.0000000000000000e+00  -2.3057771222898386e-29 -3.3372520691415550e-28 0.0000000000000000e+00  -3.2651016580562604e-29 -1.5123141731052310e-28 0.0000000000000000e+00  -5.7848465171257716e-29 4.2138945613571926e-28 0.0000000000000000e+00  -2.1862211856736844e-30 6.3413079106689955e-28 0.0000000000000000e+00  2.4662826589468642e-28 6.9655104465152922e-28 0.0000000000000000e+00  3.3103110889332839e-28 3.4586468787594625e-28 0.0000000000000000e+00  2.6534000998732331e-28 3.3342299328159944e-28 0.0000000000000000e+00  1.9606927864335649e-28 4.2175960115097722e-28 0.0000000000000000e+00  1.1516382466572700e-28 5.3159282007816269e-29 0.0000000000000000e+00  -5.5215835728358211e-28 -5.1321744171576041e-28 0.0000000000000000e+00  -3.0403904868519851e-28 1.1673979965079619e-28 0.0000000000000000e+00  2.5354993063249216e-28 6.4313407007476072e-29 0.0000000000000000e+00  -9.8955027420147936e-29 1.7267632099279173e-27 0.0000000000000000e+00  -2.3820783128333662e-28 -2.2369819100482068e-28 0.0000000000000000e+00  -4.7759183069787248e-28 -2.0785445438771654e-27 0.0000000000000000e+00  -5.3395512566883421e-28 -1.2944769791813485e-27 0.0000000000000000e+00  -3.0919725568749211e-28 -1.8152898760125089e-27 0.0000000000000000e+00  5.8203678687761156e-29 -4.2520218651339181e-27 0.0000000000000000e+00  1.3580754440290766e-28 -4.8401080850786934e-27 0.0000000000000000e+00  -6.2610034205194900e-29 -8.4449033953427362e-28 0.0000000000000000e+00  -9.7580894308530578e-29 -2.7478856298629956e-27 0.0000000000000000e+00  -1.1641251123595327e-28 -1.1378752640315148e-27 0.0000000000000000e+00  -6.1632924791155499e-29 -1.8515834942464618e-27 0.0000000000000000e+00  -1.1644625437017214e-28 7.2365027616439781e-28 0.0000000000000000e+00  2.7517622852135783e-29 -2.5785162031472073e-27 0.0000000000000000e+00  1.1595663687901306e-28 -2.3991821030776797e-27 0.0000000000000000e+00  -5.4002401617127850e-29 4.3616139897893562e-28 0.0000000000000000e+00  -2.2805893300842788e-28 3.4068943193654983e-27 0.0000000000000000e+00  -1.2153986283628012e-28 1.3793259547202459e-27 0.0000000000000000e+00  -9.4233782077152031e-29 7.7306107729381815e-28 0.0000000000000000e+00  -2.0771073729891508e-28 2.0170790569731516e-27 0.0000000000000000e+00  -1.2151901890020802e-28 1.0402023949336913e-27 0.0000000000000000e+00  1.2613932546423997e-28 -1.2500505517594068e-27 0.0000000000000000e+00  8.2968822559905418e-29 -5.9284850692031412e-28 0.0000000000000000e+00  1.7581452663624839e-29 -2.1220962070451631e-29 0.0000000000000000e+00  9.3759084264927823e-29 -2.7165344047020425e-28 0.0000000000000000e+00  5.2769693177851365e-29 -2.6264839238113413e-28 0.0000000000000000e+00  -4.4501985165803050e-29 2.4581541788941732e-28 0.0000000000000000e+00  -2.6946474807136756e-30 9.7253626854539080e-29 0.0000000000000000e+00  -1.0027645172035940e-29 2.9266568688372082e-29 0.0000000000000000e+00  2.1592734708119628e-31 -5.4005910581699274e-29 0.0000000000000000e+00  2.0781551681141568e-30 2.2032404780534908e-29 0.0000000000000000e+00  -1.4151696945868443e-30 2.7984652983733516e-29 0.0000000000000000e+00  5.5400502124709527e-30 -1.2977326972745078e-29 0.0000000000000000e+00  1.0664987293609096e-29 -3.3066910300211039e-29 0.0000000000000000e+00  -1.6082427411964893e-30 4.7406607732849910e-30 0.0000000000000000e+00  -8.9485997838961649e-31 2.6451478782605449e-30 0.0000000000000000e+00  3.7985446778805783e-30 -7.4427217353041360e-30 0.0000000000000000e+00  4.8973222296053751e-31 -6.7572909251640674e-31 0.0000000000000000e+00  -5.0611809780962396e-31 8.3543216886637162e-31 0.0000000000000000e+00  2.3984627350328527e-31 -3.8567115539962090e-31 0.0000000000000000e+00  -2.8031844182871777e-32 4.5347692704508250e-32 0.0000000000000000e+00  3.2117976891642440e-33 -5.3817305548442343e-33 0.0000000000000000e+00  -5.4175069368585607e-35 4.8670677730792429e-34 0.0000000000000000e+00  -1.7189430448720159e-33 1.8089456534603420e-33 0.0000000000000000e+00  -1.7775192237560625e-34 2.4033373200283811e-34 0.0000000000000000e+00  1.6100561975807916e-34 -1.9055661348404248e-34 0.0000000000000000e+00  -2.8040274735665076e-35 3.6808902688498493e-35 0.0000000000000000e+00  1.2976980770573896e-35 -1.3744377764245680e-35 0.0000000000000000e+00  -1.4573322455212825e-36 1.5744658199176667e-36 0.0000000000000000e+00  -4.1975785698904482e-37 3.5771013788457414e-37 0.0000000000000000e+00  7.2727295592126117e-38 -7.8191638282891130e-38 0.0000000000000000e+00  -5.0476559695619069e-38 4.4852099585676979e-38 0.0000000000000000e+00  1.8357349550820033e-38 -1.5101286320742154e-38 0.0000000000000000e+00  -2.0041827821027600e-39 1.2405040469432874e-39 0.0000000000000000e+00  6.4564981209197012e-40 -5.5305688334599710e-40 0.0000000000000000e+00  -2.1256848488495026e-40 1.7031074512663379e-40 0.0000000000000000e+00  1.0381358738274721e-40 -7.4637699815384108e-41 0.0000000000000000e+00  1.6666033556995662e-41 -1.7757660080041415e-41 0.0000000000000000e+00  1.7472835403145882e-40 -1.3522530748790446e-40 0.0000000000000000e+00  -3.7715269552295039e-40 2.7453237944153783e-40 0.0000000000000000e+00  1.0137341968203718e-40 -2.6895168732044669e-40 0.0000000000000000e+00  2.4716756636008941e-39 -1.0753486856641900e-39 0.0000000000000000e+00  -9.3156552243919783e-39 5.4090815055692988e-39 0.0000000000000000e+00  1.4931078243875506e-38 -1.1038062751377905e-38 0.0000000000000000e+00  1.4393922034233780e-38 4.5036488528924744e-40 0.0000000000000000e+00  -1.5176428946127798e-37 7.2184528404690737e-38 0.0000000000000000e+00  4.0468335227262115e-37 -2.3623036453418892e-37 0.0000000000000000e+00  -2.2322172093046675e-37 2.3784403462560971e-37 0.0000000000000000e+00  -1.9371679844802220e-36 7.9572801899442786e-37 0.0000000000000000e+00  6.8124694514231845e-36 -3.6432943364670393e-36 0.0000000000000000e+00  -7.8559490750041369e-36 5.5237232944566901e-36 0.0000000000000000e+00  -2.1713728543753180e-35 8.2576304022898021e-36 0.0000000000000000e+00  1.0393060142652478e-34 -5.4563540339725631e-35 0.0000000000000000e+00  -1.2464549328888855e-34 8.0918680285005413e-35 0.0000000000000000e+00  -2.9635313602385894e-34 1.2681544563184538e-34 0.0000000000000000e+00  1.3979391530785222e-33 -7.5576206842320757e-34 0.0000000000000000e+00  -1.2325540729371325e-33 8.0715792362237846e-34 0.0000000000000000e+00  -5.1845291697067919e-33 2.6262770413449309e-33 0.0000000000000000e+00  1.6170623320892462e-32 -9.1284451177059427e-33 0.0000000000000000e+00  -3.0361084610671401e-34 9.3012605890445101e-34 0.0000000000000000e+00  -8.4156916262789028e-32 4.7173865994706691e-32 0.0000000000000000e+00  1.2620666599678722e-31 -7.1326729779704309e-32 0.0000000000000000e+00  2.5033102068183168e-31 -1.4810167500477208e-31 0.0000000000000000e+00  -8.6762834999645471e-31 4.8693124207633546e-31 0.0000000000000000e+00  -2.6179643069603505e-31 2.3423695481316851e-31 0.0000000000000000e+00  4.3269193968261155e-30 -2.4605275489160901e-30 0.0000000000000000e+00  -2.2923746459770884e-30 6.0161406733125469e-31 0.0000000000000000e+00  -1.8052309646696855e-29 1.0455068283579799e-29 0.0000000000000000e+00  2.0055891595765849e-29 -6.5424124136182855e-30 0.0000000000000000e+00  6.9795055727598555e-29 -4.0871778795400845e-29 0.0000000000000000e+00  -1.0939091102904962e-28 3.2078458924482318e-29 0.0000000000000000e+00  -2.8149324571762730e-28 1.5568651883216558e-28 0.0000000000000000e+00  4.9626467692142395e-28 -1.1626590628539180e-28 0.0000000000000000e+00  1.1899793119547182e-27 -5.7282859387748186e-28 0.0000000000000000e+00  -2.0390330712212668e-27 3.9907898697437566e-28 0.0000000000000000e+00  -5.8966741067775348e-27 2.2668305541062287e-27 0.0000000000000000e+00  5.9342617554652473e-27 -4.9665358241406710e-28 0.0000000000000000e+00  2.5066090320804505e-26 -7.5542736120989612e-27 0.0000000000000000e+00  7.6854603752389881e-27 -7.7281715034298766e-27 0.0000000000000000e+00  -6.9080535828335153e-26 7.6460797973615295e-27 0.0000000000000000e+00  -8.5088110028722477e-26 1.2576050448514687e-26 0.0000000000000000e+00  1.5416360528073290e-25 -3.6145131239522377e-26 0.0000000000000000e+00  6.8736598673476857e-25 -1.4362046807143758e-25 0.0000000000000000e+00  1.1140695492921061e-24 -2.2266933159813223e-25 0.0000000000000000e+00  1.1429635727580061e-24 -2.1224494736825029e-25 0.0000000000000000e+00  8.5313723878711523e-25 -1.1691930717155978e-25 0.0000000000000000e+00  7.0010161886222453e-25 -1.2322769466114895e-27 0.0000000000000000e+00  8.3965174597737743e-25 9.7370289034342980e-26 0.0000000000000000e+00  9.7576968627544173e-25 1.4812665653505250e-25 0.0000000000000000e+00  8.0514324347464339e-25 1.3063106380405698e-25 0.0000000000000000e+00  3.7062522459105681e-25 5.8552723097663875e-26 0.0000000000000000e+00  1.7679188676514071e-26 -5.5327433427843230e-27 0.0000000000000000e+00  -8.8101171334664311e-26 -2.1752234840189516e-26 0.0000000000000000e+00  -2.7457142427178528e-26 -2.7298855437612533e-27 0.0000000000000000e+00  2.5474390967629694e-26 1.0944733327381602e-26 0.0000000000000000e+00  2.0579305185482986e-26 7.1798281071929159e-27 0.0000000000000000e+00  3.6716757707226293e-28 -1.6729775786918080e-28 0.0000000000000000e+00  -4.4493739798379602e-27 -1.6067544082746268e-27 0.0000000000000000e+00  -6.7889213540613694e-28 -1.1789270836600648e-28 0.0000000000000000e+00  9.9785518746935404e-28 4.1626444029338541e-28 0.0000000000000000e+00  1.7609787767792146e-28 3.1426194263962513e-29 0.0000000000000000e+00  -2.4103610720074488e-28 -1.1445456480900730e-28 0.0000000000000000e+00  -3.3273271743284585e-29 -5.5807754566875946e-30 0.0000000000000000e+00  5.7633919509342459e-29 2.9201721024278253e-29 0.0000000000000000e+00  2.4145296942765527e-30 -8.4533929375318557e-31 0.0000000000000000e+00  -1.3140263430554683e-29 -6.7671494846072352e-30 0.0000000000000000e+00  9.7172042954195673e-31 8.7337288535262860e-31 0.0000000000000000e+00  2.5861359431751141e-30 1.3143428987762214e-30 0.0000000000000000e+00  -6.6584562015312998e-31 -4.1137085188715061e-31 0.0000000000000000e+00  -4.1409493858672033e-31 -2.0157968409850590e-31 0.0000000000000000e+00  2.2778693273270371e-31 1.2824411812128791e-31 0.0000000000000000e+00  2.7290066995532659e-32 9.5556945529465464e-33 0.0000000000000000e+00  -5.3598902580924799e-32 -2.8549595221616639e-32 0.0000000000000000e+00  9.1025555203291762e-33 5.7395489200177225e-33 0.0000000000000000e+00  8.4921085997141531e-33 4.2424465787950041e-33 0.0000000000000000e+00  -4.6464084531946268e-33 -2.5303031736455484e-33 0.0000000000000000e+00  -7.5967391025738901e-35 1.6720644152071654e-35 0.0000000000000000e+00  8.7309576446530748e-34 4.5551010080226163e-34 0.0000000000000000e+00  -3.2468340381506950e-34 -1.7690593018427949e-34 0.0000000000000000e+00  -3.5937063657588380e-35 -1.7109241471059859e-35 0.0000000000000000e+00  7.4198486131165747e-35 3.9533809178977718e-35 0.0000000000000000e+00  -2.4824425383478543e-35 -1.3379733879369168e-35 0.0000000000000000e+00  -1.9614249871375128e-36 -1.1194097162331841e-36 0.0000000000000000e+00  4.9731958692837839e-36 2.7371414726468512e-36 0.0000000000000000e+00  -1.8911433679044665e-36 -1.0261347052027758e-36 0.0000000000000000e+00  5.2327661446245867e-38 1.1830413290394459e-38 0.0000000000000000e+00  2.7497826866880395e-37 1.6117159495432163e-37 0.0000000000000000e+00  -1.3726543303886815e-37 -7.7994866977900400e-38 0.0000000000000000e+00  2.4097938503621130e-38 1.2362576653531016e-38 0.0000000000000000e+00  8.9659244357793432e-39 6.1275166800521113e-39 0.0000000000000000e+00  -8.1694890628507750e-39 -5.0919062708008097e-39 0.0000000000000000e+00  2.7742697491146648e-39 1.6409880098947575e-39 0.0000000000000000e+00  -2.1937300939074228e-40 -7.2338942849170574e-41 0.0000000000000000e+00  -2.8347895447290383e-40 -2.0998695314809840e-40 0.0000000000000000e+00  1.6480635250891775e-40 1.1224191424079041e-40 0.0000000000000000e+00  -6.2569003658406758e-41 -4.0927845507722257e-41 0.0000000000000000e+00  9.7872928944783513e-41 7.9810585513417483e-41 0.0000000000000000e+00  8.8880386798689167e-41 5.4759490074038420e-41 0.0000000000000000e+00  -1.4693915635830541e-40 -1.1820715426759078e-40 0.0000000000000000e+00  3.0063225545295282e-39 2.2067536724469900e-39 0.0000000000000000e+00  -4.7823882347939409e-39 -1.6204029065292149e-39 0.0000000000000000e+00  1.5306920560976315e-38 9.7287828620582333e-40 0.0000000000000000e+00  -9.2712999750973541e-38 -5.4345814247663951e-38 0.0000000000000000e+00  6.1856092836815787e-37 3.9585602210561633e-37 0.0000000000000000e+00  -1.6778896270007598e-36 -1.4806996263661826e-36 0.0000000000000000e+00  3.7492495565978616e-36 4.5064916527815013e-36 0.0000000000000000e+00  1.5362269232106964e-35 1.0780724377788108e-35 0.0000000000000000e+00  -1.3278008317615600e-34 -1.0447026507608698e-34 0.0000000000000000e+00  3.5324859795562754e-34 3.1585154116994310e-34 0.0000000000000000e+00  -1.0557255657537880e-33 -9.6727671951790555e-34 0.0000000000000000e+00  1.4489097901244392e-33 8.2256996590512796e-34 0.0000000000000000e+00  5.6001608893211485e-33 7.4371151745836361e-33 0.0000000000000000e+00  -2.7205598250398667e-32 -2.7774756542219369e-32 0.0000000000000000e+00  -1.0610132483189967e-31 -1.5338103907820143e-31 0.0000000000000000e+00  2.7404766285298390e-31 4.3761778118156034e-31 0.0000000000000000e+00  -3.5031878325483180e-31 -5.8281116474418151e-31 0.0000000000000000e+00  -6.0094736145178613e-31 -1.1847558142677641e-30 0.0000000000000000e+00  2.9078067228405528e-30 5.9050434277205706e-30 0.0000000000000000e+00  1.7805551074232892e-30 2.5831772460843191e-30 0.0000000000000000e+00  -9.0194901093134350e-30 -1.7582896987414033e-29 0.0000000000000000e+00  -4.2454064575130950e-31 -3.2370692806473082e-30 0.0000000000000000e+00  -9.7288318766515861e-30 -8.8373160965344388e-29 0.0000000000000000e+00  1.7956772580543366e-29 1.0305350199932583e-28 0.0000000000000000e+00  8.6939755230841502e-29 4.8659541507774512e-28 0.0000000000000000e+00  2.6334203452685535e-29 1.4621348330260077e-28 0.0000000000000000e+00  -4.6147593659129010e-29 -2.8690923663485657e-28 0.0000000000000000e+00  -1.5561587084227259e-28 -8.3190104803700982e-28 0.0000000000000000e+00  1.1198943751166948e-28 6.7008832468996517e-28 0.0000000000000000e+00  1.7528196672313241e-28 1.1482603624732450e-27 0.0000000000000000e+00  1.6261564735947280e-28 9.7495484890127708e-28 0.0000000000000000e+00  1.1224907965639165e-28 4.5726636328480219e-28 0.0000000000000000e+00  -2.5758001370560931e-28 -2.0919140503749510e-27 0.0000000000000000e+00  -2.9730298809261081e-29 -6.6559115392244095e-28 0.0000000000000000e+00  3.5656487381701417e-30 -4.0361597948019517e-28 0.0000000000000000e+00  -1.4362033999240307e-28 -1.4320581845855616e-27 0.0000000000000000e+00  -1.2788730057204118e-28 -1.3894590068759474e-27 0.0000000000000000e+00  -2.9061425289732192e-28 -1.5082432178566215e-27 0.0000000000000000e+00  -2.0896187965188436e-28 -1.2494188753407989e-29 0.0000000000000000e+00  -2.5710123221994875e-29 2.0652821983079772e-27 0.0000000000000000e+00  -1.1310719951621821e-28 4.5205616681383171e-28 0.0000000000000000e+00  -1.1846167677535744e-28 -1.6885289387449512e-27 0.0000000000000000e+00  -1.1774505166178211e-28 1.1204248906434114e-27 0.0000000000000000e+00  -1.2680383606277846e-28 1.1161813119486500e-27 0.0000000000000000e+00  -1.1411366846395534e-28 -4.4709160658984320e-28 0.0000000000000000e+00  -1.2085744409023673e-28 2.9230304366822932e-28 0.0000000000000000e+00  -1.0504575375050067e-28 3.4035225902407348e-29 0.0000000000000000e+00  -1.7268914481854682e-28 9.9330800863098995e-28 0.0000000000000000e+00  -1.6683757465542677e-28 1.0057604890458563e-27 0.0000000000000000e+00  -8.5776896253173003e-29 2.2874439018677711e-28 0.0000000000000000e+00  -1.1232617920591555e-28 5.6077403647001825e-28 0.0000000000000000e+00  -9.5640868282685991e-30 -2.3015478150765357e-29 0.0000000000000000e+00  -2.4317926397854723e-28 1.3602276949963171e-27 0.0000000000000000e+00  -1.7321086341643731e-28 9.1806861505790366e-28 0.0000000000000000e+00  -1.8984276385433344e-28 1.1180756508623406e-27 0.0000000000000000e+00  -1.4966952469009726e-28 8.3086973785892450e-28 0.0000000000000000e+00  7.1215513133726423e-30 2.1281620573825016e-29 0.0000000000000000e+00  -1.0561400486453443e-28 6.9476141794762546e-28 0.0000000000000000e+00  5.5802353075375369e-30 1.3032320213517833e-28 0.0000000000000000e+00  3.3680236432355676e-29 -1.7908796764623568e-28 0.0000000000000000e+00  8.2871521443067438e-29 -6.3018539497497841e-28 0.0000000000000000e+00  -1.6687256529814155e-29 -4.2055272068781621e-29 0.0000000000000000e+00  -3.8924516913264541e-29 1.1231234247272338e-28 0.0000000000000000e+00  -2.2788687658107737e-29 1.3358108976562720e-28 0.0000000000000000e+00  -1.8289119011045387e-30 9.5370503741860046e-29 0.0000000000000000e+00  7.8535059841731689e-30 -5.6725513682923224e-29 0.0000000000000000e+00  3.0650398465712156e-29 -1.8451004756060826e-28 0.0000000000000000e+00  4.8326795791715956e-30 -2.5924262430409871e-29 0.0000000000000000e+00  -8.8836564835198731e-30 2.3746602617335225e-29 0.0000000000000000e+00  7.7017695783891950e-30 -2.4450884810557457e-29 0.0000000000000000e+00  -2.3501584833418714e-30 1.0608593244313979e-29 0.0000000000000000e+00  -3.6500614239461703e-30 1.6527838828000650e-29 0.0000000000000000e+00  2.1390427968111814e-30 -6.1245878982838752e-30 0.0000000000000000e+00  3.0875863793146455e-30 -8.7778655007097108e-30 0.0000000000000000e+00 