<?xml version="1.0"?>
<VTKFile type="UnstructuredGrid"  version="0.1"  >
<UnstructuredGrid>
<Piece  NumberOfPoints="11902" NumberOfCells="23402">
<Points>
<DataArray  type="Float64"  NumberOfComponents="3"  format="ascii">-5 -5 0  5 -5 0  5 5 0  -5 5 0  1.158913888395423 0.001062399735512838 0  -4.9 -5 0  -4.8 -5 0  -4.7 -5 0  -4.6 -5 0  -4.5 -5 0  -4.4 -5 0  -4.3 -5 0  -4.2 -5 0  -4.1 -5 0  -4 -5 0  -3.9 -5 0  -3.8 -5 0  -3.7 -5 0  -3.6 -5 0  -3.5 -5 0  -3.4 -5 0  -3.3 -5 0  -3.2 -5 0  -3.1 -5 0  -3 -5 0  -2.9 -5 0  -2.8 -5 0  -2.7 -5 0  -2.6 -5 0  -2.5 -5 0  -2.4 -5 0  -2.3 -5 0  -2.2 -5 0  -2.1 -5 0  -2 -5 0  -1.9 -5 0  -1.8 -5 0  -1.7 -5 0  -1.6 -5 0  -1.5 -5 0  -1.4 -5 0  -1.3 -5 0  -1.2 -5 0  -1.1 -5 0  -1 -5 0  -0.9000000000000004 -5 0  -0.7999999999999998 -5 0  -0.7000000000000002 -5 0  -0.5999999999999996 -5 0  -0.5 -5 0  -0.4000000000000004 -5 0  -0.2999999999999998 -5 0  -0.2000000000000002 -5 0  -0.09999999999999964 -5 0  0 -5 0  0.09999999999999964 -5 0  0.2000000000000002 -5 0  0.2999999999999998 -5 0  0.4000000000000004 -5 0  0.5 -5 0  0.5999999999999996 -5 0  0.7000000000000002 -5 0  0.7999999999999998 -5 0  0.9000000000000004 -5 0  1 -5 0  1.1 -5 0  1.2 -5 0  1.3 -5 0  1.4 -5 0  1.5 -5 0  1.6 -5 0  1.7 -5 0  1.8 -5 0  1.9 -5 0  2 -5 0  2.1 -5 0  2.2 -5 0  2.3 -5 0  2.4 -5 0  2.5 -5 0  2.6 -5 0  2.7 -5 0  2.8 -5 0  2.9 -5 0  3 -5 0  3.1 -5 0  3.199999999999999 -5 0  3.300000000000001 -5 0  3.4 -5 0  3.5 -5 0  3.6 -5 0  3.699999999999999 -5 0  3.800000000000001 -5 0  3.9 -5 0  4 -5 0  4.1 -5 0  4.199999999999999 -5 0  4.300000000000001 -5 0  4.4 -5 0  4.5 -5 0  4.6 -5 0  4.699999999999999 -5 0  4.800000000000001 -5 0  4.9 -5 0  5 -4.9 0  5 -4.8 0  5 -4.7 0  5 -4.6 0  5 -4.5 0  5 -4.4 0  5 -4.3 0  5 -4.2 0  5 -4.1 0  5 -4 0  5 -3.9 0  5 -3.8 0  5 -3.7 0  5 -3.6 0  5 -3.5 0  5 -3.4 0  5 -3.3 0  5 -3.2 0  5 -3.1 0  5 -3 0  5 -2.9 0  5 -2.8 0  5 -2.7 0  5 -2.6 0  5 -2.5 0  5 -2.4 0  5 -2.3 0  5 -2.2 0  5 -2.1 0  5 -2 0  5 -1.9 0  5 -1.8 0  5 -1.7 0  5 -1.6 0  5 -1.5 0  5 -1.4 0  5 -1.3 0  5 -1.2 0  5 -1.1 0  5 -1 0  5 -0.9000000000000004 0  5 -0.7999999999999998 0  5 -0.7000000000000002 0  5 -0.5999999999999996 0  5 -0.5 0  5 -0.4000000000000004 0  5 -0.2999999999999998 0  5 -0.2000000000000002 0  5 -0.09999999999999964 0  5 0 0  5 0.09999999999999964 0  5 0.2000000000000002 0  5 0.2999999999999998 0  5 0.4000000000000004 0  5 0.5 0  5 0.5999999999999996 0  5 0.7000000000000002 0  5 0.7999999999999998 0  5 0.9000000000000004 0  5 1 0  5 1.1 0  5 1.2 0  5 1.3 0  5 1.4 0  5 1.5 0  5 1.6 0  5 1.7 0  5 1.8 0  5 1.9 0  5 2 0  5 2.1 0  5 2.2 0  5 2.3 0  5 2.4 0  5 2.5 0  5 2.6 0  5 2.7 0  5 2.8 0  5 2.9 0  5 3 0  5 3.1 0  5 3.199999999999999 0  5 3.300000000000001 0  5 3.4 0  5 3.5 0  5 3.6 0  5 3.699999999999999 0  5 3.800000000000001 0  5 3.9 0  5 4 0  5 4.1 0  5 4.199999999999999 0  5 4.300000000000001 0  5 4.4 0  5 4.5 0  5 4.6 0  5 4.699999999999999 0  5 4.800000000000001 0  5 4.9 0  4.9 5 0  4.8 5 0  4.7 5 0  4.6 5 0  4.5 5 0  4.4 5 0  4.3 5 0  4.2 5 0  4.1 5 0  4 5 0  3.9 5 0  3.8 5 0  3.7 5 0  3.6 5 0  3.5 5 0  3.4 5 0  3.3 5 0  3.2 5 0  3.1 5 0  3 5 0  2.9 5 0  2.8 5 0  2.7 5 0  2.6 5 0  2.5 5 0  2.4 5 0  2.3 5 0  2.2 5 0  2.1 5 0  2 5 0  1.9 5 0  1.8 5 0  1.7 5 0  1.6 5 0  1.5 5 0  1.4 5 0  1.3 5 0  1.2 5 0  1.1 5 0  1 5 0  0.9000000000000004 5 0  0.7999999999999998 5 0  0.7000000000000002 5 0  0.5999999999999996 5 0  0.5 5 0  0.4000000000000004 5 0  0.2999999999999998 5 0  0.2000000000000002 5 0  0.09999999999999964 5 0  0 5 0  -0.09999999999999964 5 0  -0.2000000000000002 5 0  -0.2999999999999998 5 0  -0.4000000000000004 5 0  -0.5 5 0  -0.5999999999999996 5 0  -0.7000000000000002 5 0  -0.7999999999999998 5 0  -0.9000000000000004 5 0  -1 5 0  -1.1 5 0  -1.2 5 0  -1.3 5 0  -1.4 5 0  -1.5 5 0  -1.6 5 0  -1.7 5 0  -1.8 5 0  -1.9 5 0  -2 5 0  -2.1 5 0  -2.2 5 0  -2.3 5 0  -2.4 5 0  -2.5 5 0  -2.6 5 0  -2.7 5 0  -2.8 5 0  -2.9 5 0  -3 5 0  -3.1 5 0  -3.199999999999999 5 0  -3.300000000000001 5 0  -3.4 5 0  -3.5 5 0  -3.6 5 0  -3.699999999999999 5 0  -3.800000000000001 5 0  -3.9 5 0  -4 5 0  -4.1 5 0  -4.199999999999999 5 0  -4.300000000000001 5 0  -4.4 5 0  -4.5 5 0  -4.6 5 0  -4.699999999999999 5 0  -4.800000000000001 5 0  -4.9 5 0  -5 4.9 0  -5 4.8 0  -5 4.7 0  -5 4.6 0  -5 4.5 0  -5 4.4 0  -5 4.3 0  -5 4.2 0  -5 4.1 0  -5 4 0  -5 3.9 0  -5 3.8 0  -5 3.7 0  -5 3.6 0  -5 3.5 0  -5 3.4 0  -5 3.3 0  -5 3.2 0  -5 3.1 0  -5 3 0  -5 2.9 0  -5 2.8 0  -5 2.7 0  -5 2.6 0  -5 2.5 0  -5 2.4 0  -5 2.3 0  -5 2.2 0  -5 2.1 0  -5 2 0  -5 1.9 0  -5 1.8 0  -5 1.7 0  -5 1.6 0  -5 1.5 0  -5 1.4 0  -5 1.3 0  -5 1.2 0  -5 1.1 0  -5 1 0  -5 0.9000000000000004 0  -5 0.7999999999999998 0  -5 0.7000000000000002 0  -5 0.5999999999999996 0  -5 0.5 0  -5 0.4000000000000004 0  -5 0.2999999999999998 0  -5 0.2000000000000002 0  -5 0.09999999999999964 0  -5 0 0  -5 -0.09999999999999964 0  -5 -0.2000000000000002 0  -5 -0.2999999999999998 0  -5 -0.4000000000000004 0  -5 -0.5 0  -5 -0.5999999999999996 0  -5 -0.7000000000000002 0  -5 -0.7999999999999998 0  -5 -0.9000000000000004 0  -5 -1 0  -5 -1.1 0  -5 -1.2 0  -5 -1.3 0  -5 -1.4 0  -5 -1.5 0  -5 -1.6 0  -5 -1.7 0  -5 -1.8 0  -5 -1.9 0  -5 -2 0  -5 -2.1 0  -5 -2.2 0  -5 -2.3 0  -5 -2.4 0  -5 -2.5 0  -5 -2.6 0  -5 -2.7 0  -5 -2.8 0  -5 -2.9 0  -5 -3 0  -5 -3.1 0  -5 -3.199999999999999 0  -5 -3.300000000000001 0  -5 -3.4 0  -5 -3.5 0  -5 -3.6 0  -5 -3.699999999999999 0  -5 -3.800000000000001 0  -5 -3.9 0  -5 -4 0  -5 -4.1 0  -5 -4.199999999999999 0  -5 -4.300000000000001 0  -5 -4.4 0  -5 -4.5 0  -5 -4.6 0  -5 -4.699999999999999 0  -5 -4.800000000000001 0  -5 -4.9 0  1.153286671802366 0.1000046560714058 0  1.135553154003156 0.1989022065844425 0  1.105668438148759 0.2965367095810185 0  1.066626526248496 0.3891293233931923 0  1.016214751578085 0.4800333911383652 0  0.9564571010463456 0.5654951195710671 0  0.8862997980877746 0.6452763843436446 0  0.8068206043136257 0.7181543302992254 0  0.720337174006049 0.7842087174504722 0  0.6264525899405651 0.8429757073457502 0  0.5256887752786918 0.8932383595762017 0  0.4201241657472489 0.9347470081172203 0  0.3119447731545983 0.9674000392682129 0  0.1993082412477015 0.9896982932864169 0  0.0865458377637108 1.003111035533403 0  -0.02742629009583867 1.005762051109656 0  -0.141283397026597 0.9971682633339357 0  -0.2547549009345356 0.9798987035109873 0  -0.3656412687782146 0.9532386362168035 0  -0.4722541712011976 0.9165696535170023 0  -0.5739236127484765 0.8712027233122582 0  -0.6704819248928207 0.8165313586310907 0  -0.7603082124569941 0.7539966732967293 0  -0.8430890929408924 0.6840240445005197 0  -0.9181622441038111 0.6062348100945861 0  -0.9834568203768765 0.5233281932905897 0  -1.039707694214244 0.4358432298145517 0  -1.084947072951556 0.3432552694816813 0  -1.1189692216653 0.2481795739648119 0  -1.142026978996486 0.1506453305704449 0  -1.153759804716243 0.05087431943849919 0  -1.153781095622894 -0.04949934397602383 0  -1.142048403879349 -0.1490349448624932 0  -1.120162954886253 -0.2465747857957346 0  -1.084740845596924 -0.3427561600958411 0  -1.040063153818166 -0.4345813873734858 0  -0.9842210591689473 -0.5223299940749127 0  -0.9192266868552689 -0.6048703365179143 0  -0.844242851676129 -0.6817236211271271 0  -0.7609467582560114 -0.7511223674625093 0  -0.6702396684352417 -0.8126819892829541 0  -0.5742821826955727 -0.8673247551284838 0  -0.4703297613697539 -0.9132839124714618 0  -0.3634991735032571 -0.9508969937333371 0  -0.2525720966584629 -0.978384953172197 0  -0.1399596920852124 -0.9961286901953602 0  -0.02671525586375149 -1.00509358763304 0  0.08709308239850175 -1.00154157776691 0  0.2012571575159947 -0.9879405579315539 0  0.3130022418244333 -0.9658603554991604 0  0.4227719191369211 -0.9334080446605862 0  0.5268762649510557 -0.8922432341472946 0  0.6270370255591811 -0.8423142966610623 0  0.7205696509773394 -0.7849037466029101 0  0.80696137488521 -0.7186733287396364 0  0.885886225397815 -0.644714973817306 0  0.955417837212996 -0.5647722849149716 0  1.016245866919601 -0.4795481474009047 0  1.067715974507532 -0.3892361731166471 0  1.10686882267211 -0.2955420385826808 0  1.135698069384185 -0.1982168306093808 0  1.153300301559681 -0.09961779039615712 0  -2.448964977554669 4.918857357252455 0  -2.448875085440231 -4.911303031419659 0  4.911246106125158 2.448474066502771 0  4.919296192245937 -2.449883053493028 0  2.446676683052469 -4.896675895667951 0  2.441093499409715 4.900407550702473 0  -4.911266459844427 -2.448494158350165 0  -4.91126568323532 2.448497953785139 0  -1.748933235605902 4.912074284512711 0  -1.74470182578341 -4.915472982809574 0  4.921640807351251 1.744594273020801 0  4.910317416690257 -1.748432061619603 0  -4.910598570979588 -1.748157458903347 0  -4.911412614436745 1.747896092432288 0  1.746231984433251 4.906009765250357 0  1.747698414282045 -4.894293828411708 0  -1.14915930829965 4.910082969165143 0  -1.129983657463645 -4.917890093393713 0  -4.91060637521313 -1.148381465913508 0  -4.910429349434445 1.148181249618267 0  1.144133340817707 -4.91412820942544 0  1.149165432459679 4.910073434812883 0  4.910758151490273 1.146660481795147 0  4.921416342849396 -1.152389629433885 0  -0.5468345423057788 -4.911383330664933 0  -0.5466011122353472 4.919940576403322 0  -4.90957253407967 -0.5489608074471154 0  -4.909597383500698 0.5475157284824307 0  4.908919412201939 -0.5492840291489816 0  4.920367956073291 0.54600692874005 0  0.5426328016495803 -4.898462537494793 0  0.5513325734002571 4.916812369169262 0  -4.912428692896788 -3.048752714511422 0  4.91896394870481 3.046739362856147 0  4.911942548810685 -3.048735870240507 0  -4.913273897017434 3.045840603594297 0  3.055647207044025 -4.917913135225863 0  -3.049004003517795 -4.911885275840015 0  3.052563358055933 4.913953592337708 0  -3.048447338140516 4.91277073860972 0  -4.908768087819074 -0.04993289611935206 0  0.0451300922209186 -4.913344199803768 0  0.04957897097459283 4.920266007663709 0  4.91570741651499 -0.05131338990791096 0  3.545893581784403 -4.9193977428573 0  -3.549198015350065 4.912326
[...]
<PointData  Vectors="f_1658"> 
<DataArray  type="Float64"  Name="f_1658"  NumberOfComponents="3" format="ascii">-1.4747033029666074e-40 -1.5514328514193082e-40 0.0000000000000000e+00  1.8240448927336653e-40 -1.8689334853659362e-40 0.0000000000000000e+00  -2.3070833398371088e-40 -2.3013579041888116e-40 0.0000000000000000e+00  -2.8263215999394142e-40 2.9184310074336721e-40 0.0000000000000000e+00  1.4913006475043685e+01 -4.1504406572063313e-01 0.0000000000000000e+00  3.3416946828614918e-40 3.4604258109710862e-40 0.0000000000000000e+00  7.7893293083161903e-40 8.4342241929279509e-40 0.0000000000000000e+00  -1.7348553877047457e-39 -2.0086162085704912e-39 0.0000000000000000e+00  1.7547984983957742e-38 1.9706304996348279e-38 0.0000000000000000e+00  -5.6553116195280150e-38 -6.2252158177023668e-38 0.0000000000000000e+00  2.1458379361844267e-37 2.3951424056203151e-37 0.0000000000000000e+00  -7.7292468738041455e-37 -8.8667557309962220e-37 0.0000000000000000e+00  4.5906350010112761e-36 5.6210213325399658e-36 0.0000000000000000e+00  -2.8360767962190684e-35 -3.5858165545900733e-35 0.0000000000000000e+00  1.1470678799743339e-34 1.4777897572499529e-34 0.0000000000000000e+00  -2.4596794426924532e-34 -3.2591007435555589e-34 0.0000000000000000e+00  4.8790006711231360e-34 6.6036679541333252e-34 0.0000000000000000e+00  1.7452181664862245e-33 2.4137280300592820e-33 0.0000000000000000e+00  -7.8473020447285608e-33 -1.1116982539914311e-32 0.0000000000000000e+00  2.2649146839317391e-32 3.3236824423081777e-32 0.0000000000000000e+00  -1.2827964779058868e-31 -1.9170229548921391e-31 0.0000000000000000e+00  3.3735715661577683e-31 5.0762225512669435e-31 0.0000000000000000e+00  1.8778902900341525e-31 3.1552093124569277e-31 0.0000000000000000e+00  -1.5834560264550283e-30 -2.5949028580985221e-30 0.0000000000000000e+00  -7.9345858377443593e-31 -1.2993360430953126e-30 0.0000000000000000e+00  -2.0516597136316568e-30 -3.3994875693914236e-30 0.0000000000000000e+00  5.0960251215631636e-30 9.0448251362560818e-30 0.0000000000000000e+00  -1.2207278749575055e-29 -2.2768899364304148e-29 0.0000000000000000e+00  4.1862385856745428e-29 7.8798537742098188e-29 0.0000000000000000e+00  2.4608510757924616e-29 4.9560172438888850e-29 0.0000000000000000e+00  -2.0768845059155743e-28 -4.1930252718117525e-28 0.0000000000000000e+00  -7.1181021372944770e-29 -1.5533169081022845e-28 0.0000000000000000e+00  -1.2122177618997499e-28 -2.8067696462818997e-28 0.0000000000000000e+00  2.0636305677685354e-28 4.6346779956239502e-28 0.0000000000000000e+00  6.1450839236555622e-28 1.4838253785028164e-27 0.0000000000000000e+00  -5.4966302267998491e-29 -1.1056367792393201e-28 0.0000000000000000e+00  1.4356149920988622e-28 4.0940726580793424e-28 0.0000000000000000e+00  -1.0368395685444062e-28 -2.6802113573382705e-28 0.0000000000000000e+00  -4.9109424571494573e-28 -1.4518240774697244e-27 0.0000000000000000e+00  -4.4629767834921882e-28 -1.4493923974089024e-27 0.0000000000000000e+00  -2.3027965749400420e-29 -1.6567470786265748e-28 0.0000000000000000e+00  4.7580126026019926e-28 1.7314420235653196e-27 0.0000000000000000e+00  2.6493480321143820e-28 1.0494673614611282e-27 0.0000000000000000e+00  -3.9604374821573580e-29 -1.8824080699741808e-28 0.0000000000000000e+00  9.4539008551478010e-29 4.2878875674131546e-28 0.0000000000000000e+00  2.0232814719716314e-28 1.1072338083057138e-27 0.0000000000000000e+00  3.1233941770895900e-28 1.8562785486004601e-27 0.0000000000000000e+00  -1.4873517704587074e-28 -1.0705903873946066e-27 0.0000000000000000e+00  7.0801776921017173e-28 5.9552039397237408e-27 0.0000000000000000e+00  -5.1873149854097082e-29 -2.9272136165830517e-29 0.0000000000000000e+00  -4.6687314527069878e-28 -5.1412998162906719e-27 0.0000000000000000e+00  -1.9454682746993536e-28 -3.0038863674156432e-27 0.0000000000000000e+00  -2.1055777131995574e-28 -4.2769343247582437e-27 0.0000000000000000e+00  -2.8982027673160542e-28 -1.0694183788234936e-26 0.0000000000000000e+00  -1.1342085856635544e-28 -1.2257667750621575e-26 0.0000000000000000e+00  6.5475263934698961e-30 -2.1259288179982814e-27 0.0000000000000000e+00  1.4441162845135290e-28 -6.6870896183412087e-27 0.0000000000000000e+00  1.7006612603601570e-28 -2.4186236532480630e-27 0.0000000000000000e+00  3.7466582646648011e-28 -4.3297978852634751e-27 0.0000000000000000e+00  -2.1435743219363131e-28 1.9432996721429094e-27 0.0000000000000000e+00  6.9677897028540539e-28 -5.8173229061990599e-27 0.0000000000000000e+00  7.9082921884918654e-28 -5.2769059304571904e-27 0.0000000000000000e+00  -1.4935359311349473e-28 1.0699424153566329e-27 0.0000000000000000e+00  -1.4739783004307433e-27 7.8151529912077943e-27 0.0000000000000000e+00  -6.6185796921945410e-28 3.1030238664437915e-27 0.0000000000000000e+00  -3.9195013965985071e-28 1.8150150624387209e-27 0.0000000000000000e+00  -1.1004891107610189e-27 4.4727981526829359e-27 0.0000000000000000e+00  -6.4980173905032472e-28 2.3633261442229273e-27 0.0000000000000000e+00  7.4897255212464142e-28 -2.6581923034104377e-27 0.0000000000000000e+00  3.9140856342731828e-28 -1.2504872234756563e-27 0.0000000000000000e+00  8.1495024077011803e-29 -2.6032931660907205e-28 0.0000000000000000e+00  3.3475852928683053e-28 -9.5525514164356848e-28 0.0000000000000000e+00  2.8089897178243597e-28 -7.4673615976795255e-28 0.0000000000000000e+00  -2.4045267683805520e-28 6.2566202140340141e-28 0.0000000000000000e+00  -1.8261965065886570e-28 4.4240916405454988e-28 0.0000000000000000e+00  -1.3461634686751238e-28 3.0966077302014864e-28 0.0000000000000000e+00  1.9419412446246987e-29 -5.0377924035614448e-29 0.0000000000000000e+00  9.5580704189718459e-29 -2.0737839226477495e-28 0.0000000000000000e+00  1.3620401474228926e-28 -2.7472642550357948e-28 0.0000000000000000e+00  -5.7687798932441397e-30 1.4453302864257081e-29 0.0000000000000000e+00  -9.5686061648483125e-29 1.8062509958192659e-28 0.0000000000000000e+00  1.5627122980350823e-29 -2.9696858033393566e-29 0.0000000000000000e+00  5.2628394799969552e-30 -9.0562116758012091e-30 0.0000000000000000e+00  -1.3984588501860871e-29 2.4451909343627699e-29 0.0000000000000000e+00  -1.0821323262182114e-30 1.6856999533389888e-30 0.0000000000000000e+00  1.5910042743409206e-30 -2.6022618857320489e-30 0.0000000000000000e+00  -8.1857509404361175e-31 1.3131803618438115e-30 0.0000000000000000e+00  1.0381878160268218e-31 -1.6509356343265160e-31 0.0000000000000000e+00  -1.2338055201772929e-32 1.8778226834735933e-32 0.0000000000000000e+00  -7.1985971827018483e-34 1.0931899127595671e-33 0.0000000000000000e+00  6.7118823614634368e-33 -9.4934488254013253e-33 0.0000000000000000e+00  3.2923667593021998e-34 -3.9119557455117821e-34 0.0000000000000000e+00  -4.2323020059042270e-34 5.6455411449229523e-34 0.0000000000000000e+00  4.6630633508030673e-35 -6.4018071856480229e-35 0.0000000000000000e+00  -1.8010669616158920e-35 2.3311786706878892e-35 0.0000000000000000e+00  4.3457488722536951e-36 -5.3918701647560934e-36 0.0000000000000000e+00  -1.5535230720886628e-36 1.8465944012118999e-36 0.0000000000000000e+00  4.9691948841313096e-37 -5.7779053916381301e-37 0.0000000000000000e+00  -2.4778323373378239e-37 2.8202601411727268e-37 0.0000000000000000e+00  8.3437910297500525e-38 -9.3604943526295320e-38 0.0000000000000000e+00  -1.6866730814663154e-38 1.8617685298998193e-38 0.0000000000000000e+00  6.8165877166536241e-39 -7.3387377992506515e-39 0.0000000000000000e+00  -4.2966793004105738e-40 4.6346043696148939e-40 0.0000000000000000e+00  -3.1358854940092386e-40 3.2417942630598004e-40 0.0000000000000000e+00  -9.2655147278301685e-42 5.4552035586707383e-42 0.0000000000000000e+00  3.9383613428419524e-40 -3.7679601068906123e-40 0.0000000000000000e+00  -9.0679817916124478e-40 8.3737355520758518e-40 0.0000000000000000e+00  3.3747957821775540e-39 -3.0946558984360372e-39 0.0000000000000000e+00  -2.0698513427203216e-39 1.9255841316289117e-39 0.0000000000000000e+00  -1.5434286593809527e-38 1.3340773005205416e-38 0.0000000000000000e+00  6.0176978309952261e-38 -5.1465358129607847e-38 0.0000000000000000e+00  -8.1489157971100970e-38 6.9157045079763402e-38 0.0000000000000000e+00  -1.4420818869995156e-37 1.1473178142576606e-37 0.0000000000000000e+00  9.2661265316299234e-37 -7.3662327838798947e-37 0.0000000000000000e+00  -1.6152696727642745e-36 1.2735168601618027e-36 0.0000000000000000e+00  -1.3668146311974325e-36 9.8111775037349324e-37 0.0000000000000000e+00  1.2807792605665817e-35 -9.4402065839339445e-36 0.0000000000000000e+00  -2.4762819632603960e-35 1.8015639498144866e-35 0.0000000000000000e+00  -1.7841265182005312e-35 1.1804114244144647e-35 0.0000000000000000e+00  1.8536927451697954e-34 -1.2584187964497886e-34 0.0000000000000000e+00  -2.9728855650539418e-34 2.0066185147314445e-34 0.0000000000000000e+00  -4.0191190576035080e-34 2.5063824432164364e-34 0.0000000000000000e+00  2.5045713606674633e-33 -1.5587011446917734e-33 0.0000000000000000e+00  -2.4789351772528898e-33 1.5411135645324683e-33 0.0000000000000000e+00  -9.0477857913340286e-33 5.2048929855839434e-33 0.0000000000000000e+00  2.8595228450685634e-32 -1.6319520739052700e-32 0.0000000000000000e+00  2.4973834887714091e-33 -6.8887885211508985e-34 0.0000000000000000e+00  -1.5495621896346610e-31 8.1048585182276617e-32 0.0000000000000000e+00  2.0531319976610500e-31 -1.0572752523858131e-31 0.0000000000000000e+00  5.1583306122582334e-31 -2.4546486067034482e-31 0.0000000000000000e+00  -1.5335557809352827e-30 7.1943960335587418e-31 0.0000000000000000e+00  -8.7809545407369563e-31 3.6743153771339083e-31 0.0000000000000000e+00  8.1495377723484182e-30 -3.4806279242199569e-30 0.0000000000000000e+00  -2.4340072856082366e-30 1.0926776118430952e-30 0.0000000000000000e+00  -3.5814753595354203e-29 1.3813376079308310e-29 0.0000000000000000e+00  2.9686303674892201e-29 -1.1173894088569188e-29 0.0000000000000000e+00  1.4521060652207659e-28 -5.0468849433085711e-29 0.0000000000000000e+00  -1.6462885120426018e-28 5.4438812210650124e-29 0.0000000000000000e+00  -6.0218556255379213e-28 1.8625730153949069e-28 0.0000000000000000e+00  6.3960746185379861e-28 -1.8847432677003782e-28 0.0000000000000000e+00  2.4991423083651539e-27 -6.7908605030964254e-28 0.0000000000000000e+00  -1.9109786138170441e-27 4.6597184713179415e-28 0.0000000000000000e+00  -9.6154818995002609e-27 2.1664232069368500e-27 0.0000000000000000e+00  2.5662878823094423e-27 -3.7543522610221625e-28 0.0000000000000000e+00  3.0144389454153014e-26 -5.4389439613503234e-27 0.0000000000000000e+00  1.4550523217805427e-26 -2.5818339956335446e-27 0.0000000000000000e+00  -8.5625729963102101e-26 1.2070208947489614e-26 0.0000000000000000e+00  -1.2976204396062578e-25 1.6033366736827231e-26 0.0000000000000000e+00  1.4439111130440953e-25 -1.6776275872397863e-26 0.0000000000000000e+00  8.4380789806307756e-25 -7.2616540326016457e-26 0.0000000000000000e+00  1.5386436614457073e-24 -9.7531689535971211e-26 0.0000000000000000e+00  1.8740414773915275e-24 -7.8232914410828397e-26 0.0000000000000000e+00  1.8298916252712660e-24 -3.6435035913296350e-26 0.0000000000000000e+00  1.8471187684109967e-24 1.8614996585715920e-27 0.0000000000000000e+00  1.9736624284763072e-24 4.3000241605139875e-26 0.0000000000000000e+00  1.8281802965303709e-24 7.6599329186521753e-26 0.0000000000000000e+00  1.1986223810205674e-24 7.3563004171591344e-26 0.0000000000000000e+00  3.5881015169454463e-25 2.9307486606455123e-26 0.0000000000000000e+00  -1.5594641711252639e-25 -1.5136278597858782e-26 0.0000000000000000e+00  -2.0853705597828184e-25 -2.4532871432642002e-26 0.0000000000000000e+00  -3.7147297600689367e-26 -4.6638452884269702e-27 0.0000000000000000e+00  5.8661791858634248e-26 9.8593315709987378e-27 0.0000000000000000e+00  3.5901325254478089e-26 6.6830199857456962e-27 0.0000000000000000e+00  -4.9597374381627453e-27 -1.0351930922246952e-27 0.0000000000000000e+00  -1.0431818665944180e-26 -2.3703412642270769e-27 0.0000000000000000e+00  -6.6685749902979453e-28 -1.6630007012697907e-28 0.0000000000000000e+00  2.6183898254568914e-27 6.9476341975296338e-28 0.0000000000000000e+00  3.6037274503391216e-28 1.0409679722737525e-28 0.0000000000000000e+00  -6.2336402121532408e-28 -1.8964769691089603e-28 0.0000000000000000e+00  -8.1533729359495598e-29 -2.6950344207503180e-29 0.0000000000000000e+00  1.4478154156610272e-28 5.0259280302704535e-29 0.0000000000000000e+00  5.5731556685582286e-30 2.2506953275438913e-30 0.0000000000000000e+00  -3.2298692417938598e-29 -1.2557880737487650e-29 0.0000000000000000e+00  2.9050592411588021e-30 1.1445520251056324e-30 0.0000000000000000e+00  6.1252319614577446e-30 2.6666277357036026e-30 0.0000000000000000e+00  -1.8211571505864832e-30 -8.0462199682338435e-31 0.0000000000000000e+00  -8.9851744735342825e-31 -4.3056583028734628e-31 0.0000000000000000e+00  5.8400225010069063e-31 2.8567078187463655e-31 0.0000000000000000e+00  3.0872768196871590e-32 1.8104788570584366e-32 0.0000000000000000e+00  -1.2792831218109035e-31 -6.7755942865956998e-32 0.0000000000000000e+00  2.8889435004098006e-32 1.5313484768010998e-32 0.0000000000000000e+00  1.8297780683581312e-32 1.0510332909209951e-32 0.0000000000000000e+00  -1.1715971537955806e-32 -6.8016483810971405e-33 0.0000000000000000e+00  1.7437587740126197e-34 5.5139875479987793e-35 0.0000000000000000e+00  2.1040686981459464e-33 1.3287915520995340e-33 0.0000000000000000e+00  -7.9658264347946757e-34 -5.0522759132686450e-34 0.0000000000000000e+00  -1.1134392071325816e-34 -7.8975443013178811e-35 0.0000000000000000e+00  1.9138091507757688e-34 1.3087431270096492e-34 0.0000000000000000e+00  -5.3851402530264756e-35 -3.7187244712758124e-35 0.0000000000000000e+00  -1.2457918034127117e-35 -9.2932371341946548e-36 0.0000000000000000e+00  1.4130748329337435e-35 1.0471141555104455e-35 0.0000000000000000e+00  -3.6862297737574490e-36 -2.7473654493032394e-36 0.0000000000000000e+00  -8.6315916613940331e-37 -6.9385632208504019e-37 0.0000000000000000e+00  9.8742175662326264e-37 7.8829411165964138e-37 0.0000000000000000e+00  -2.8669728928625201e-37 -2.3134554836557953e-37 0.0000000000000000e+00  -3.4343026124301603e-38 -3.0045293564478828e-38 0.0000000000000000e+00  6.1670949879479858e-38 5.2983279253608248e-38 0.0000000000000000e+00  -2.3601211037822472e-38 -2.0500428370494447e-38 0.0000000000000000e+00  9.2287626583729942e-40 7.2051391920415207e-40 0.0000000000000000e+00  3.2673964589017165e-39 3.0038085744764116e-39 0.0000000000000000e+00  -1.7200555296179414e-39 -1.5946206846060519e-39 0.0000000000000000e+00  3.7504327995838650e-40 3.5008694613286933e-40 0.0000000000000000e+00  1.7400224643714415e-40 1.7289811608274893e-40 0.0000000000000000e+00  3.4595138593229759e-40 3.5985707859981232e-40 0.0000000000000000e+00  -9.9095687684424679e-40 -1.0553679600469691e-39 0.0000000000000000e+00  1.9616565175399068e-39 2.1454086736473599e-39 0.0000000000000000e+00  -1.3292912797393017e-38 -1.4547386625301706e-38 0.0000000000000000e+00  9.6667040633162340e-38 1.0480653704761995e-37 0.0000000000000000e+00  -2.2863197221218392e-37 -2.4812919973918434e-37 0.0000000000000000e+00  2.6946218082899725e-37 3.0444232419337345e-37 0.0000000000000000e+00  -4.0478219786591128e-36 -4.7957939168023795e-36 0.0000000000000000e+00  1.2523874922105985e-35 1.5345789796074322e-35 0.0000000000000000e+00  -5.3506528598250791e-35 -6.7509901900553203e-35 0.0000000000000000e+00  1.1871101397531867e-34 1.5416559065210837e-34 0.0000000000000000e+00  -2.3620566038890685e-34 -3.2615785465315941e-34 0.0000000000000000e+00  1.2644836761274722e-33 1.7125880885298831e-33 0.0000000000000000e+00  -8.9708972636523936e-34 -1.1997039221015096e-33 0.0000000000000000e+00  4.9931849934984065e-33 6.7528053428743036e-33 0.0000000000000000e+00  4.0753424750480515e-32 6.1336804075835895e-32 0.0000000000000000e+00  -1.8951255436203864e-31 -2.8195461556776762e-31 0.0000000000000000e+00  -5.3703611657952705e-31 -8.5401917044829961e-31 0.0000000000000000e+00  1.0526236095644676e-30 1.6991221031388853e-30 0.0000000000000000e+00  -1.6666912914666599e-31 -2.4655024488593466e-31 0.0000000000000000e+00  -3.1655079776859113e-30 -5.5252434071978242e-30 0.0000000000000000e+00  9.3868650195764674e-30 1.6739327222355217e-29 0.0000000000000000e+00  1.4083448857304930e-29 2.7027496693929502e-29 0.0000000000000000e+00  -9.1307843989277739e-29 -1.7554494844850573e-28 0.0000000000000000e+00  2.9581592869100895e-29 5.7047776500408468e-29 0.0000000000000000e+00  9.8136930515909335e-29 2.0316498630321954e-28 0.0000000000000000e+00  3.4584822528973982e-29 7.3244203078301744e-29 0.0000000000000000e+00  3.0213499298433180e-28 6.7224765696947747e-28 0.0000000000000000e+00  1.3022744119422806e-28 3.1986488619040211e-28 0.0000000000000000e+00  -3.5604371530362050e-28 -8.1907560579685287e-28 0.0000000000000000e+00  -3.9593447699604397e-28 -1.0719021632762346e-27 0.0000000000000000e+00  3.7383039827373135e-28 9.7306011305367177e-28 0.0000000000000000e+00  6.7265840233247366e-28 1.8561631297988304e-27 0.0000000000000000e+00  3.6834656861673411e-28 1.1738164942006978e-27 0.0000000000000000e+00  1.1010969585548442e-28 4.9814145949809415e-28 0.0000000000000000e+00  -7.6622365674447898e-28 -2.5230523689040459e-27 0.0000000000000000e+00  -2.6111906806951748e-28 -8.3784968911919324e-28 0.0000000000000000e+00  -1.0784020546187382e-28 -3.5270796383345611e-28 0.0000000000000000e+00  -3.6978436662784886e-28 -1.5745577569218250e-27 0.0000000000000000e+00  -3.2036185983037981e-28 -1.4843242433053306e-27 0.0000000000000000e+00  -3.2367585020290258e-28 -1.9877526532416801e-27 0.0000000000000000e+00  -1.6118856383428809e-29 -4.7321454389796080e-28 0.0000000000000000e+00  2.9288063324265070e-28 1.7667800618891918e-27 0.0000000000000000e+00  1.8230741447904674e-29 1.9656568589699652e-29 0.0000000000000000e+00  -2.2082352336747523e-28 -2.3092132897937240e-27 0.0000000000000000e+00  9.7068802328065674e-29 1.0153677192692521e-27 0.0000000000000000e+00  5.2310319639778061e-29 8.7788903186086812e-28 0.0000000000000000e+00  -4.5372964961492351e-29 -1.3744286958993319e-27 0.0000000000000000e+00  -5.9355806695257211e-30 -3.1595487646090368e-28 0.0000000000000000e+00  1.6406609978074978e-29 -1.4819195573265852e-27 0.0000000000000000e+00  -6.7455444842769143e-29 2.0782377492394008e-27 0.0000000000000000e+00  -1.2203739348027403e-28 1.9379891285217761e-27 0.0000000000000000e+00  9.7876261467983528e-29 -1.6322330561817580e-27 0.0000000000000000e+00  4.8513776890813637e-30 -2.4705776805553749e-28 0.0000000000000000e+00  2.4346243531651857e-28 -2.2477192760972118e-27 0.0000000000000000e+00  -2.2614848205886220e-28 1.5342756066449683e-27 0.0000000000000000e+00  -1.2966930990579483e-28 6.3395044068971588e-28 0.0000000000000000e+00  9.2978575172008638e-29 -7.8038591398279870e-28 0.0000000000000000e+00  1.0759718566151500e-29 -2.9908663735570554e-28 0.0000000000000000e+00  5.4667637104009419e-28 -2.7025286894098571e-27 0.0000000000000000e+00  7.1754822168587428e-28 -3.3441602812562489e-27 0.0000000000000000e+00  1.1382510880371985e-27 -4.5694234909994493e-27 0.0000000000000000e+00  3.6116548450362095e-28 -1.2489030611735237e-27 0.0000000000000000e+00  -3.2635553694401074e-28 1.2610370053234543e-27 0.0000000000000000e+00  -7.6181278914959820e-28 2.4570097022768000e-27 0.0000000000000000e+00  -8.9660945080595267e-28 2.6758488541628110e-27 0.0000000000000000e+00  -2.4779303905855659e-28 6.6327670349763126e-28 0.0000000000000000e+00  1.6169172743898036e-28 -4.6214849434619603e-28 0.0000000000000000e+00  1.8451982187684987e-28 -4.9484140708515859e-28 0.0000000000000000e+00  7.5957150776451106e-28 -1.8222984131678693e-27 0.0000000000000000e+00  3.1704225735148324e-28 -7.1517896258118089e-28 0.0000000000000000e+00  -2.6236858772005827e-28 5.8273080225112509e-28 0.0000000000000000e+00  -1.0954426186893898e-29 2.4492100798923857e-29 0.0000000000000000e+00  2.9858557309768312e-29 -6.4791331844559409e-29 0.0000000000000000e+00  7.2855544720182109e-29 -1.4523176962150414e-28 0.0000000000000000e+00  -1.5091976068128339e-29 2.9871235569356982e-29 0.0000000000000000e+00  -2.2159094932254240e-29 4.0890629185172021e-29 0.0000000000000000e+00  2.01568