<?xml version="1.0"?>
<VTKFile type="UnstructuredGrid"  version="0.1"  >
<UnstructuredGrid>
<Piece  NumberOfPoints="11902" NumberOfCells="23402">
<Points>
<DataArray  type="Float64"  NumberOfComponents="3"  format="ascii">-5 -5 0  5 -5 0  5 5 0  -5 5 0  1.265430703889391 0.001273709746145036 0  -4.9 -5 0  -4.8 -5 0  -4.7 -5 0  -4.6 -5 0  -4.5 -5 0  -4.4 -5 0  -4.3 -5 0  -4.2 -5 0  -4.1 -5 0  -4 -5 0  -3.9 -5 0  -3.8 -5 0  -3.7 -5 0  -3.6 -5 0  -3.5 -5 0  -3.4 -5 0  -3.3 -5 0  -3.2 -5 0  -3.1 -5 0  -3 -5 0  -2.9 -5 0  -2.8 -5 0  -2.7 -5 0  -2.6 -5 0  -2.5 -5 0  -2.4 -5 0  -2.3 -5 0  -2.2 -5 0  -2.1 -5 0  -2 -5 0  -1.9 -5 0  -1.8 -5 0  -1.7 -5 0  -1.6 -5 0  -1.5 -5 0  -1.4 -5 0  -1.3 -5 0  -1.2 -5 0  -1.1 -5 0  -1 -5 0  -0.9000000000000004 -5 0  -0.7999999999999998 -5 0  -0.7000000000000002 -5 0  -0.5999999999999996 -5 0  -0.5 -5 0  -0.4000000000000004 -5 0  -0.2999999999999998 -5 0  -0.2000000000000002 -5 0  -0.09999999999999964 -5 0  0 -5 0  0.09999999999999964 -5 0  0.2000000000000002 -5 0  0.2999999999999998 -5 0  0.4000000000000004 -5 0  0.5 -5 0  0.5999999999999996 -5 0  0.7000000000000002 -5 0  0.7999999999999998 -5 0  0.9000000000000004 -5 0  1 -5 0  1.1 -5 0  1.2 -5 0  1.3 -5 0  1.4 -5 0  1.5 -5 0  1.6 -5 0  1.7 -5 0  1.8 -5 0  1.9 -5 0  2 -5 0  2.1 -5 0  2.2 -5 0  2.3 -5 0  2.4 -5 0  2.5 -5 0  2.6 -5 0  2.7 -5 0  2.8 -5 0  2.9 -5 0  3 -5 0  3.1 -5 0  3.199999999999999 -5 0  3.300000000000001 -5 0  3.4 -5 0  3.5 -5 0  3.6 -5 0  3.699999999999999 -5 0  3.800000000000001 -5 0  3.9 -5 0  4 -5 0  4.1 -5 0  4.199999999999999 -5 0  4.300000000000001 -5 0  4.4 -5 0  4.5 -5 0  4.6 -5 0  4.699999999999999 -5 0  4.800000000000001 -5 0  4.9 -5 0  5 -4.9 0  5 -4.8 0  5 -4.7 0  5 -4.6 0  5 -4.5 0  5 -4.4 0  5 -4.3 0  5 -4.2 0  5 -4.1 0  5 -4 0  5 -3.9 0  5 -3.8 0  5 -3.7 0  5 -3.6 0  5 -3.5 0  5 -3.4 0  5 -3.3 0  5 -3.2 0  5 -3.1 0  5 -3 0  5 -2.9 0  5 -2.8 0  5 -2.7 0  5 -2.6 0  5 -2.5 0  5 -2.4 0  5 -2.3 0  5 -2.2 0  5 -2.1 0  5 -2 0  5 -1.9 0  5 -1.8 0  5 -1.7 0  5 -1.6 0  5 -1.5 0  5 -1.4 0  5 -1.3 0  5 -1.2 0  5 -1.1 0  5 -1 0  5 -0.9000000000000004 0  5 -0.7999999999999998 0  5 -0.7000000000000002 0  5 -0.5999999999999996 0  5 -0.5 0  5 -0.4000000000000004 0  5 -0.2999999999999998 0  5 -0.2000000000000002 0  5 -0.09999999999999964 0  5 0 0  5 0.09999999999999964 0  5 0.2000000000000002 0  5 0.2999999999999998 0  5 0.4000000000000004 0  5 0.5 0  5 0.5999999999999996 0  5 0.7000000000000002 0  5 0.7999999999999998 0  5 0.9000000000000004 0  5 1 0  5 1.1 0  5 1.2 0  5 1.3 0  5 1.4 0  5 1.5 0  5 1.6 0  5 1.7 0  5 1.8 0  5 1.9 0  5 2 0  5 2.1 0  5 2.2 0  5 2.3 0  5 2.4 0  5 2.5 0  5 2.6 0  5 2.7 0  5 2.8 0  5 2.9 0  5 3 0  5 3.1 0  5 3.199999999999999 0  5 3.300000000000001 0  5 3.4 0  5 3.5 0  5 3.6 0  5 3.699999999999999 0  5 3.800000000000001 0  5 3.9 0  5 4 0  5 4.1 0  5 4.199999999999999 0  5 4.300000000000001 0  5 4.4 0  5 4.5 0  5 4.6 0  5 4.699999999999999 0  5 4.800000000000001 0  5 4.9 0  4.9 5 0  4.8 5 0  4.7 5 0  4.6 5 0  4.5 5 0  4.4 5 0  4.3 5 0  4.2 5 0  4.1 5 0  4 5 0  3.9 5 0  3.8 5 0  3.7 5 0  3.6 5 0  3.5 5 0  3.4 5 0  3.3 5 0  3.2 5 0  3.1 5 0  3 5 0  2.9 5 0  2.8 5 0  2.7 5 0  2.6 5 0  2.5 5 0  2.4 5 0  2.3 5 0  2.2 5 0  2.1 5 0  2 5 0  1.9 5 0  1.8 5 0  1.7 5 0  1.6 5 0  1.5 5 0  1.4 5 0  1.3 5 0  1.2 5 0  1.1 5 0  1 5 0  0.9000000000000004 5 0  0.7999999999999998 5 0  0.7000000000000002 5 0  0.5999999999999996 5 0  0.5 5 0  0.4000000000000004 5 0  0.2999999999999998 5 0  0.2000000000000002 5 0  0.09999999999999964 5 0  0 5 0  -0.09999999999999964 5 0  -0.2000000000000002 5 0  -0.2999999999999998 5 0  -0.4000000000000004 5 0  -0.5 5 0  -0.5999999999999996 5 0  -0.7000000000000002 5 0  -0.7999999999999998 5 0  -0.9000000000000004 5 0  -1 5 0  -1.1 5 0  -1.2 5 0  -1.3 5 0  -1.4 5 0  -1.5 5 0  -1.6 5 0  -1.7 5 0  -1.8 5 0  -1.9 5 0  -2 5 0  -2.1 5 0  -2.2 5 0  -2.3 5 0  -2.4 5 0  -2.5 5 0  -2.6 5 0  -2.7 5 0  -2.8 5 0  -2.9 5 0  -3 5 0  -3.1 5 0  -3.199999999999999 5 0  -3.300000000000001 5 0  -3.4 5 0  -3.5 5 0  -3.6 5 0  -3.699999999999999 5 0  -3.800000000000001 5 0  -3.9 5 0  -4 5 0  -4.1 5 0  -4.199999999999999 5 0  -4.300000000000001 5 0  -4.4 5 0  -4.5 5 0  -4.6 5 0  -4.699999999999999 5 0  -4.800000000000001 5 0  -4.9 5 0  -5 4.9 0  -5 4.8 0  -5 4.7 0  -5 4.6 0  -5 4.5 0  -5 4.4 0  -5 4.3 0  -5 4.2 0  -5 4.1 0  -5 4 0  -5 3.9 0  -5 3.8 0  -5 3.7 0  -5 3.6 0  -5 3.5 0  -5 3.4 0  -5 3.3 0  -5 3.2 0  -5 3.1 0  -5 3 0  -5 2.9 0  -5 2.8 0  -5 2.7 0  -5 2.6 0  -5 2.5 0  -5 2.4 0  -5 2.3 0  -5 2.2 0  -5 2.1 0  -5 2 0  -5 1.9 0  -5 1.8 0  -5 1.7 0  -5 1.6 0  -5 1.5 0  -5 1.4 0  -5 1.3 0  -5 1.2 0  -5 1.1 0  -5 1 0  -5 0.9000000000000004 0  -5 0.7999999999999998 0  -5 0.7000000000000002 0  -5 0.5999999999999996 0  -5 0.5 0  -5 0.4000000000000004 0  -5 0.2999999999999998 0  -5 0.2000000000000002 0  -5 0.09999999999999964 0  -5 0 0  -5 -0.09999999999999964 0  -5 -0.2000000000000002 0  -5 -0.2999999999999998 0  -5 -0.4000000000000004 0  -5 -0.5 0  -5 -0.5999999999999996 0  -5 -0.7000000000000002 0  -5 -0.7999999999999998 0  -5 -0.9000000000000004 0  -5 -1 0  -5 -1.1 0  -5 -1.2 0  -5 -1.3 0  -5 -1.4 0  -5 -1.5 0  -5 -1.6 0  -5 -1.7 0  -5 -1.8 0  -5 -1.9 0  -5 -2 0  -5 -2.1 0  -5 -2.2 0  -5 -2.3 0  -5 -2.4 0  -5 -2.5 0  -5 -2.6 0  -5 -2.7 0  -5 -2.8 0  -5 -2.9 0  -5 -3 0  -5 -3.1 0  -5 -3.199999999999999 0  -5 -3.300000000000001 0  -5 -3.4 0  -5 -3.5 0  -5 -3.6 0  -5 -3.699999999999999 0  -5 -3.800000000000001 0  -5 -3.9 0  -5 -4 0  -5 -4.1 0  -5 -4.199999999999999 0  -5 -4.300000000000001 0  -5 -4.4 0  -5 -4.5 0  -5 -4.6 0  -5 -4.699999999999999 0  -5 -4.800000000000001 0  -5 -4.9 0  1.257577571097201 0.09216777224804876 0  1.235409576400663 0.1898406767370351 0  1.201370092576463 0.2868230402234908 0  1.158709906227795 0.3754994587581257 0  1.099836952381103 0.4667396042311966 0  1.032821100390342 0.5498941951906616 0  0.9544256280389403 0.6305366575668855 0  0.8672372815128808 0.7053249710444933 0  0.7754185328890119 0.7703369992840481 0  0.6739394584956121 0.8278313890653163 0  0.5600489357307059 0.8800894174777862 0  0.4459646134290983 0.9251934756840596 0  0.3362356875131443 0.9565355970015492 0  0.2088104091576916 0.9796260387231844 0  0.08686172544834904 0.9976346010366757 0  -0.02603882608656042 1.001291424199353 0  -0.1436973292144239 0.9878800192579743 0  -0.2747968130401474 0.9675859137166017 0  -0.395417677719298 0.9432266954073466 0  -0.5042749843892927 0.9085298424610156 0  -0.6134985936675631 0.8621986576475354 0  -0.7153630267224829 0.806870195962955 0  -0.8095872887315825 0.7427944386946698 0  -0.9013029286405817 0.6690823691032327 0  -0.9881293396877798 0.5885946038341825 0  -1.063107829806479 0.5066149260861648 0  -1.125561033947236 0.4226381830240192 0  -1.181723506119818 0.3277016274985665 0  -1.218771238898617 0.2417444786347582 0  -1.242937243702725 0.148421140530572 0  -1.252955197979815 0.05297013618538885 0  -1.252878326183736 -0.05067170118245184 0  -1.242736605814408 -0.1453825079229025 0  -1.218415238883985 -0.2352601366525818 0  -1.175854784766951 -0.3310268908426973 0  -1.125855930018862 -0.4238321152366518 0  -1.065513543146157 -0.5062973329386026 0  -0.9907505652893009 -0.5876047481019475 0  -0.904519825748531 -0.6670377735394953 0  -0.8139093055872697 -0.7379820476827761 0  -0.7189621372339786 -0.798339425547148 0  -0.6145929883763889 -0.8518859538138907 0  -0.4978372926439953 -0.9017097953654687 0  -0.3857271638638717 -0.9415418668991987 0  -0.2714988960211208 -0.9674524726613845 0  -0.1418422258718758 -0.9879900749143206 0  -0.02741481522076139 -1.000509005645219 0  0.08481674844758422 -0.9931569654083533 0  0.2158862960400194 -0.9750666245478365 0  0.3394058107709987 -0.9545316955578256 0  0.4502719795091796 -0.9238378286522104 0  0.5629904011129778 -0.8792719551223372 0  0.6753362154981254 -0.8275802291072311 0  0.7750275580087265 -0.7716431331483465 0  0.8658045720638468 -0.7073836030239133 0  0.9512108824079619 -0.6317149604957675 0  1.03055328455957 -0.5482520465748683 0  1.101983896635323 -0.464500014802088 0  1.159694139190928 -0.3755905343161722 0  1.203250297709675 -0.2849110140760385 0  1.236157090717518 -0.1893190551703098 0  1.257988564452473 -0.0924536023755583 0  -2.448508238543118 4.918020277238928 0  -2.448377230559086 -4.910389790926503 0  4.910309827461819 2.44782010344353 0  4.918446486073639 -2.449288763400063 0  2.446097665953527 -4.895603399973734 0  2.440533179987299 4.899369812554094 0  -4.910337120165844 -2.44784738956762 0  -4.91033444543281 2.447851632087232 0  -1.748460204133383 4.910865728337698 0  -1.744248661233341 -4.91431241225489 0  4.920457522795759 1.74400207444641 0  4.908966301037525 -1.747753756473745 0  -4.90926137879611 -1.747488812310253 0  -4.910085429332764 1.747234843084092 0  1.745728737777522 4.904710712122381 0  1.747134950734687 -4.892835708932198 0  -1.148782409159229 4.908616589589339 0  -1.129644122144504 -4.916549082759342 0  -4.908931721567758 -1.147831010506 0  -4.908749550717615 1.147631860662334 0  1.143780231807331 -4.912724821049549 0  1.148791660743139 4.908602474178087 0  4.909070933742218 1.146105538372005 0  4.919934087369299 -1.151899321606604 0  -0.5466376294074666 -4.909788216580919 0  -0.5464240458072095 4.918495501932832 0  -4.907626299476663 -0.5486546409944577 0  -4.907650292915864 0.5472131389992407 0  4.906942053297262 -0.5489725392956052 0  4.918638186506622 0.5457364657290272 0  0.5424169614258361 -4.896630266090506 0  0.5511507207282902 4.915309386902731 0  -4.911801933425714 -3.048218378867629 0  4.918379406508029 3.046239340276732 0  4.911309140385678 -3.048193130889775 0  -4.91265045196305 3.045310810656408 0  3.055240389838603 -4.917300972506093 0  -3.048566466401105 -4.911230626285521 0  3.052135245600227 4.913310045299697 0  -3.048012822969777 4.912121412221852 0  -4.906720224016468 -0.04990224634365002 0  0.04511784145232146 -4.911736310289307 0  0.04956451887275511 4.91878278123398 0  4.913798849813341 -0.05128515857293491 0  3.545571696324409 -4.918969839555827 0  -3.54884804836279 
[...]
<PointData  Vectors="f_7066"> 
<DataArray  type="Float64"  Name="f_7066"  NumberOfComponents="3" format="ascii">1.4935156001216492e-40 1.0951655706791096e-40 0.0000000000000000e+00  -1.1771646234890474e-40 9.3758387222526151e-41 0.0000000000000000e+00  -8.7399055081219974e-42 1.3825027163661798e-41 0.0000000000000000e+00  9.8544579569336587e-41 -9.2194689824566403e-41 0.0000000000000000e+00  1.0756935691078477e+01 -3.4795595624753117e-03 0.0000000000000000e+00  -2.6526117315630670e-40 -2.0033410995501379e-40 0.0000000000000000e+00  2.9005037187046030e-40 1.6439713007631703e-40 0.0000000000000000e+00  -8.8968105312517343e-40 -5.6844781889460409e-40 0.0000000000000000e+00  -7.0995418467762743e-39 -5.5905930899635889e-39 0.0000000000000000e+00  1.5584007362895825e-38 1.1560479195326491e-38 0.0000000000000000e+00  -1.2330567977344634e-37 -8.1749605889086873e-38 0.0000000000000000e+00  2.8658826369905441e-37 1.8434299334537024e-37 0.0000000000000000e+00  -1.4783911311872652e-36 -1.3989208934513706e-36 0.0000000000000000e+00  9.2561811359579982e-36 1.0470050610976247e-35 0.0000000000000000e+00  -3.4526653205405324e-35 -3.9538222508116968e-35 0.0000000000000000e+00  6.0001509414092697e-35 8.1394853293756193e-35 0.0000000000000000e+00  -1.0145621561960310e-34 -1.7343649861110336e-34 0.0000000000000000e+00  -5.3356074749466638e-34 -6.0286008637436808e-34 0.0000000000000000e+00  2.0630230537777654e-33 2.6211424472424736e-33 0.0000000000000000e+00  -4.2257874477936193e-33 -7.1549788862364898e-33 0.0000000000000000e+00  2.8804342243364830e-32 4.2937579151919462e-32 0.0000000000000000e+00  -7.9477578867085236e-32 -1.1522868812974161e-31 0.0000000000000000e+00  -6.9681512942825005e-32 -5.1647910696511804e-32 0.0000000000000000e+00  5.2905057499866964e-31 4.7353443861935909e-31 0.0000000000000000e+00  9.2221106337722080e-32 3.9597434496668352e-31 0.0000000000000000e+00  5.5926405425767196e-33 8.3667392667402122e-31 0.0000000000000000e+00  -8.4755098774967962e-31 -2.1061899208073786e-30 0.0000000000000000e+00  1.3527300926343336e-30 8.7467221535512681e-30 0.0000000000000000e+00  -6.3722208933391792e-30 -2.3395213624271018e-29 0.0000000000000000e+00  -4.3028940564436712e-30 -1.6893226416005235e-29 0.0000000000000000e+00  4.0082970486007234e-29 1.2080843495802365e-28 0.0000000000000000e+00  1.1312750477722692e-29 4.1408019055322851e-29 0.0000000000000000e+00  -2.8644432013133727e-30 -1.7388956315775871e-29 0.0000000000000000e+00  -2.0819115148708046e-29 -4.4692032156790087e-29 0.0000000000000000e+00  -5.0556312011980939e-29 3.9753109537280684e-29 0.0000000000000000e+00  -2.6513630639863859e-29 -2.8831334253466682e-28 0.0000000000000000e+00  -3.4536112625044165e-29 -2.3983836905533502e-28 0.0000000000000000e+00  -2.5160467775411701e-30 -6.3287893984738636e-29 0.0000000000000000e+00  5.4017940163137820e-29 4.3840896036127519e-28 0.0000000000000000e+00  7.6738902826408840e-29 6.4626739583787130e-28 0.0000000000000000e+00  9.5569094568637185e-29 5.8185162646223613e-28 0.0000000000000000e+00  5.9203719406336658e-29 -1.5304123128105810e-28 0.0000000000000000e+00  6.3393769159994240e-29 -2.3356041780638821e-29 0.0000000000000000e+00  7.5594924225210014e-29 3.8146099298210869e-28 0.0000000000000000e+00  2.4281787176415812e-29 -7.3059092748437229e-29 0.0000000000000000e+00  -1.7792014466478242e-28 -8.7290050171637187e-28 0.0000000000000000e+00  -8.8823327923437338e-29 -6.3352326060872111e-28 0.0000000000000000e+00  8.1103304454589944e-29 5.3464096451349442e-28 0.0000000000000000e+00  4.5138910122806680e-30 -7.5151429334063499e-28 0.0000000000000000e+00  -8.8006774745828510e-29 -2.1755925540009401e-28 0.0000000000000000e+00  -2.1656826809302051e-28 5.1066687857714569e-29 0.0000000000000000e+00  -2.4277925307860265e-28 -8.5542803788611394e-29 0.0000000000000000e+00  -1.5637022635156113e-28 -1.6631102333587203e-28 0.0000000000000000e+00  -4.7029644685295983e-31 3.2455675639324790e-29 0.0000000000000000e+00  1.9230715520797624e-29 8.1073554329103545e-29 0.0000000000000000e+00  -5.9048969479458312e-29 3.5938254791332386e-29 0.0000000000000000e+00  -1.1124841943131572e-28 -1.5730302203668792e-28 0.0000000000000000e+00  -1.3311847902773934e-28 -3.2262524766926323e-28 0.0000000000000000e+00  -1.0761358306073933e-28 -2.4171663888245245e-28 0.0000000000000000e+00  -1.3661010843775798e-28 -8.2211025938537537e-29 0.0000000000000000e+00  -1.7141273254216451e-28 -5.5083564213090687e-28 0.0000000000000000e+00  -1.5457604845011486e-28 -6.0650628151759908e-28 0.0000000000000000e+00  -8.7439251823607725e-29 4.5184223100431568e-29 0.0000000000000000e+00  -6.1638151475495073e-29 6.3656407122251397e-28 0.0000000000000000e+00  -9.2038987807884553e-30 3.2330694206313046e-28 0.0000000000000000e+00  8.6751768209288183e-29 2.0479910442888599e-28 0.0000000000000000e+00  4.6358635015637849e-29 5.4602497543825551e-28 0.0000000000000000e+00  2.8993116279416436e-29 2.4603273323396165e-28 0.0000000000000000e+00  1.8083220807507186e-29 -4.1318037245708048e-28 0.0000000000000000e+00  -3.3668284816832663e-29 -2.6315367386790890e-28 0.0000000000000000e+00  -2.6646187023975545e-29 1.2131583522007671e-28 0.0000000000000000e+00  -7.5593983717692797e-29 4.3532786705221103e-29 0.0000000000000000e+00  -3.3871182209708009e-29 2.1586634736701947e-29 0.0000000000000000e+00  2.2557613202561590e-29 2.4537324195024524e-29 0.0000000000000000e+00  2.8790217852294138e-29 -2.1677669557011183e-28 0.0000000000000000e+00  1.6757831593755427e-29 -7.6038822865619371e-29 0.0000000000000000e+00  1.0409120054099952e-30 -2.0057980838283267e-29 0.0000000000000000e+00  -1.2572731786140332e-29 6.9447510803645849e-29 0.0000000000000000e+00  -1.6896284010472832e-29 8.6338573265495065e-29 0.0000000000000000e+00  3.0370307512210607e-30 -3.4914374163048934e-30 0.0000000000000000e+00  1.3552272145701339e-29 -4.8174872041481451e-29 0.0000000000000000e+00  -2.3678139022934467e-30 8.1415065581257489e-30 0.0000000000000000e+00  -6.9726929519634720e-31 2.2451395783040986e-30 0.0000000000000000e+00  3.3163700436745508e-30 -6.4051620290206562e-30 0.0000000000000000e+00  4.3527852341998319e-31 -5.0655547333464932e-31 0.0000000000000000e+00  -4.5071087308269007e-31 6.9988736764427824e-31 0.0000000000000000e+00  1.7963262443297247e-31 -3.0146465008103280e-31 0.0000000000000000e+00  -5.0659698849100572e-32 6.3916043070900242e-32 0.0000000000000000e+00  4.7310127250001418e-33 -6.3970149715353162e-33 0.0000000000000000e+00  3.2687127355922068e-33 -2.8649832721504404e-33 0.0000000000000000e+00  -4.2004899771956161e-33 4.2960594541073007e-33 0.0000000000000000e+00  2.0185824834833166e-34 -1.3586933185188683e-34 0.0000000000000000e+00  1.1659836427394142e-34 -1.4955024678096002e-34 0.0000000000000000e+00  -3.5168611628924679e-37 1.1725037481375928e-35 0.0000000000000000e+00  1.2719125755277999e-35 -1.3851560754467582e-35 0.0000000000000000e+00  -2.1010361237819429e-36 2.2092223697646178e-36 0.0000000000000000e+00  -9.0136543352397261e-38 7.5595363707909958e-38 0.0000000000000000e+00  -2.9506247457688928e-38 2.3755584545804880e-38 0.0000000000000000e+00  1.1904664941320859e-39 7.8524082904660653e-40 0.0000000000000000e+00  -1.6247136946968905e-40 -8.6331801109511944e-40 0.0000000000000000e+00  2.9641078897266429e-39 -2.0803518354276163e-39 0.0000000000000000e+00  -8.2933985441341553e-40 6.4881010608956001e-40 0.0000000000000000e+00  -1.3019953696823076e-40 1.2157175737245622e-40 0.0000000000000000e+00  1.7644759370244103e-40 -1.4789932045254706e-40 0.0000000000000000e+00  3.3158210788448187e-41 -2.5309078949729125e-41 0.0000000000000000e+00  1.5332880153454589e-40 -9.9534338481221196e-41 0.0000000000000000e+00  -2.7153052248531731e-40 1.6385403536530049e-40 0.0000000000000000e+00  -1.4005821465666431e-40 2.6537611883109883e-40 0.0000000000000000e+00  1.8581735139808024e-39 -1.5664936260814991e-39 0.0000000000000000e+00  -4.9261457167535080e-39 3.2009644139261564e-39 0.0000000000000000e+00  4.4788205549312667e-39 -7.8261401807519159e-40 0.0000000000000000e+00  1.5035558551971186e-38 -1.5847236563597583e-38 0.0000000000000000e+00  -7.0729308225769913e-38 5.0703456937935431e-38 0.0000000000000000e+00  1.2199681038586712e-37 -5.9976233163722914e-38 0.0000000000000000e+00  8.1001365321248523e-38 -1.2136506936664828e-37 0.0000000000000000e+00  -9.1789520817501814e-37 6.4706756278449322e-37 0.0000000000000000e+00  1.8779233277662241e-36 -1.0054158022988995e-36 0.0000000000000000e+00  2.5634178696022022e-37 -7.2683382044038189e-37 0.0000000000000000e+00  -1.1915756436325262e-35 7.3843938507674911e-36 0.0000000000000000e+00  2.7698529860470172e-35 -1.4357856748327612e-35 0.0000000000000000e+00  4.4055469810146765e-36 -5.1831736236313074e-36 0.0000000000000000e+00  -1.6622349501825888e-34 8.7012902781606426e-35 0.0000000000000000e+00  3.5397667655491272e-34 -1.7496771859202850e-34 0.0000000000000000e+00  2.1941408265041182e-34 -1.0313468328875835e-34 0.0000000000000000e+00  -2.4865277195449349e-33 1.1883640911050703e-33 0.0000000000000000e+00  3.4394538155958191e-33 -1.6878222447745765e-33 0.0000000000000000e+00  7.3765756959167495e-33 -3.4223462215281950e-33 0.0000000000000000e+00  -3.2070996556785693e-32 1.5261507577839114e-32 0.0000000000000000e+00  1.1669343001091570e-32 -4.5765304584505913e-33 0.0000000000000000e+00  1.4385506900530462e-31 -7.1540338469592081e-32 0.0000000000000000e+00  -2.3792014849599086e-31 1.0095541753503359e-31 0.0000000000000000e+00  -3.7536353766722335e-31 2.3352629837479130e-31 0.0000000000000000e+00  1.4779867084660922e-30 -6.4631309869504216e-31 0.0000000000000000e+00  1.5480809843923206e-31 -5.6698081846530675e-31 0.0000000000000000e+00  -6.1301381533637894e-30 2.7869698343079157e-30 0.0000000000000000e+00  4.4158589624884892e-30 1.0368544150932944e-30 0.0000000000000000e+00  1.8952389944840277e-29 -8.5426043455602506e-30 0.0000000000000000e+00  -3.2718801833911474e-29 3.2426825505007626e-32 0.0000000000000000e+00  -4.6211596373470767e-29 1.2382692974391363e-29 0.0000000000000000e+00  1.9524597177603872e-28 -4.1505594897198076e-29 0.0000000000000000e+00  1.1402280717981269e-28 3.2254147699724054e-29 0.0000000000000000e+00  -1.0645378899556818e-27 4.5821461982300448e-28 0.0000000000000000e+00  -1.6179396666508961e-27 5.6662136526136976e-28 0.0000000000000000e+00  3.8175930507884995e-27 -2.0982714052595315e-27 0.0000000000000000e+00  1.1078143821055151e-26 -5.5803858958041561e-27 0.0000000000000000e+00  1.1338031912436997e-26 -6.1667257347750605e-27 0.0000000000000000e+00  -6.8121016187265280e-27 7.7122273285078101e-28 0.0000000000000000e+00  -4.4350488786791204e-26 1.4308053787333873e-26 0.0000000000000000e+00  -9.7649672088593560e-26 3.2502322257622225e-26 0.0000000000000000e+00  -1.8318188681614392e-25 6.0929066373842129e-26 0.0000000000000000e+00  -2.8439963760951576e-25 8.6456234683906081e-26 0.0000000000000000e+00  -4.0020940083897841e-25 9.0303755395127686e-26 0.0000000000000000e+00  -4.7295836280050952e-25 5.2155496864190583e-26 0.0000000000000000e+00  -4.8391296068091049e-25 -8.5146298539599855e-27 0.0000000000000000e+00  -4.0909865154673281e-25 -5.5444567021342725e-26 0.0000000000000000e+00  -2.8116857383991156e-25 -6.5604216536653573e-26 0.0000000000000000e+00  -1.6605536792690775e-25 -5.2252673792997702e-26 0.0000000000000000e+00  -9.7904241942741192e-26 -3.7089784320230286e-26 0.0000000000000000e+00  -6.1019373807014490e-26 -2.5209398265099657e-26 0.0000000000000000e+00  -2.5484473700976627e-26 -1.0142366561534372e-26 0.0000000000000000e+00  7.7583746922907330e-27 5.1727823452353353e-27 0.0000000000000000e+00  2.1459105688683148e-26 1.1428806885756664e-26 0.0000000000000000e+00  1.3952919031412076e-26 7.4866362459934622e-27 0.0000000000000000e+00  1.9936590683533505e-27 1.4163123557556681e-27 0.0000000000000000e+00  -2.3327867846278729e-27 -9.7700794106885652e-28 0.0000000000000000e+00  -1.1045771615856584e-27 -6.0995442868814684e-28 0.0000000000000000e+00  2.8272019255270898e-28 3.4386175908078175e-29 0.0000000000000000e+00  2.3019233927213429e-28 9.7681537809044762e-29 0.0000000000000000e+00  -5.0833208284872657e-29 2.5011400401277559e-30 0.0000000000000000e+00  -3.8824779130987851e-29 -1.1257473059486406e-29 0.0000000000000000e+00  1.4482993841860388e-29 1.0193995458705109e-30 0.0000000000000000e+00  4.6554627656800317e-30 5.8463808208827005e-31 0.0000000000000000e+00  -4.1722854976610947e-30 -7.1226720904799249e-31 0.0000000000000000e+00  4.3874195999726917e-32 2.2577281938063051e-31 0.0000000000000000e+00  8.7157615076695493e-31 1.7142021311466249e-31 0.0000000000000000e+00  -2.5463422187723151e-31 -1.1371755873471058e-31 0.0000000000000000e+00  -1.1932229156480789e-31 -2.1629995710067956e-32 0.0000000000000000e+00  8.5174872065566461e-32 3.1914550692921903e-32 0.0000000000000000e+00  -7.6173859378516153e-34 -2.4633704880072906e-33 0.0000000000000000e+00  -1.6360494760664269e-32 -6.3099707129470224e-33 0.0000000000000000e+00  4.7218362122009314e-33 1.9930061859106761e-33 0.0000000000000000e+00  1.7141324369350741e-33 7.8399010674989199e-34 0.0000000000000000e+00  -1.3702195992553978e-33 -5.9794208209919283e-34 0.0000000000000000e+00  1.0906055954156997e-34 1.6135122423106072e-35 0.0000000000000000e+00  1.8667272012342845e-34 9.9435912263169191e-35 0.0000000000000000e+00  -7.7005212388551034e-35 -3.4072313168587189e-35 0.0000000000000000e+00  -6.6727355736945523e-36 -6.3496416718271718e-36 0.0000000000000000e+00  1.4896559848814904e-35 7.8260451908112091e-36 0.0000000000000000e+00  -3.9146551964970120e-36 -1.7306957410949906e-36 0.0000000000000000e+00  -1.0416640803108547e-36 -5.4635219771991697e-37 0.0000000000000000e+00  1.0095408908243049e-36 4.4339804344778933e-37 0.0000000000000000e+00  -2.2435293490991556e-37 -9.4150883379874470e-38 0.0000000000000000e+00  -7.3965228984734708e-38 -1.8726255701720860e-38 0.0000000000000000e+00  6.9281192906961869e-38 1.7743431680817700e-38 0.0000000000000000e+00  -2.0236583680087779e-38 -5.5832510438862694e-39 0.0000000000000000e+00  -9.8722090943059248e-40 1.3363879949826091e-39 0.0000000000000000e+00  3.5461721455434481e-39 -3.7631994302749611e-40 0.0000000000000000e+00  -1.7906890971117402e-39 -2.9259418487761371e-41 0.0000000000000000e+00  4.6370222204286303e-40 2.1187068402817703e-40 0.0000000000000000e+00  -7.0644107010166290e-42 -1.6547845767968300e-40 0.0000000000000000e+00  -7.3233664570349809e-41 5.8323310468227822e-41 0.0000000000000000e+00  3.5604921775027136e-41 -1.1034720074834177e-41 0.0000000000000000e+00  -3.3549776587570366e-41 -2.5389559991061536e-41 0.0000000000000000e+00  2.2182765026960226e-41 -1.8304211887750260e-41 0.0000000000000000e+00  1.2970266496017335e-40 1.2212715326821599e-40 0.0000000000000000e+00  -4.6793938466648515e-40 -4.0686851932779521e-40 0.0000000000000000e+00  6.0191265521155157e-39 4.7952676095918271e-39 0.0000000000000000e+00  -3.8179731189494205e-38 -3.4993377878149069e-38 0.0000000000000000e+00  1.6014031745777270e-37 1.4924529169065553e-37 0.0000000000000000e+00  -3.2778840632253670e-37 -3.0016957791393650e-37 0.0000000000000000e+00  2.0460879195077292e-36 1.9616516725826099e-36 0.0000000000000000e+00  -1.7361777976058834e-36 -2.1062559171499798e-36 0.0000000000000000e+00  -9.7031898187208640e-36 -6.2176930565094456e-36 0.0000000000000000e+00  5.8117173927952476e-35 4.5033388687460641e-35 0.0000000000000000e+00  -3.2113971137316882e-34 -2.7617483029208797e-34 0.0000000000000000e+00  4.7637600196142393e-34 4.3043860936040598e-34 0.0000000000000000e+00  -4.3519144243807483e-34 -5.4779075801495087e-34 0.0000000000000000e+00  2.7007515352078757e-33 1.7140114441450315e-33 0.0000000000000000e+00  4.5872312886114296e-33 5.4489296445680863e-33 0.0000000000000000e+00  -2.9327928717415456e-32 -2.0451378779911970e-32 0.0000000000000000e+00  -1.0322554555864954e-31 -1.5901388481942805e-31 0.0000000000000000e+00  2.6240333416916853e-31 5.0733399391333535e-31 0.0000000000000000e+00  -4.0765120047053918e-31 -9.2302996408632089e-31 0.0000000000000000e+00  -3.2715169287716146e-31 -4.5669221757592768e-31 0.0000000000000000e+00  2.2106845994703338e-30 3.3535463305944480e-30 0.0000000000000000e+00  9.9589810056895985e-32 4.1469497032961894e-31 0.0000000000000000e+00  3.6244109457369256e-30 1.0749258565937682e-29 0.0000000000000000e+00  -5.7920396448987513e-30 -7.8004232560186688e-30 0.0000000000000000e+00  -1.2594288665589221e-29 1.4669525160465991e-29 0.0000000000000000e+00  -2.0397453909486186e-30 -4.2356007376067306e-29 0.0000000000000000e+00  -2.5771757381802708e-29 -1.9493528949279383e-28 0.0000000000000000e+00  -1.5423029095467202e-29 -6.3509793592481612e-29 0.0000000000000000e+00  3.5945278153699693e-29 8.5526142777629092e-29 0.0000000000000000e+00  2.8139167892632072e-29 3.4900687003308246e-28 0.0000000000000000e+00  -6.8954690468146562e-31 -2.0490761164925186e-28 0.0000000000000000e+00  2.6272869798296051e-29 -4.3600361956116954e-28 0.0000000000000000e+00  -1.5506534940928505e-29 -1.5007570921004921e-28 0.0000000000000000e+00  -9.9141913142107773e-29 -1.1023168555595772e-28 0.0000000000000000e+00  -1.2966226334969691e-28 3.7703030452039897e-28 0.0000000000000000e+00  -1.3250363936036520e-28 2.0508793334249644e-28 0.0000000000000000e+00  -1.0812261792130038e-28 -2.0194704609982347e-29 0.0000000000000000e+00  -1.0736185703361978e-28 7.2183872670669826e-29 0.0000000000000000e+00  -1.0160668065131030e-28 -8.3352733845139694e-29 0.0000000000000000e+00  1.1966423824197847e-28 -4.1334858914280752e-28 0.0000000000000000e+00  2.3866785493846860e-28 -2.0944496636846761e-28 0.0000000000000000e+00  2.4855831031482615e-28 2.3602290036690808e-28 0.0000000000000000e+00  1.5860651987559832e-28 -1.3949479747568751e-28 0.0000000000000000e+00  -3.0828106508855553e-29 -5.5473089675244201e-28 0.0000000000000000e+00  1.0656210525526037e-28 1.5121142121563214e-28 0.0000000000000000e+00  1.0193006277996368e-28 1.4178868742565858e-28 0.0000000000000000e+00  2.8050914816361119e-29 -4.1020544225572948e-28 0.0000000000000000e+00  3.8129330390070210e-29 -1.7101553198919040e-28 0.0000000000000000e+00  3.5274303114453317e-29 -2.6957603826975543e-28 0.0000000000000000e+00  1.7075218945795234e-30 -2.1037699374371302e-29 0.0000000000000000e+00  -4.4364394093857233e-30 2.9099125592725589e-29 0.0000000000000000e+00  8.8171823092992194e-30 -1.6133445600574151e-28 0.0000000000000000e+00  -1.6015378825226774e-30 -8.8246963548839370e-29 0.0000000000000000e+00  -3.8152545027720608e-30 1.2860151850596717e-28 0.0000000000000000e+00  1.8594421886002156e-30 -2.5972026512984826e-28 0.0000000000000000e+00  -1.3965477672349198e-29 -9.6546997012985598e-29 0.0000000000000000e+00  5.5053935611626878e-30 1.3936913437033749e-29 0.0000000000000000e+00  -1.1345106857359970e-29 1.2102842550682909e-29 0.0000000000000000e+00  -1.2933114755892050e-29 3.2109391582710119e-28 0.0000000000000000e+00  -3.1898664963623723e-29 4.1486375797006403e-28 0.0000000000000000e+00  -5.0424058958764495e-29 6.0156746084144961e-28 0.0000000000000000e+00  -2.6632573786480834e-29 2.0834794714809430e-28 0.0000000000000000e+00  -6.2425582832930476e-30 -9.5966579099887414e-29 0.0000000000000000e+00  3.6684949991159736e-29 -3.7649532712656752e-28 0.0000000000000000e+00  5.1051099652875974e-29 -4.8074507027459180e-28 0.0000000000000000e+00  2.0214524172863728e-29 -1.4079565010799542e-28 0.0000000000000000e+00  5.3487916971216792e-30 5.1105503761366111e-29 0.0000000000000000e+00  -1.6628197434935323e-29 1.0682093090504434e-28 0.0000000000000000e+00  -5.5556442360239776e-29 4.3206489464331973e-28 0.0000000000000000e+00  -2.0960443646560006e-29 1.4585296085075764e-28 0.0000000000000000e+00  1.1646575354186465e-29 -1.4425767064251879e-28 0.0000000000000000e+00  4.1902595973593719e-30 1.8296849556543276e-29 0.0000000000000000e+00  -2.2939748295269034e-30 1.0225492429831786e-29 0.0000000000000000e+00  -5.0417594942666525e-30 1.9313762793038123e-29 0.0000000000000000e+00  2.0789910562214503e-30 -5.1468082310230262e-30 0.0000000000000000e+00  2.9653720106236222e-30 -8.6090144697452635e-30 0.00000000000000