<?xml version="1.0"?>
<VTKFile type="UnstructuredGrid"  version="0.1"  >
<UnstructuredGrid>
<Piece  NumberOfPoints="11902" NumberOfCells="23402">
<Points>
<DataArray  type="Float64"  NumberOfComponents="3"  format="ascii">-5 -5 0  5 -5 0  5 5 0  -5 5 0  1.264463944122226 0.001265767845663221 0  -4.9 -5 0  -4.8 -5 0  -4.7 -5 0  -4.6 -5 0  -4.5 -5 0  -4.4 -5 0  -4.3 -5 0  -4.2 -5 0  -4.1 -5 0  -4 -5 0  -3.9 -5 0  -3.8 -5 0  -3.7 -5 0  -3.6 -5 0  -3.5 -5 0  -3.4 -5 0  -3.3 -5 0  -3.2 -5 0  -3.1 -5 0  -3 -5 0  -2.9 -5 0  -2.8 -5 0  -2.7 -5 0  -2.6 -5 0  -2.5 -5 0  -2.4 -5 0  -2.3 -5 0  -2.2 -5 0  -2.1 -5 0  -2 -5 0  -1.9 -5 0  -1.8 -5 0  -1.7 -5 0  -1.6 -5 0  -1.5 -5 0  -1.4 -5 0  -1.3 -5 0  -1.2 -5 0  -1.1 -5 0  -1 -5 0  -0.9000000000000004 -5 0  -0.7999999999999998 -5 0  -0.7000000000000002 -5 0  -0.5999999999999996 -5 0  -0.5 -5 0  -0.4000000000000004 -5 0  -0.2999999999999998 -5 0  -0.2000000000000002 -5 0  -0.09999999999999964 -5 0  0 -5 0  0.09999999999999964 -5 0  0.2000000000000002 -5 0  0.2999999999999998 -5 0  0.4000000000000004 -5 0  0.5 -5 0  0.5999999999999996 -5 0  0.7000000000000002 -5 0  0.7999999999999998 -5 0  0.9000000000000004 -5 0  1 -5 0  1.1 -5 0  1.2 -5 0  1.3 -5 0  1.4 -5 0  1.5 -5 0  1.6 -5 0  1.7 -5 0  1.8 -5 0  1.9 -5 0  2 -5 0  2.1 -5 0  2.2 -5 0  2.3 -5 0  2.4 -5 0  2.5 -5 0  2.6 -5 0  2.7 -5 0  2.8 -5 0  2.9 -5 0  3 -5 0  3.1 -5 0  3.199999999999999 -5 0  3.300000000000001 -5 0  3.4 -5 0  3.5 -5 0  3.6 -5 0  3.699999999999999 -5 0  3.800000000000001 -5 0  3.9 -5 0  4 -5 0  4.1 -5 0  4.199999999999999 -5 0  4.300000000000001 -5 0  4.4 -5 0  4.5 -5 0  4.6 -5 0  4.699999999999999 -5 0  4.800000000000001 -5 0  4.9 -5 0  5 -4.9 0  5 -4.8 0  5 -4.7 0  5 -4.6 0  5 -4.5 0  5 -4.4 0  5 -4.3 0  5 -4.2 0  5 -4.1 0  5 -4 0  5 -3.9 0  5 -3.8 0  5 -3.7 0  5 -3.6 0  5 -3.5 0  5 -3.4 0  5 -3.3 0  5 -3.2 0  5 -3.1 0  5 -3 0  5 -2.9 0  5 -2.8 0  5 -2.7 0  5 -2.6 0  5 -2.5 0  5 -2.4 0  5 -2.3 0  5 -2.2 0  5 -2.1 0  5 -2 0  5 -1.9 0  5 -1.8 0  5 -1.7 0  5 -1.6 0  5 -1.5 0  5 -1.4 0  5 -1.3 0  5 -1.2 0  5 -1.1 0  5 -1 0  5 -0.9000000000000004 0  5 -0.7999999999999998 0  5 -0.7000000000000002 0  5 -0.5999999999999996 0  5 -0.5 0  5 -0.4000000000000004 0  5 -0.2999999999999998 0  5 -0.2000000000000002 0  5 -0.09999999999999964 0  5 0 0  5 0.09999999999999964 0  5 0.2000000000000002 0  5 0.2999999999999998 0  5 0.4000000000000004 0  5 0.5 0  5 0.5999999999999996 0  5 0.7000000000000002 0  5 0.7999999999999998 0  5 0.9000000000000004 0  5 1 0  5 1.1 0  5 1.2 0  5 1.3 0  5 1.4 0  5 1.5 0  5 1.6 0  5 1.7 0  5 1.8 0  5 1.9 0  5 2 0  5 2.1 0  5 2.2 0  5 2.3 0  5 2.4 0  5 2.5 0  5 2.6 0  5 2.7 0  5 2.8 0  5 2.9 0  5 3 0  5 3.1 0  5 3.199999999999999 0  5 3.300000000000001 0  5 3.4 0  5 3.5 0  5 3.6 0  5 3.699999999999999 0  5 3.800000000000001 0  5 3.9 0  5 4 0  5 4.1 0  5 4.199999999999999 0  5 4.300000000000001 0  5 4.4 0  5 4.5 0  5 4.6 0  5 4.699999999999999 0  5 4.800000000000001 0  5 4.9 0  4.9 5 0  4.8 5 0  4.7 5 0  4.6 5 0  4.5 5 0  4.4 5 0  4.3 5 0  4.2 5 0  4.1 5 0  4 5 0  3.9 5 0  3.8 5 0  3.7 5 0  3.6 5 0  3.5 5 0  3.4 5 0  3.3 5 0  3.2 5 0  3.1 5 0  3 5 0  2.9 5 0  2.8 5 0  2.7 5 0  2.6 5 0  2.5 5 0  2.4 5 0  2.3 5 0  2.2 5 0  2.1 5 0  2 5 0  1.9 5 0  1.8 5 0  1.7 5 0  1.6 5 0  1.5 5 0  1.4 5 0  1.3 5 0  1.2 5 0  1.1 5 0  1 5 0  0.9000000000000004 5 0  0.7999999999999998 5 0  0.7000000000000002 5 0  0.5999999999999996 5 0  0.5 5 0  0.4000000000000004 5 0  0.2999999999999998 5 0  0.2000000000000002 5 0  0.09999999999999964 5 0  0 5 0  -0.09999999999999964 5 0  -0.2000000000000002 5 0  -0.2999999999999998 5 0  -0.4000000000000004 5 0  -0.5 5 0  -0.5999999999999996 5 0  -0.7000000000000002 5 0  -0.7999999999999998 5 0  -0.9000000000000004 5 0  -1 5 0  -1.1 5 0  -1.2 5 0  -1.3 5 0  -1.4 5 0  -1.5 5 0  -1.6 5 0  -1.7 5 0  -1.8 5 0  -1.9 5 0  -2 5 0  -2.1 5 0  -2.2 5 0  -2.3 5 0  -2.4 5 0  -2.5 5 0  -2.6 5 0  -2.7 5 0  -2.8 5 0  -2.9 5 0  -3 5 0  -3.1 5 0  -3.199999999999999 5 0  -3.300000000000001 5 0  -3.4 5 0  -3.5 5 0  -3.6 5 0  -3.699999999999999 5 0  -3.800000000000001 5 0  -3.9 5 0  -4 5 0  -4.1 5 0  -4.199999999999999 5 0  -4.300000000000001 5 0  -4.4 5 0  -4.5 5 0  -4.6 5 0  -4.699999999999999 5 0  -4.800000000000001 5 0  -4.9 5 0  -5 4.9 0  -5 4.8 0  -5 4.7 0  -5 4.6 0  -5 4.5 0  -5 4.4 0  -5 4.3 0  -5 4.2 0  -5 4.1 0  -5 4 0  -5 3.9 0  -5 3.8 0  -5 3.7 0  -5 3.6 0  -5 3.5 0  -5 3.4 0  -5 3.3 0  -5 3.2 0  -5 3.1 0  -5 3 0  -5 2.9 0  -5 2.8 0  -5 2.7 0  -5 2.6 0  -5 2.5 0  -5 2.4 0  -5 2.3 0  -5 2.2 0  -5 2.1 0  -5 2 0  -5 1.9 0  -5 1.8 0  -5 1.7 0  -5 1.6 0  -5 1.5 0  -5 1.4 0  -5 1.3 0  -5 1.2 0  -5 1.1 0  -5 1 0  -5 0.9000000000000004 0  -5 0.7999999999999998 0  -5 0.7000000000000002 0  -5 0.5999999999999996 0  -5 0.5 0  -5 0.4000000000000004 0  -5 0.2999999999999998 0  -5 0.2000000000000002 0  -5 0.09999999999999964 0  -5 0 0  -5 -0.09999999999999964 0  -5 -0.2000000000000002 0  -5 -0.2999999999999998 0  -5 -0.4000000000000004 0  -5 -0.5 0  -5 -0.5999999999999996 0  -5 -0.7000000000000002 0  -5 -0.7999999999999998 0  -5 -0.9000000000000004 0  -5 -1 0  -5 -1.1 0  -5 -1.2 0  -5 -1.3 0  -5 -1.4 0  -5 -1.5 0  -5 -1.6 0  -5 -1.7 0  -5 -1.8 0  -5 -1.9 0  -5 -2 0  -5 -2.1 0  -5 -2.2 0  -5 -2.3 0  -5 -2.4 0  -5 -2.5 0  -5 -2.6 0  -5 -2.7 0  -5 -2.8 0  -5 -2.9 0  -5 -3 0  -5 -3.1 0  -5 -3.199999999999999 0  -5 -3.300000000000001 0  -5 -3.4 0  -5 -3.5 0  -5 -3.6 0  -5 -3.699999999999999 0  -5 -3.800000000000001 0  -5 -3.9 0  -5 -4 0  -5 -4.1 0  -5 -4.199999999999999 0  -5 -4.300000000000001 0  -5 -4.4 0  -5 -4.5 0  -5 -4.6 0  -5 -4.699999999999999 0  -5 -4.800000000000001 0  -5 -4.9 0  1.256357008537924 0.09322659562157518 0  1.234198401409191 0.1910539894410109 0  1.200446413152161 0.2877866479146006 0  1.157726536363338 0.3761545385928692 0  1.099099946258972 0.4672745627552918 0  1.032555616848013 0.5507893514191256 0  0.953922199821059 0.6312566038829269 0  0.8666196165055083 0.7061977480012924 0  0.7747831115331455 0.7714493298262343 0  0.6728193256014238 0.8288964759696488 0  0.5594994064113697 0.8811304477918764 0  0.4460305115864577 0.9261046505285222 0  0.3351502244205649 0.95773883311004 0  0.2087996662862063 0.9801118487755913 0  0.08771345605343019 0.998686389583088 0  -0.02635654717591698 1.002206836667503 0  -0.1440336670748761 0.9885100793343142 0  -0.273807144206028 0.968705464200836 0  -0.3938933507625099 0.9445463789549868 0  -0.5034878867975193 0.9093328387471639 0  -0.6130960662291357 0.8629035390184959 0  -0.7150707639718166 0.8078182929083183 0  -0.8095612613014783 0.7433004038168841 0  -0.9011935253642033 0.6694887234610304 0  -0.9877940438272172 0.5891651719218333 0  -1.062776369976331 0.5075256929678037 0  -1.124926544698172 0.4231071977141402 0  -1.179996868854491 0.329399861616081 0  -1.21743107908988 0.242415697618128 0  -1.241793056299171 0.1486550836870582 0  -1.252102454676635 0.05255981550877796 0  -1.252053930601153 -0.05024835064541683 0  -1.241692208888411 -0.1456175728352029 0  -1.217056561993275 -0.2365082009866695 0  -1.174845327118333 -0.3317416802378935 0  -1.125225908733424 -0.4241313969348315 0  -1.064864908157214 -0.5073880815665578 0  -0.9903490195827441 -0.588186988874616 0  -0.9043576075997315 -0.6674660740216681 0  -0.8135969034276872 -0.7388793318141805 0  -0.7182509413120503 -0.7995479818881824 0  -0.6135879003298745 -0.8528921579587913 0  -0.4978126121113801 -0.9026282866330295 0  -0.3853612960662258 -0.9425524450033879 0  -0.270474781550145 -0.9685591500788325 0  -0.1423170386613306 -0.9885536649161207 0  -0.02753069977671188 -1.00144875290089 0  0.08620601408787661 -0.9940351048290051 0  0.2153044117844476 -0.9760348972931879 0  0.3380759847427992 -0.9559266642606784 0  0.4502417134694384 -0.9247787399844364 0  0.5622266222377261 -0.8803577673271115 0  0.6740881442508578 -0.8287461968081098 0  0.7745836866006783 -0.772644803610667 0  0.8659231421924839 -0.7077775583241279 0  0.951780740505599 -0.6319289134692077 0  1.03012901736489 -0.5494231803816133 0  1.100697356322564 -0.4656363208126026 0  1.15857580412395 -0.3764890268285781 0  1.202258487705813 -0.2858655067483182 0  1.234930409921351 -0.1903997842371943 0  1.256773663709843 -0.09330492294560018 0  -2.448523011767725 4.918045810842465 0  -2.448393473420388 -4.910417738017999 0  4.910339356458215 2.447839624544448 0  4.918473292634781 -2.449306393093474 0  2.446116500742422 -4.895636106916475 0  2.440551463126927 4.899401586790242 0  -4.910366695056618 -2.447866645314617 0  -4.91036399789405 2.447870793345783 0  -1.748475550499928 4.910902940696581 0  -1.744263550356075 -4.914348240590496 0  4.920494648576393 1.744019689590081 0  4.909008709474861 -1.747773788787448 0  -4.909303741964956 -1.747508629170569 0  -4.910127391274844 1.747254358717422 0  1.745745385542044 4.904750821037888 0  1.747153472594472 -4.892880589089993 0  -1.148794598990565 4.908662077724267 0  -1.12965532287627 -4.91659076361189 0  -4.90898458914425 -1.147847271886739 0  -4.90880251019563 1.147648021187518 0  1.143791950765709 -4.912768340377605 0  1.148804222975896 4.908648186527307 0  4.909123674389934 1.146122015354984 0  4.919980434676407 -1.151913746924646 0  -0.5466441098188081 -4.909838005460044 0  -0.5464296374244355 4.918540569840609 0  -4.907687585658469 -0.5486636733203052 0  -4.907711566316086 0.5472220139115891 0  4.907003721579521 -0.5489816518645658 0  4.918692124837541 0.5457445124991807 0  0.5424242103755628 -4.896687395893726 0  0.5511570271725779 4.915356299877377 0  -4.911821948630164 -3.048234346239406 0  4.918397920728387 3.046254312308227 0  4.911329205798379 -3.048209288810222 0  -4.912670291722026 3.045326575751463 0  3.055253518572477 -4.917319506170823 0  -3.048580655308534 -4.91125052211578 0  3.052149084494832 4.913329617317251 0  -3.048026818846327 4.912141075435943 0  -4.906784647064673 -0.04990316997977062 0  0.04511832222795208 -4.911786546134297 0  0.04956529102559357 4.918829132100584 0  4.913858322102343 -0.0512859201301462 0  3.545582030607774 -4.918982733087758 0  -3.548859282820961 4.9
[...]
<PointData  Vectors="f_6234"> 
<DataArray  type="Float64"  Name="f_6234"  NumberOfComponents="3" format="ascii">1.1172810572078374e-40 7.4029988117084754e-41 0.0000000000000000e+00  -6.0232937069582303e-41 4.1913426407968416e-41 0.0000000000000000e+00  -3.4138686070946802e-41 -2.3489028282021518e-41 0.0000000000000000e+00  1.0916085657352059e-40 -7.9435256934568972e-41 0.0000000000000000e+00  1.1222942207503410e+01 -3.1372830360555146e-02 0.0000000000000000e+00  -1.9164165469694181e-40 -1.3394241055878724e-40 0.0000000000000000e+00  4.2875338083615237e-40 2.4574845001275332e-40 0.0000000000000000e+00  -1.3184476669335640e-39 -7.4308330534329920e-40 0.0000000000000000e+00  -2.6993090868243381e-39 -2.6277230676776752e-39 0.0000000000000000e+00  -5.7249376772310894e-40 2.1050737745635958e-39 0.0000000000000000e+00  -6.7364369632310911e-38 -4.6636139120955019e-38 0.0000000000000000e+00  1.1823427331625624e-37 8.5979306110564245e-38 0.0000000000000000e+00  -1.3359607147272979e-36 -1.2263769630080388e-36 0.0000000000000000e+00  1.0537941639903421e-35 1.0346018682007885e-35 0.0000000000000000e+00  -3.3288176812240098e-35 -3.6869555427744022e-35 0.0000000000000000e+00  4.2056061512378204e-35 7.1699284914196651e-35 0.0000000000000000e+00  -6.7133228838686557e-35 -1.6852129974612799e-34 0.0000000000000000e+00  -1.8348680281752662e-34 -3.2069215717744645e-34 0.0000000000000000e+00  1.7719774939558617e-33 2.5117808943002781e-33 0.0000000000000000e+00  -8.1003871760812241e-33 -1.1372088658825414e-32 0.0000000000000000e+00  4.0645443700676323e-32 5.7067408609378210e-32 0.0000000000000000e+00  -9.8073012512944771e-32 -1.3908634352883696e-31 0.0000000000000000e+00  -1.0485380873695523e-31 -1.0404998592819309e-31 0.0000000000000000e+00  7.1754673082528703e-31 7.6144400653133852e-31 0.0000000000000000e+00  5.0479733820778797e-32 2.9926982080868729e-31 0.0000000000000000e+00  -3.6235932216438551e-31 1.5084114669827952e-31 0.0000000000000000e+00  -6.6409383845200992e-31 -1.6308975156183169e-30 0.0000000000000000e+00  9.7954776703835866e-31 7.5723028913317156e-30 0.0000000000000000e+00  -4.9905622336272436e-30 -1.9142431845775890e-29 0.0000000000000000e+00  -3.4123159398892325e-30 -1.6399788171333593e-29 0.0000000000000000e+00  3.3145005085831689e-29 1.1005565800488424e-28 0.0000000000000000e+00  8.9362782637201224e-30 2.4222680598464530e-29 0.0000000000000000e+00  -1.3677787805761296e-29 -1.0884540928947383e-28 0.0000000000000000e+00  -5.5314157090881478e-30 3.6463974054680281e-29 0.0000000000000000e+00  -1.1162193669312528e-30 2.6060627119626168e-28 0.0000000000000000e+00  -3.2389783499490817e-29 -2.6217013531092982e-28 0.0000000000000000e+00  -1.1606850872179746e-29 -1.4496858258324596e-28 0.0000000000000000e+00  -2.0726043785931899e-29 -9.2816731333019491e-29 0.0000000000000000e+00  -4.3401181145009240e-29 1.0038872441517809e-28 0.0000000000000000e+00  -1.8107291355074136e-30 1.5383446223613760e-28 0.0000000000000000e+00  1.5301591431727327e-28 2.9115958680091548e-28 0.0000000000000000e+00  1.7986382419101935e-28 4.5742089873654221e-28 0.0000000000000000e+00  1.2959232489365118e-28 3.6813780213307976e-28 0.0000000000000000e+00  1.0837338304892537e-28 1.7277560152316605e-28 0.0000000000000000e+00  4.9314114532391798e-29 1.5912066194166479e-28 0.0000000000000000e+00  -2.4675131709501199e-28 -2.3630729872852085e-28 0.0000000000000000e+00  -1.2888200555258439e-28 1.5271429250790930e-28 0.0000000000000000e+00  9.5099634739858265e-29 -4.6254881601770929e-29 0.0000000000000000e+00  -4.3608237891568173e-29 1.2243684653822353e-27 0.0000000000000000e+00  -4.4958762056554628e-29 -2.9660220491299799e-28 0.0000000000000000e+00  -5.7529146723406366e-29 -1.8052666645088198e-27 0.0000000000000000e+00  -2.0083381641140676e-29 -1.6777016717370435e-27 0.0000000000000000e+00  2.1574393011990681e-29 -1.4320118210989411e-27 0.0000000000000000e+00  1.3786907015995242e-29 -1.5679830744678576e-27 0.0000000000000000e+00  4.9657724712051776e-29 -1.8763051701531667e-27 0.0000000000000000e+00  5.0924747935287265e-29 -8.4489025798592606e-28 0.0000000000000000e+00  1.2024811936410328e-28 -1.9485418833169033e-27 0.0000000000000000e+00  1.2037326512912386e-28 -1.3908050878443146e-27 0.0000000000000000e+00  1.2736846159255769e-28 -1.6055717194650972e-27 0.0000000000000000e+00  7.9556473923008981e-29 -7.9776284446962141e-28 0.0000000000000000e+00  1.8715088273067293e-28 -2.2997334430895947e-27 0.0000000000000000e+00  1.4501568132167277e-28 -1.9506482449481090e-27 0.0000000000000000e+00  5.6588904045978066e-29 -5.9760553330590135e-28 0.0000000000000000e+00  -4.5117286246577252e-29 6.6119863681767594e-28 0.0000000000000000e+00  6.4058084144187372e-30 2.0223984952155817e-28 0.0000000000000000e+00  -1.3918390458578215e-29 5.9634295172611059e-28 0.0000000000000000e+00  2.8203013981168513e-29 4.4924458112485638e-28 0.0000000000000000e+00  1.6661462394971011e-29 2.0853186978730482e-28 0.0000000000000000e+00  -4.9286590107794193e-29 5.5253049117007592e-29 0.0000000000000000e+00  -4.4611306403023707e-29 -5.7918867697052312e-29 0.0000000000000000e+00  3.6710951948419518e-30 -4.0139504974180255e-29 0.0000000000000000e+00  -5.4235223401775391e-29 6.6563178455964956e-29 0.0000000000000000e+00  -3.9165664337020226e-29 1.1608983455299721e-28 0.0000000000000000e+00  4.9125991494473410e-29 -1.8526300158377502e-28 0.0000000000000000e+00  5.2530724967321672e-29 -3.2004932038894490e-28 0.0000000000000000e+00  6.6878117632056337e-30 -2.8693149835096258e-29 0.0000000000000000e+00  -2.6970066251543701e-29 1.3619423266472811e-28 0.0000000000000000e+00  3.3701567788236147e-30 -1.8885174589802029e-29 0.0000000000000000e+00  -4.7446161145800216e-30 1.5645171089641049e-29 0.0000000000000000e+00  3.9229439158322976e-30 -5.2294814341672755e-30 0.0000000000000000e+00  1.3965900327421813e-29 -4.2791458283940929e-29 0.0000000000000000e+00  -2.0835026266587017e-30 5.6712033071892415e-30 0.0000000000000000e+00  -1.0244143244775756e-30 3.2899146281988707e-30 0.0000000000000000e+00  3.7931164649520070e-30 -7.5574311441355414e-30 0.0000000000000000e+00  4.4968045778886720e-31 -5.4775061310030562e-31 0.0000000000000000e+00  -4.8783632685866107e-31 7.8629724461097679e-31 0.0000000000000000e+00  2.3584790928399459e-31 -3.7495771102257716e-31 0.0000000000000000e+00  -2.5869790739840981e-32 4.1766034067537462e-32 0.0000000000000000e+00  3.0156721149900339e-33 -5.0396880916288385e-33 0.0000000000000000e+00  -2.2323053224808237e-34 6.6374848761500895e-34 0.0000000000000000e+00  -1.5407059130131559e-33 1.6408896495830622e-33 0.0000000000000000e+00  -1.9095434917426635e-34 2.5443645389538772e-34 0.0000000000000000e+00  1.5786949697413531e-34 -1.8771159156280573e-34 0.0000000000000000e+00  -2.8717992157715715e-35 3.7248173008892120e-35 0.0000000000000000e+00  1.2461775309670614e-35 -1.3266957700247540e-35 0.0000000000000000e+00  -1.3635842846481879e-36 1.4835927936549286e-36 0.0000000000000000e+00  -4.1747179398355762e-37 3.6420438529960979e-37 0.0000000000000000e+00  7.2583544337689245e-38 -8.3765558005746878e-38 0.0000000000000000e+00  -5.0772935550103399e-38 4.7106032738450177e-38 0.0000000000000000e+00  1.8572404510130016e-38 -1.5845360908888820e-38 0.0000000000000000e+00  -1.9908370059630923e-39 1.4530052176679088e-39 0.0000000000000000e+00  7.3263633840086395e-40 -6.6301246247410964e-40 0.0000000000000000e+00  -2.1407442353982044e-40 1.6962010618255206e-40 0.0000000000000000e+00  9.5948316972928362e-41 -6.3457553853191188e-41 0.0000000000000000e+00  1.7289828146694372e-41 -1.6976652068189393e-41 0.0000000000000000e+00  1.8377537289593769e-40 -1.3621355267160915e-40 0.0000000000000000e+00  -3.9930825556198604e-40 2.7964676416428175e-40 0.0000000000000000e+00  2.4097487867089603e-40 -3.5471295723202509e-40 0.0000000000000000e+00  2.1887238525729141e-39 -8.6884370363581118e-40 0.0000000000000000e+00  -9.2977449204825002e-39 5.2896168066903071e-39 0.0000000000000000e+00  1.6829267352266555e-38 -1.1988879732933541e-38 0.0000000000000000e+00  7.6490125136197416e-39 4.3775778685195091e-39 0.0000000000000000e+00  -1.4177579457787263e-37 6.5620897921379939e-38 0.0000000000000000e+00  4.1616523936745621e-37 -2.4010696548492941e-37 0.0000000000000000e+00  -3.2667914069946465e-37 2.9195166348352472e-37 0.0000000000000000e+00  -1.6913728430435108e-36 6.5923096137923525e-37 0.0000000000000000e+00  6.7399378597202932e-36 -3.5848448937871116e-36 0.0000000000000000e+00  -9.1640818563651439e-36 6.1709804345506770e-36 0.0000000000000000e+00  -1.7576468902670242e-35 6.1412488306999051e-36 0.0000000000000000e+00  1.0055872387342773e-34 -5.2794866424005827e-35 0.0000000000000000e+00  -1.4031545415534629e-34 8.8610696380399003e-35 0.0000000000000000e+00  -2.3852519485272761e-34 9.8756983297503823e-35 0.0000000000000000e+00  1.3454307287419174e-33 -7.3215966495964895e-34 0.0000000000000000e+00  -1.4455562394029523e-33 9.1229805378332902e-34 0.0000000000000000e+00  -4.4048198959176569e-33 2.2669660786782833e-33 0.0000000000000000e+00  1.5797905876585390e-32 -9.0091050579370366e-33 0.0000000000000000e+00  -3.8015589503061015e-33 2.6082460637780437e-33 0.0000000000000000e+00  -7.5395438305421780e-32 4.3421145444334541e-32 0.0000000000000000e+00  1.3025577954962143e-31 -7.4104041793690978e-32 0.0000000000000000e+00  1.9980901930427191e-31 -1.2528162249155619e-31 0.0000000000000000e+00  -8.1881093075768437e-31 4.7031038080209503e-31 0.0000000000000000e+00  -7.9463719120028146e-32 1.4475917093845280e-31 0.0000000000000000e+00  3.8897225753105992e-30 -2.2837448661467261e-30 0.0000000000000000e+00  -2.7381895865146752e-30 8.6481622880928116e-31 0.0000000000000000e+00  -1.5732324708277418e-29 9.4452200880903212e-30 0.0000000000000000e+00  2.0794777897774728e-29 -7.2227526187847571e-30 0.0000000000000000e+00  5.9540070969794018e-29 -3.6103840284648123e-29 0.0000000000000000e+00  -1.1119649046994250e-28 3.4460599160770555e-29 0.0000000000000000e+00  -2.4019296623567655e-28 1.3538902421395999e-28 0.0000000000000000e+00  5.2182597477015221e-28 -1.3447748119361861e-28 0.0000000000000000e+00  1.0445115852269122e-27 -4.9729207723706657e-28 0.0000000000000000e+00  -2.2615984194419783e-27 5.2932494293202730e-28 0.0000000000000000e+00  -5.7818636910849408e-27 2.1885988859385723e-27 0.0000000000000000e+00  7.1886406523484780e-27 -1.1878948766669391e-27 0.0000000000000000e+00  2.7019333351741764e-26 -8.4387700873961004e-27 0.0000000000000000e+00  7.8205137674543239e-27 -7.5819107091545126e-27 0.0000000000000000e+00  -7.6877650710625765e-26 1.0812059765107291e-26 0.0000000000000000e+00  -1.0636641585536736e-25 1.9961961435229220e-26 0.0000000000000000e+00  1.2367022996808186e-25 -2.6454424559455206e-26 0.0000000000000000e+00  6.6226975948113658e-25 -1.3634679161777010e-25 0.0000000000000000e+00  1.1130027312321215e-24 -2.2288732539062777e-25 0.0000000000000000e+00  1.1698700724734716e-24 -2.1822331133883196e-25 0.0000000000000000e+00  9.0045317527376892e-25 -1.2142405602891860e-25 0.0000000000000000e+00  7.5909623767736152e-25 8.5578760082736332e-28 0.0000000000000000e+00  8.9459363640483283e-25 1.0341205714464032e-25 0.0000000000000000e+00  1.0029845121410432e-24 1.4973913116790747e-25 0.0000000000000000e+00  7.9114732196346920e-25 1.2295537673932293e-25 0.0000000000000000e+00  3.2999065083579844e-25 4.5537424312246003e-26 0.0000000000000000e+00  -1.8992925653650225e-26 -1.6148911145164265e-26 0.0000000000000000e+00  -1.0251678661873043e-25 -2.5909724394631725e-26 0.0000000000000000e+00  -2.4966572444281840e-26 -2.1722653875936406e-27 0.0000000000000000e+00  3.0808183432862029e-26 1.2669060241984096e-26 0.0000000000000000e+00  2.2543564947732043e-26 8.3457539626897470e-27 0.0000000000000000e+00  3.8849418530543461e-28 3.7342109452575994e-28 0.0000000000000000e+00  -4.4735741610152704e-27 -1.4460657293419273e-27 0.0000000000000000e+00  -6.5874316757737253e-28 -1.9333168137132862e-28 0.0000000000000000e+00  9.0880275732164007e-28 3.0076227103768735e-28 0.0000000000000000e+00  1.2248381355438276e-28 3.5313087354762454e-30 0.0000000000000000e+00  -2.1495007123288018e-28 -8.9226022607930346e-29 0.0000000000000000e+00  -1.3125493269984986e-29 6.6662945526591789e-30 0.0000000000000000e+00  5.1043880970782961e-29 2.4691314713542733e-29 0.0000000000000000e+00  -2.4998160674836458e-30 -3.6959371076748132e-30 0.0000000000000000e+00  -1.1187346843865585e-29 -5.7775882189601043e-30 0.0000000000000000e+00  1.8002869452737396e-30 1.3359694114243237e-30 0.0000000000000000e+00  2.0450975568062090e-30 1.0702913604800016e-30 0.0000000000000000e+00  -7.2202174510392131e-31 -4.4600722843794808e-31 0.0000000000000000e+00  -2.9440611321173648e-31 -1.4997570448634406e-31 0.0000000000000000e+00  2.0799734431131390e-31 1.1995681276177378e-31 0.0000000000000000e+00  9.9107585318735069e-33 2.5140500012581218e-33 0.0000000000000000e+00  -4.4548328898118299e-32 -2.4393677122854981e-32 0.0000000000000000e+00  9.7141462214196608e-33 5.7258133063809512e-33 0.0000000000000000e+00  6.4205314770575528e-33 3.2987628868264837e-33 0.0000000000000000e+00  -4.0200491550495718e-33 -2.1524808571967999e-33 0.0000000000000000e+00  8.3960930454855483e-35 7.0721851742659643e-35 0.0000000000000000e+00  7.0247587905506708e-34 3.5826606581831288e-34 0.0000000000000000e+00  -2.8645681558679079e-34 -1.4817603440584225e-34 0.0000000000000000e+00  -1.9522025622162962e-35 -8.6160313492292861e-36 0.0000000000000000e+00  6.0673173874876186e-35 3.0293603430716663e-35 0.0000000000000000e+00  -2.2077096931904046e-35 -1.1167630858942977e-35 0.0000000000000000e+00  -8.2708165834182541e-37 -3.2057278079266624e-37 0.0000000000000000e+00  4.0579324464761881e-36 2.0102951489996673e-36 0.0000000000000000e+00  -1.6874502205040532e-36 -8.5825961122052769e-37 0.0000000000000000e+00  1.1361974490182651e-37 6.8577486844693902e-38 0.0000000000000000e+00  2.1617215868877662e-37 1.0702264814901940e-37 0.0000000000000000e+00  -1.2142726696942515e-37 -6.3823748751273244e-38 0.0000000000000000e+00  2.6286974210363962e-38 1.5242345729183174e-38 0.0000000000000000e+00  5.5945260680936887e-39 2.4329989155458478e-39 0.0000000000000000e+00  -6.9830790051175064e-39 -3.8248984437678370e-39 0.0000000000000000e+00  2.7795816525252744e-39 1.6859647541408658e-39 0.0000000000000000e+00  -4.0511087835011783e-40 -3.0545137472914452e-40 0.0000000000000000e+00  -2.0102208663605741e-40 -1.0563701634073036e-40 0.0000000000000000e+00  1.5010086255680285e-40 9.2402477392247769e-41 0.0000000000000000e+00  -7.8526476503148381e-41 -5.9791407704541583e-41 0.0000000000000000e+00  8.8992914671012147e-41 6.2934656198950833e-41 0.0000000000000000e+00  1.6776437049632098e-40 1.4997654428390052e-40 0.0000000000000000e+00  -3.6247064103608261e-40 -3.5808498598308691e-40 0.0000000000000000e+00  4.8038773308513525e-39 4.1676182795567103e-39 0.0000000000000000e+00  -1.4303145557997819e-38 -1.2925775699067005e-38 0.0000000000000000e+00  4.4897894132877196e-38 3.7689759031897832e-38 0.0000000000000000e+00  -1.7181801941329184e-37 -1.4922207319825285e-37 0.0000000000000000e+00  1.4062649338887292e-36 1.3468137119614539e-36 0.0000000000000000e+00  -4.2545841347523909e-36 -4.5599740378894987e-36 0.0000000000000000e+00  1.2166759562594638e-35 1.4937482119431997e-35 0.0000000000000000e+00  1.4432196083648277e-35 4.2848095483242951e-36 0.0000000000000000e+00  -2.0972738552363321e-34 -1.7651399246323448e-34 0.0000000000000000e+00  5.1058857533025124e-34 4.8933381731061158e-34 0.0000000000000000e+00  -1.9872841136337184e-33 -2.1813770867104047e-33 0.0000000000000000e+00  3.4465178063043587e-33 3.3696215215224678e-33 0.0000000000000000e+00  -9.3262545392493171e-34 -2.3573299789449799e-33 0.0000000000000000e+00  -1.8926675406442934e-32 -1.2192887953560491e-32 0.0000000000000000e+00  4.2582251047805723e-33 9.3818515471331942e-33 0.0000000000000000e+00  -6.2632731092137279e-32 -4.6784294101990743e-32 0.0000000000000000e+00  -7.9665590851506958e-33 -1.0496559851460674e-31 0.0000000000000000e+00  -2.5977028410961229e-31 -7.2198090037825672e-31 0.0000000000000000e+00  2.3971916342334627e-30 5.2757442317662751e-30 0.0000000000000000e+00  1.7014572964046337e-30 3.3589454272930009e-30 0.0000000000000000e+00  -1.2638281045026943e-29 -2.6661938483218430e-29 0.0000000000000000e+00  -5.8277538147043722e-31 -9.2964361964516818e-31 0.0000000000000000e+00  -2.3628735696075710e-30 -4.6386768719115327e-29 0.0000000000000000e+00  1.3953602019315165e-29 7.3467509641926213e-29 0.0000000000000000e+00  6.7502783232040696e-29 3.5830142158203439e-28 0.0000000000000000e+00  2.0671902734584398e-29 1.1070961831893210e-28 0.0000000000000000e+00  -3.3656268530250583e-29 -2.1100774191728740e-28 0.0000000000000000e+00  -1.1909781847842471e-28 -6.5090348908728550e-28 0.0000000000000000e+00  8.3008336500531214e-29 5.2311096772569336e-28 0.0000000000000000e+00  1.2780284476989702e-28 9.1575197710628418e-28 0.0000000000000000e+00  1.1959980942533997e-28 7.4346129228700675e-28 0.0000000000000000e+00  8.8494008493016224e-29 3.2459231710007383e-28 0.0000000000000000e+00  -1.7606063741935850e-28 -1.6832729360424405e-27 0.0000000000000000e+00  -1.0208692269560050e-29 -5.9909083739335043e-28 0.0000000000000000e+00  1.6461442290694940e-29 -3.6445921615295353e-28 0.0000000000000000e+00  -8.5669443763105232e-29 -1.1419780472043881e-27 0.0000000000000000e+00  -6.6778859701024825e-29 -1.0771099146559601e-27 0.0000000000000000e+00  -1.8770713619513011e-28 -8.2622350021572901e-28 0.0000000000000000e+00  -1.7432144324440212e-28 3.5503822957612268e-28 0.0000000000000000e+00  -9.6782746631140563e-29 1.8508405663224279e-27 0.0000000000000000e+00  -9.7564311369289040e-29 6.6452381771255509e-28 0.0000000000000000e+00  6.4531992274735880e-31 -1.0445859089893530e-27 0.0000000000000000e+00  -1.3452782620273795e-28 1.1625913304520129e-27 0.0000000000000000e+00  -1.3780204688189873e-28 1.1858895671129741e-27 0.0000000000000000e+00  -1.5217789495134771e-29 1.1990944646606146e-28 0.0000000000000000e+00  -6.3119321972032803e-29 6.6190156121626065e-28 0.0000000000000000e+00  -1.9342594291942114e-29 5.1879211221071470e-28 0.0000000000000000e+00  -1.4643969586981309e-28 1.2202125022537964e-27 0.0000000000000000e+00  -1.4892373258865547e-28 1.1801381827157923e-27 0.0000000000000000e+00  -1.3188817031741257e-29 6.0102238094398722e-28 0.0000000000000000e+00  -6.2584619731423432e-29 8.3543376527265963e-28 0.0000000000000000e+00  4.9497964037611261e-30 2.0650464804370971e-29 0.0000000000000000e+00  -1.6706957153922010e-28 1.8089146137513070e-27 0.0000000000000000e+00  -1.2307006833223243e-28 1.2050446978823427e-27 0.0000000000000000e+00  -1.5248267408048826e-28 1.3122719713562687e-27 0.0000000000000000e+00  -1.1679962367309845e-28 1.0025632109592877e-27 0.0000000000000000e+00  -8.5408573619141556e-30 -1.1687772964605669e-28 0.0000000000000000e+00  -1.0457765355378180e-28 6.1477823070792051e-28 0.0000000000000000e+00  -1.5325315746668963e-29 -1.0947371359285642e-28 0.0000000000000000e+00  3.1726993658053607e-29 -2.2088145032036302e-28 0.0000000000000000e+00  8.4304175424803141e-29 -5.7264535645321215e-28 0.0000000000000000e+00  -1.4317200727636239e-29 6.0478545820821978e-29 0.0000000000000000e+00  -4.0416156930982364e-29 1.9945808596858710e-28 0.0000000000000000e+00  -2.3071186132134015e-29 1.4943445681485039e-28 0.0000000000000000e+00  -2.3018449836320175e-30 6.8102138435811226e-29 0.0000000000000000e+00  8.9774972260643047e-30 -6.3902274437902462e-29 0.0000000000000000e+00  3.5367686760753872e-29 -2.1719609975813700e-28 0.0000000000000000e+00  6.5137336891647321e-30 -3.8171572348966165e-29 0.0000000000000000e+00  -1.0453995279398149e-29 3.8378374973595358e-29 0.0000000000000000e+00  7.7854484738387916e-30 -2.7958297293434925e-29 0.0000000000000000e+00  -2.2277853375273098e-30 1.0001135284126268e-29 0.0000000000000000e+00  -3.4023071306075468e-30 1.5745378822350375e-29 0.0000000000000000e+00  2.0885272962175293e-30 -6.0405355034794985e-30 0.0000000000000000e+00  3.0119228764642527e-30 -8.4768868481993495e-30 0.0000000000000000e+00  3.85329