<?xml version="1.0"?>
<VTKFile type="UnstructuredGrid"  version="0.1"  >
<UnstructuredGrid>
<Piece  NumberOfPoints="11902" NumberOfCells="23402">
<Points>
<DataArray  type="Float64"  NumberOfComponents="3"  format="ascii">-5 -5 0  5 -5 0  5 5 0  -5 5 0  1.234976191288194 0.001382241688373977 0  -4.9 -5 0  -4.8 -5 0  -4.7 -5 0  -4.6 -5 0  -4.5 -5 0  -4.4 -5 0  -4.3 -5 0  -4.2 -5 0  -4.1 -5 0  -4 -5 0  -3.9 -5 0  -3.8 -5 0  -3.7 -5 0  -3.6 -5 0  -3.5 -5 0  -3.4 -5 0  -3.3 -5 0  -3.2 -5 0  -3.1 -5 0  -3 -5 0  -2.9 -5 0  -2.8 -5 0  -2.7 -5 0  -2.6 -5 0  -2.5 -5 0  -2.4 -5 0  -2.3 -5 0  -2.2 -5 0  -2.1 -5 0  -2 -5 0  -1.9 -5 0  -1.8 -5 0  -1.7 -5 0  -1.6 -5 0  -1.5 -5 0  -1.4 -5 0  -1.3 -5 0  -1.2 -5 0  -1.1 -5 0  -1 -5 0  -0.9000000000000004 -5 0  -0.7999999999999998 -5 0  -0.7000000000000002 -5 0  -0.5999999999999996 -5 0  -0.5 -5 0  -0.4000000000000004 -5 0  -0.2999999999999998 -5 0  -0.2000000000000002 -5 0  -0.09999999999999964 -5 0  0 -5 0  0.09999999999999964 -5 0  0.2000000000000002 -5 0  0.2999999999999998 -5 0  0.4000000000000004 -5 0  0.5 -5 0  0.5999999999999996 -5 0  0.7000000000000002 -5 0  0.7999999999999998 -5 0  0.9000000000000004 -5 0  1 -5 0  1.1 -5 0  1.2 -5 0  1.3 -5 0  1.4 -5 0  1.5 -5 0  1.6 -5 0  1.7 -5 0  1.8 -5 0  1.9 -5 0  2 -5 0  2.1 -5 0  2.2 -5 0  2.3 -5 0  2.4 -5 0  2.5 -5 0  2.6 -5 0  2.7 -5 0  2.8 -5 0  2.9 -5 0  3 -5 0  3.1 -5 0  3.199999999999999 -5 0  3.300000000000001 -5 0  3.4 -5 0  3.5 -5 0  3.6 -5 0  3.699999999999999 -5 0  3.800000000000001 -5 0  3.9 -5 0  4 -5 0  4.1 -5 0  4.199999999999999 -5 0  4.300000000000001 -5 0  4.4 -5 0  4.5 -5 0  4.6 -5 0  4.699999999999999 -5 0  4.800000000000001 -5 0  4.9 -5 0  5 -4.9 0  5 -4.8 0  5 -4.7 0  5 -4.6 0  5 -4.5 0  5 -4.4 0  5 -4.3 0  5 -4.2 0  5 -4.1 0  5 -4 0  5 -3.9 0  5 -3.8 0  5 -3.7 0  5 -3.6 0  5 -3.5 0  5 -3.4 0  5 -3.3 0  5 -3.2 0  5 -3.1 0  5 -3 0  5 -2.9 0  5 -2.8 0  5 -2.7 0  5 -2.6 0  5 -2.5 0  5 -2.4 0  5 -2.3 0  5 -2.2 0  5 -2.1 0  5 -2 0  5 -1.9 0  5 -1.8 0  5 -1.7 0  5 -1.6 0  5 -1.5 0  5 -1.4 0  5 -1.3 0  5 -1.2 0  5 -1.1 0  5 -1 0  5 -0.9000000000000004 0  5 -0.7999999999999998 0  5 -0.7000000000000002 0  5 -0.5999999999999996 0  5 -0.5 0  5 -0.4000000000000004 0  5 -0.2999999999999998 0  5 -0.2000000000000002 0  5 -0.09999999999999964 0  5 0 0  5 0.09999999999999964 0  5 0.2000000000000002 0  5 0.2999999999999998 0  5 0.4000000000000004 0  5 0.5 0  5 0.5999999999999996 0  5 0.7000000000000002 0  5 0.7999999999999998 0  5 0.9000000000000004 0  5 1 0  5 1.1 0  5 1.2 0  5 1.3 0  5 1.4 0  5 1.5 0  5 1.6 0  5 1.7 0  5 1.8 0  5 1.9 0  5 2 0  5 2.1 0  5 2.2 0  5 2.3 0  5 2.4 0  5 2.5 0  5 2.6 0  5 2.7 0  5 2.8 0  5 2.9 0  5 3 0  5 3.1 0  5 3.199999999999999 0  5 3.300000000000001 0  5 3.4 0  5 3.5 0  5 3.6 0  5 3.699999999999999 0  5 3.800000000000001 0  5 3.9 0  5 4 0  5 4.1 0  5 4.199999999999999 0  5 4.300000000000001 0  5 4.4 0  5 4.5 0  5 4.6 0  5 4.699999999999999 0  5 4.800000000000001 0  5 4.9 0  4.9 5 0  4.8 5 0  4.7 5 0  4.6 5 0  4.5 5 0  4.4 5 0  4.3 5 0  4.2 5 0  4.1 5 0  4 5 0  3.9 5 0  3.8 5 0  3.7 5 0  3.6 5 0  3.5 5 0  3.4 5 0  3.3 5 0  3.2 5 0  3.1 5 0  3 5 0  2.9 5 0  2.8 5 0  2.7 5 0  2.6 5 0  2.5 5 0  2.4 5 0  2.3 5 0  2.2 5 0  2.1 5 0  2 5 0  1.9 5 0  1.8 5 0  1.7 5 0  1.6 5 0  1.5 5 0  1.4 5 0  1.3 5 0  1.2 5 0  1.1 5 0  1 5 0  0.9000000000000004 5 0  0.7999999999999998 5 0  0.7000000000000002 5 0  0.5999999999999996 5 0  0.5 5 0  0.4000000000000004 5 0  0.2999999999999998 5 0  0.2000000000000002 5 0  0.09999999999999964 5 0  0 5 0  -0.09999999999999964 5 0  -0.2000000000000002 5 0  -0.2999999999999998 5 0  -0.4000000000000004 5 0  -0.5 5 0  -0.5999999999999996 5 0  -0.7000000000000002 5 0  -0.7999999999999998 5 0  -0.9000000000000004 5 0  -1 5 0  -1.1 5 0  -1.2 5 0  -1.3 5 0  -1.4 5 0  -1.5 5 0  -1.6 5 0  -1.7 5 0  -1.8 5 0  -1.9 5 0  -2 5 0  -2.1 5 0  -2.2 5 0  -2.3 5 0  -2.4 5 0  -2.5 5 0  -2.6 5 0  -2.7 5 0  -2.8 5 0  -2.9 5 0  -3 5 0  -3.1 5 0  -3.199999999999999 5 0  -3.300000000000001 5 0  -3.4 5 0  -3.5 5 0  -3.6 5 0  -3.699999999999999 5 0  -3.800000000000001 5 0  -3.9 5 0  -4 5 0  -4.1 5 0  -4.199999999999999 5 0  -4.300000000000001 5 0  -4.4 5 0  -4.5 5 0  -4.6 5 0  -4.699999999999999 5 0  -4.800000000000001 5 0  -4.9 5 0  -5 4.9 0  -5 4.8 0  -5 4.7 0  -5 4.6 0  -5 4.5 0  -5 4.4 0  -5 4.3 0  -5 4.2 0  -5 4.1 0  -5 4 0  -5 3.9 0  -5 3.8 0  -5 3.7 0  -5 3.6 0  -5 3.5 0  -5 3.4 0  -5 3.3 0  -5 3.2 0  -5 3.1 0  -5 3 0  -5 2.9 0  -5 2.8 0  -5 2.7 0  -5 2.6 0  -5 2.5 0  -5 2.4 0  -5 2.3 0  -5 2.2 0  -5 2.1 0  -5 2 0  -5 1.9 0  -5 1.8 0  -5 1.7 0  -5 1.6 0  -5 1.5 0  -5 1.4 0  -5 1.3 0  -5 1.2 0  -5 1.1 0  -5 1 0  -5 0.9000000000000004 0  -5 0.7999999999999998 0  -5 0.7000000000000002 0  -5 0.5999999999999996 0  -5 0.5 0  -5 0.4000000000000004 0  -5 0.2999999999999998 0  -5 0.2000000000000002 0  -5 0.09999999999999964 0  -5 0 0  -5 -0.09999999999999964 0  -5 -0.2000000000000002 0  -5 -0.2999999999999998 0  -5 -0.4000000000000004 0  -5 -0.5 0  -5 -0.5999999999999996 0  -5 -0.7000000000000002 0  -5 -0.7999999999999998 0  -5 -0.9000000000000004 0  -5 -1 0  -5 -1.1 0  -5 -1.2 0  -5 -1.3 0  -5 -1.4 0  -5 -1.5 0  -5 -1.6 0  -5 -1.7 0  -5 -1.8 0  -5 -1.9 0  -5 -2 0  -5 -2.1 0  -5 -2.2 0  -5 -2.3 0  -5 -2.4 0  -5 -2.5 0  -5 -2.6 0  -5 -2.7 0  -5 -2.8 0  -5 -2.9 0  -5 -3 0  -5 -3.1 0  -5 -3.199999999999999 0  -5 -3.300000000000001 0  -5 -3.4 0  -5 -3.5 0  -5 -3.6 0  -5 -3.699999999999999 0  -5 -3.800000000000001 0  -5 -3.9 0  -5 -4 0  -5 -4.1 0  -5 -4.199999999999999 0  -5 -4.300000000000001 0  -5 -4.4 0  -5 -4.5 0  -5 -4.6 0  -5 -4.699999999999999 0  -5 -4.800000000000001 0  -5 -4.9 0  1.228177890583559 0.09731260507028723 0  1.208072804321173 0.1946543302144632 0  1.175320698328696 0.2913867949353224 0  1.133196958844845 0.3815169486594792 0  1.077724564747284 0.4720132041543767 0  1.013425778511633 0.5568450023079599 0  0.9374363056010607 0.6366018671235318 0  0.8525728962204222 0.7100491573276381 0  0.7613538667506878 0.7754211105410552 0  0.6604922888235965 0.8333247829030986 0  0.5520548085641426 0.8852305858572483 0  0.440962503524279 0.9280245526023642 0  0.3281984286136955 0.960884396743549 0  0.2072570728445057 0.9827923211279342 0  0.08939990075152759 0.9998267367834107 0  -0.02764585375741507 1.002795314107229 0  -0.1452475725512012 0.9908636803210282 0  -0.2680107007553648 0.9726726596059392 0  -0.3854088393286673 0.9474391923327571 0  -0.4961406012867431 0.9110757603446742 0  -0.6035007602308458 0.864933786947285 0  -0.7051342504820401 0.8104272596420821 0  -0.7991299638407549 0.7464781182202066 0  -0.8880117198453786 0.6745890183267609 0  -0.970481314530855 0.5958439980039323 0  -1.041928129110678 0.5142536496961501 0  -1.102788486218441 0.4279667116837659 0  -1.152854890167847 0.3363799927191727 0  -1.190030414936936 0.2440828674581504 0  -1.214475021420199 0.1489471470457072 0  -1.226600697664988 0.05074122308931018 0  -1.226561867523744 -0.04867518234661975 0  -1.214344319808971 -0.1463520880951182 0  -1.190100300733405 -0.2411706431061671 0  -1.151380900818624 -0.3363437913009555 0  -1.103023508516835 -0.427310008539772 0  -1.043189630091754 -0.5137150241222105 0  -0.9725091867678824 -0.5946980532891998 0  -0.8906131495407026 -0.6721628873972316 0  -0.8017988040746236 -0.7426447600340924 0  -0.7061812986328724 -0.8036442224449755 0  -0.6032696604395045 -0.8573565984596315 0  -0.4925099713703017 -0.9057403293075855 0  -0.3804158425720272 -0.9444731237577624 0  -0.2647170616784114 -0.9718575014930764 0  -0.1438944535439512 -0.990276110166509 0  -0.02786526844448589 -1.001893179106602 0  0.08974083246201812 -0.9958949315496392 0  0.2113736870520164 -0.9800204104856236 0  0.3303753175543681 -0.959261990171003 0  0.4449138831662097 -0.9266515582127082 0  0.5541637862763743 -0.884319055140271 0  0.6613351676525536 -0.8332346334798241 0  0.7614270154910923 -0.7765805401634095 0  0.8526323687325424 -0.7109523481775873 0  0.9368515239731209 -0.636315079718753 0  1.011338106219313 -0.5561821821998207 0  1.077667420807344 -0.4711982594035857 0  1.134150550326452 -0.3815846823208139 0  1.176952737643042 -0.2895195618729675 0  1.208538719477339 -0.1937614428038505 0  1.228307928884961 -0.09689284693481008 0  -2.448642404145076 4.918262106513946 0  -2.448523874796407 -4.910653943035975 0  4.910581825858037 2.448007356986305 0  4.918693346293683 -2.44945865366105 0  2.446267995527374 -4.895913245871773 0  2.440698154886238 4.899669816373715 0  -4.910607679394526 -2.448032586559692 0  -4.910605245202412 2.448036456602156 0  -1.748599617652947 4.911216287504783 0  -1.744382716948371 -4.91464942276946 0  4.920800833466582 1.74417156359875 0  4.909358350297113 -1.747947474052623 0  -4.909650200387806 -1.747680121392469 0  -4.910471008429832 1.747423786710139 0  1.745877740315918 4.90508770108066 0  1.747301503306045 -4.893258698209515 0  -1.148893653669747 4.909043283963082 0  -1.129744887778694 -4.916939682847421 0  -4.909418248693186 -1.147988434571884 0  -4.909237286160409 1.147788759627836 0  1.143885025141935 -4.913133269681886 0  1.14890294289126 4.909030631018334 0  4.909560059158414 1.146264374812494 0  4.920363828780166 -1.152039223773069 0  -0.5466961566173986 -4.910253730449257 0  -0.5464761234294204 4.918916939289159 0  -4.908191397620916 -0.5487422079518229 0  -4.908215476272325 0.5472995036077493 0  4.907515048928479 -0.5490612552236089 0  4.919139409414171 0.5458139875551796 0  0.5424812365317616 -4.897164802892155 0  0.5512053224580122 4.915747770832914 0  -4.911984590509924 -3.048371492585235 0  4.918549413565987 3.046382592119486 0  4.911493362269889 -3.048348408672115 0  -4.912831892409406 3.045462420338171 0  3.05535961504887 -4.917477247744559 0  -3.048694903529644 -4.911419395543776 0  3.05226077587721 4.913495512327073 0  -3.048140083553266 4.912308409546835 0  -4.907314677777113 -0.04991108521297714 0  0.04512155995641518 -4.912205784417125 0  0.04956939336465156 4.919215674964051 0  4.914351819629406 -0.05129295615685341 0  3.545665796817213 -4.919092786373085 0  -3.548950326197
[...]
<PointData  Vectors="f_3322"> 
<DataArray  type="Float64"  Name="f_3322"  NumberOfComponents="3" format="ascii">-9.9009003145108758e-41 -1.2611923874614625e-40 0.0000000000000000e+00  1.1299881565716196e-40 -1.3630267639380365e-40 0.0000000000000000e+00  -1.8858256940252715e-40 -1.8112380141383216e-40 0.0000000000000000e+00  -2.0712847826423834e-40 2.0878283259903347e-40 0.0000000000000000e+00  1.6220319928115064e+01 1.5582429642215713e-02 0.0000000000000000e+00  2.4293982375736440e-40 2.7985765599575179e-40 0.0000000000000000e+00  7.1679794017735936e-40 6.9790119207978666e-40 0.0000000000000000e+00  -1.7133613023505912e-39 -1.8284437088781211e-39 0.0000000000000000e+00  1.4621205855615912e-38 1.7037750744755667e-38 0.0000000000000000e+00  -4.9154693528909362e-38 -5.7040840339845872e-38 0.0000000000000000e+00  1.7877554770105008e-37 2.3340254494032616e-37 0.0000000000000000e+00  -6.5246517062263971e-37 -8.9751271398444758e-37 0.0000000000000000e+00  3.7145074649988866e-36 4.9656755613644094e-36 0.0000000000000000e+00  -2.2685751537049015e-35 -2.8561769678471955e-35 0.0000000000000000e+00  9.4952187819722164e-35 1.2107302989773590e-34 0.0000000000000000e+00  -2.1147459177291829e-34 -2.5886856720877026e-34 0.0000000000000000e+00  4.2341582649007236e-34 4.8638935985654799e-34 0.0000000000000000e+00  1.6354658008858379e-33 1.9346457979602506e-33 0.0000000000000000e+00  -6.8596231630937959e-33 -8.9635820128782042e-33 0.0000000000000000e+00  1.7932264192413511e-32 2.6190930132979041e-32 0.0000000000000000e+00  -1.0753645986027060e-31 -1.5265294030166101e-31 0.0000000000000000e+00  2.8745256749763382e-31 4.0996737479543844e-31 0.0000000000000000e+00  2.0385653909270555e-31 2.5008302600315226e-31 0.0000000000000000e+00  -1.6176634233385312e-30 -2.1012529090170533e-30 0.0000000000000000e+00  -5.2163533556572411e-31 -1.0958400521229292e-30 0.0000000000000000e+00  -8.9477702317664639e-31 -2.1763429849988825e-30 0.0000000000000000e+00  3.7171750165850691e-30 7.3267396513786997e-30 0.0000000000000000e+00  -8.3060854518825180e-30 -2.6529810943663854e-29 0.0000000000000000e+00  3.0502891607701931e-29 7.6877782541135831e-29 0.0000000000000000e+00  1.7170798096179119e-29 4.6477274354328141e-29 0.0000000000000000e+00  -1.5379997345835995e-28 -3.7513784816571030e-28 0.0000000000000000e+00  -5.9337949352387249e-29 -1.6129781530611611e-28 0.0000000000000000e+00  -9.4098312438628839e-29 -3.4508017101879366e-28 0.0000000000000000e+00  1.5259546300786862e-28 4.7641645836042391e-28 0.0000000000000000e+00  4.1911684816631619e-28 1.4784992387679167e-27 0.0000000000000000e+00  2.7437771612320832e-29 -9.1933845869270659e-29 0.0000000000000000e+00  1.6254552071829132e-28 4.3234750676449877e-28 0.0000000000000000e+00  -6.1491145517341385e-29 -2.7215756605182588e-28 0.0000000000000000e+00  -4.6103723612990751e-28 -1.5067967396104197e-27 0.0000000000000000e+00  -4.4134181028746266e-28 -1.4422346842209276e-27 0.0000000000000000e+00  -1.7105197207211765e-29 -6.0256143481571245e-29 0.0000000000000000e+00  4.3354981989001067e-28 1.6832709096515863e-27 0.0000000000000000e+00  2.7883443894641413e-28 9.9333990287806592e-28 0.0000000000000000e+00  1.1639978709486122e-29 -1.3202024819463771e-28 0.0000000000000000e+00  1.3287580203916002e-28 3.9589025712968735e-28 0.0000000000000000e+00  -1.9507912337989099e-28 8.9911917804676056e-28 0.0000000000000000e+00  -5.9715975185221637e-29 1.5760551976573419e-27 0.0000000000000000e+00  1.0238387166323139e-28 -9.3552698010772419e-28 0.0000000000000000e+00  1.4341016304499538e-28 5.1096647682939538e-27 0.0000000000000000e+00  -2.2410350860435312e-28 -2.3698518052873654e-29 0.0000000000000000e+00  -5.4510470832207734e-28 -4.4026055249101548e-27 0.0000000000000000e+00  -5.3739130386705626e-28 -2.4962534814974270e-27 0.0000000000000000e+00  -3.5224615223984597e-28 -3.6563238228436401e-27 0.0000000000000000e+00  3.3755298650561590e-30 -9.3941342621736563e-27 0.0000000000000000e+00  1.5093730098405861e-28 -1.0762392142522708e-26 0.0000000000000000e+00  -3.3962400611440809e-29 -1.8373137125584386e-27 0.0000000000000000e+00  -2.0131705583874686e-30 -5.7829599727259979e-27 0.0000000000000000e+00  -1.5071714310743796e-29 -2.0465264790073734e-27 0.0000000000000000e+00  1.1884301345079456e-28 -3.7145663183093696e-27 0.0000000000000000e+00  -1.1480551009191209e-28 1.8112062907964364e-27 0.0000000000000000e+00  3.9843988878180906e-28 -4.9508414857355054e-27 0.0000000000000000e+00  5.4301580077888244e-28 -4.5234179548395998e-27 0.0000000000000000e+00  -4.3146245712698486e-29 1.0186697845238390e-27 0.0000000000000000e+00  -7.2724220012326247e-28 6.9309146856399485e-27 0.0000000000000000e+00  -3.7105238588456662e-28 2.7674703163633241e-27 0.0000000000000000e+00  -3.2602160480268788e-28 1.5171041945190727e-27 0.0000000000000000e+00  -6.7971832473633520e-28 3.9987597632491308e-27 0.0000000000000000e+00  -3.9635791139381886e-28 2.1160993879904822e-27 0.0000000000000000e+00  4.0844511879403679e-28 -2.4675271483998151e-27 0.0000000000000000e+00  2.7438044432486468e-28 -1.1641834255822379e-27 0.0000000000000000e+00  6.0025407932391120e-29 -1.6832576477327636e-28 0.0000000000000000e+00  2.8218900364133383e-28 -8.4317547339584430e-28 0.0000000000000000e+00  1.8745415851095350e-28 -6.5987918768190451e-28 0.0000000000000000e+00  -1.6308707277455490e-28 5.7697149235318148e-28 0.0000000000000000e+00  -9.6018022274878416e-29 3.0734419990420371e-28 0.0000000000000000e+00  -7.5831895571972608e-29 2.4944824321767810e-28 0.0000000000000000e+00  1.8252142211150522e-29 -5.9602851736260244e-29 0.0000000000000000e+00  5.2013917637990884e-29 -1.5710440057134629e-28 0.0000000000000000e+00  7.7962744557875521e-29 -2.1781889291865969e-28 0.0000000000000000e+00  -8.1963260563182418e-30 1.3950525048705394e-29 0.0000000000000000e+00  -6.3438628182901395e-29 1.5435961985514100e-28 0.0000000000000000e+00  1.0306962082825884e-29 -2.4690138982628215e-29 0.0000000000000000e+00  3.6518208498672955e-30 -8.3372274975288031e-30 0.0000000000000000e+00  -1.1618445306584842e-29 2.1706048456146801e-29 0.0000000000000000e+00  -1.1632760123184927e-30 1.5295688708377244e-30 0.0000000000000000e+00  1.4323719973052735e-30 -2.2889657298714318e-30 0.0000000000000000e+00  -6.9852896566988700e-31 1.0861495871375283e-30 0.0000000000000000e+00  1.0033434061550727e-31 -1.5871121205484821e-31 0.0000000000000000e+00  -1.0798142426708252e-32 1.7059706428914360e-32 0.0000000000000000e+00  -2.2322196548820260e-33 2.8832246186129555e-33 0.0000000000000000e+00  6.3217813126862752e-33 -7.9766325140680667e-33 0.0000000000000000e+00  2.9198260074408543e-35 3.4018439011943822e-35 0.0000000000000000e+00  -2.7678215293066914e-34 3.1714353088891009e-34 0.0000000000000000e+00  2.3518293331435443e-35 -2.0122420208663712e-35 0.0000000000000000e+00  -8.4073927398669425e-36 1.0459617446507105e-35 0.0000000000000000e+00  3.0474450882878548e-36 -3.5603336662102971e-36 0.0000000000000000e+00  -1.6268017011353066e-36 1.7311285993631432e-36 0.0000000000000000e+00  4.9139369901741698e-37 -5.5445106821941803e-37 0.0000000000000000e+00  -2.4104788215385922e-37 2.5636494573764469e-37 0.0000000000000000e+00  7.9361362406625058e-38 -8.1695479737667388e-38 0.0000000000000000e+00  -1.4762304541827856e-38 1.5555023392431437e-38 0.0000000000000000e+00  5.7819606045205722e-39 -5.8603974512955823e-39 0.0000000000000000e+00  -4.4079683143046027e-40 3.8954035377047474e-40 0.0000000000000000e+00  -2.0010373417381208e-40 2.3780797394364458e-40 0.0000000000000000e+00  4.2849652511659747e-42 3.7931175840059384e-43 0.0000000000000000e+00  3.7366639058412109e-40 -3.1129781997941320e-40 0.0000000000000000e+00  -8.3512085128502424e-40 6.9062697489381351e-40 0.0000000000000000e+00  2.6343624760557890e-39 -2.4286711781185655e-39 0.0000000000000000e+00  -7.6847093740168737e-40 1.2339490093959350e-39 0.0000000000000000e+00  -1.4793969489967702e-38 1.1548985733145336e-38 0.0000000000000000e+00  5.0545388890930618e-38 -4.2471533826319800e-38 0.0000000000000000e+00  -5.7553333394429320e-38 5.3689690088186754e-38 0.0000000000000000e+00  -1.5464452806422469e-37 1.0842293405125409e-37 0.0000000000000000e+00  8.1840716779252970e-37 -6.3839891385462272e-37 0.0000000000000000e+00  -1.2757781477994218e-36 1.0546899254714172e-36 0.0000000000000000e+00  -1.6018403997675314e-36 1.0309453796682032e-36 0.0000000000000000e+00  1.1526773773077515e-35 -8.5166608797358736e-36 0.0000000000000000e+00  -2.0456317627555032e-35 1.5607321116873441e-35 0.0000000000000000e+00  -2.0285790956439536e-35 1.2981279124850960e-35 0.0000000000000000e+00  1.6731474882987479e-34 -1.1781761001147821e-34 0.0000000000000000e+00  -2.4872849060240978e-34 1.7832241956098810e-34 0.0000000000000000e+00  -4.0238775561060514e-34 2.6472949398458931e-34 0.0000000000000000e+00  2.2483914154648266e-33 -1.5045858159315744e-33 0.0000000000000000e+00  -2.0251101334038343e-33 1.3543581843822154e-33 0.0000000000000000e+00  -8.5328168343647131e-33 5.4609521795436265e-33 0.0000000000000000e+00  2.5469689880869434e-32 -1.6028069879331961e-32 0.0000000000000000e+00  4.6725305165367707e-33 -3.0488555826054841e-33 0.0000000000000000e+00  -1.4298628654850166e-31 8.5879767753066544e-32 0.0000000000000000e+00  1.7831475370958145e-31 -1.0131290439286151e-31 0.0000000000000000e+00  4.9548041988421618e-31 -2.8779752041469477e-31 0.0000000000000000e+00  -1.4016673873958109e-30 7.6145379156140031e-31 0.0000000000000000e+00  -9.3052718058753805e-31 5.6346458847386604e-31 0.0000000000000000e+00  7.6956764892289734e-30 -3.9794979803264850e-30 0.0000000000000000e+00  -1.8909678769649841e-30 4.7506851319050622e-31 0.0000000000000000e+00  -3.4709520632429897e-29 1.7126576011799107e-29 0.0000000000000000e+00  2.7455031477169759e-29 -9.8983339153355011e-30 0.0000000000000000e+00  1.4399208200833796e-28 -6.8138056137704245e-29 0.0000000000000000e+00  -1.5954351772765262e-28 5.2338642486260333e-29 0.0000000000000000e+00  -6.0881812860243923e-28 2.7131814471442674e-28 0.0000000000000000e+00  6.3868171194857068e-28 -1.6019119156158931e-28 0.0000000000000000e+00  2.5594091526640479e-27 -1.0362150662793919e-27 0.0000000000000000e+00  -1.9404953379747266e-27 2.1859182096601313e-28 0.0000000000000000e+00  -9.9190494157499335e-27 3.1886900550796422e-27 0.0000000000000000e+00  2.6926791722829219e-27 9.9403113265665644e-28 0.0000000000000000e+00  3.1416569259176426e-26 -7.2321562870996929e-27 0.0000000000000000e+00  1.5707688136922463e-26 -7.2690836281807709e-27 0.0000000000000000e+00  -8.6731897865260846e-26 1.1974598576288711e-26 0.0000000000000000e+00  -1.2994815600432878e-25 2.0506017329266489e-26 0.0000000000000000e+00  1.5205747954692004e-25 -3.4213795086397789e-26 0.0000000000000000e+00  8.5636058273866383e-25 -1.6192848488199325e-25 0.0000000000000000e+00  1.5357583870312583e-24 -2.6652354224741581e-25 0.0000000000000000e+00  1.8370289009875402e-24 -2.6857020272290382e-25 0.0000000000000000e+00  1.7592260837207251e-24 -1.5036545381133597e-25 0.0000000000000000e+00  1.7545599074813762e-24 1.8075993042095759e-26 0.0000000000000000e+00  1.8781702238957574e-24 1.6840351108820607e-25 0.0000000000000000e+00  1.7555638554823602e-24 2.2809095662738497e-25 0.0000000000000000e+00  1.1691597304949640e-24 1.7374820161045403e-25 0.0000000000000000e+00  3.6922605654877976e-25 5.5246960399354793e-26 0.0000000000000000e+00  -1.3080090902075278e-25 -2.8470211581082871e-26 0.0000000000000000e+00  -1.9167455120275032e-25 -3.5802199897081162e-26 0.0000000000000000e+00  -3.3717458930735982e-26 -4.8131691232023215e-28 0.0000000000000000e+00  5.6487015465620739e-26 1.8380122385345051e-26 0.0000000000000000e+00  3.4651634995800283e-26 9.8764325842228394e-27 0.0000000000000000e+00  -4.4089333205592316e-27 -1.8091822346974315e-27 0.0000000000000000e+00  -9.6598747653338385e-27 -3.0699392117890203e-27 0.0000000000000000e+00  -4.7628211965484445e-28 -4.2018606537792828e-31 0.0000000000000000e+00  2.4692581573581923e-27 8.9785795135616435e-28 0.0000000000000000e+00  2.7711703364178522e-28 7.0505304130548432e-29 0.0000000000000000e+00  -5.9955076599352510e-28 -2.3684262459037199e-28 0.0000000000000000e+00  -5.9628258291310917e-29 -1.6632334373986942e-29 0.0000000000000000e+00  1.3993403889143076e-28 5.9042719936952399e-29 0.0000000000000000e+00  1.0033651609235303e-30 -1.5518228934502698e-30 0.0000000000000000e+00  -3.0836046959277835e-29 -1.3768736783501388e-29 0.0000000000000000e+00  3.5772979733380253e-30 2.1669493596491731e-30 0.0000000000000000e+00  5.7138097068576024e-30 2.6750964357346943e-30 0.0000000000000000e+00  -1.8407730952278979e-30 -1.0249457666743753e-30 0.0000000000000000e+00  -8.1037755641467957e-31 -3.8314192797125923e-31 0.0000000000000000e+00  5.5818249476919731e-31 3.1551510698839060e-31 0.0000000000000000e+00  2.0942195951348597e-32 7.8400442061037811e-34 0.0000000000000000e+00  -1.1794554435389612e-31 -6.8541497210337690e-32 0.0000000000000000e+00  2.7538218131734307e-32 1.8688142021425364e-32 0.0000000000000000e+00  1.6313746264852449e-32 9.4757790534425923e-33 0.0000000000000000e+00  -1.0643009140123914e-32 -6.9778122532993903e-33 0.0000000000000000e+00  2.3179329223894100e-34 2.9411561358221282e-34 0.0000000000000000e+00  1.8568347851092266e-33 1.2441893236714318e-33 0.0000000000000000e+00  -7.1327386142484550e-34 -5.0981418157359888e-34 0.0000000000000000e+00  -8.9714598609102926e-35 -5.8675202361311614e-35 0.0000000000000000e+00  1.6554611707218053e-34 1.2085922568638456e-34 0.0000000000000000e+00  -4.8064912617560104e-35 -3.6177395263051359e-35 0.0000000000000000e+00  -9.7052733148595195e-36 -7.5462109218076674e-36 0.0000000000000000e+00  1.1943955344202406e-35 9.3652530591091924e-36 0.0000000000000000e+00  -3.2899205345025306e-36 -2.5616251474062303e-36 0.0000000000000000e+00  -6.2143361904923876e-37 -5.5251996289988708e-37 0.0000000000000000e+00  8.0888739003108704e-37 6.7854172604101943e-37 0.0000000000000000e+00  -2.5148984545498418e-37 -2.0467935121649851e-37 0.0000000000000000e+00  -1.8137821076021331e-38 -2.1792888876721870e-38 0.0000000000000000e+00  4.8017675581593018e-38 4.3706476797734550e-38 0.0000000000000000e+00  -1.9833651470672121e-38 -1.7261840831217172e-38 0.0000000000000000e+00  1.5511799100895299e-39 8.3343478814602642e-40 0.0000000000000000e+00  2.3219317338426102e-39 2.3643327818080779e-39 0.0000000000000000e+00  -1.3559858844765668e-39 -1.2828986048493356e-39 0.0000000000000000e+00  3.3265687372354351e-40 2.9049010734113142e-40 0.0000000000000000e+00  1.0335904180998840e-40 1.2883440256243670e-40 0.0000000000000000e+00  3.0203684186504328e-40 2.8585524112957133e-40 0.0000000000000000e+00  -7.0794727691226484e-40 -8.0538416723062230e-40 0.0000000000000000e+00  1.4606275396473391e-39 1.6762991904631274e-39 0.0000000000000000e+00  -9.5905072236449110e-39 -1.1334023128687349e-38 0.0000000000000000e+00  7.9275977511264884e-38 8.3536107430022218e-38 0.0000000000000000e+00  -2.1318348354950386e-37 -2.0873260379332349e-37 0.0000000000000000e+00  2.7089053125811492e-37 2.7905420610294233e-37 0.0000000000000000e+00  -3.4396782739861839e-36 -3.9890852059807750e-36 0.0000000000000000e+00  9.2723085707332531e-36 1.2400292802238290e-35 0.0000000000000000e+00  -3.5289919816860243e-35 -5.2142562274464843e-35 0.0000000000000000e+00  7.7522219305571906e-35 1.1247049407204803e-34 0.0000000000000000e+00  -1.0666885463633856e-34 -1.8849899100656063e-34 0.0000000000000000e+00  7.4299743029239991e-34 1.0906576035187424e-33 0.0000000000000000e+00  -3.9558138980121424e-35 -1.0770184040112644e-34 0.0000000000000000e+00  1.7893524207253393e-33 3.4031869769089704e-33 0.0000000000000000e+00  3.4121468648348498e-32 4.6757336554112138e-32 0.0000000000000000e+00  -1.3938907254393657e-31 -1.9767931878482967e-31 0.0000000000000000e+00  -4.9873980626834100e-31 -7.1432460692285979e-31 0.0000000000000000e+00  1.1289099200893266e-30 1.6153550438822438e-30 0.0000000000000000e+00  -5.9726339789228943e-31 -8.4848053994251828e-31 0.0000000000000000e+00  -2.8552334051627489e-30 -5.5081245958487877e-30 0.0000000000000000e+00  8.9923331528949872e-30 2.0183448124217208e-29 0.0000000000000000e+00  1.1761845385128066e-29 2.6641013763007696e-29 0.0000000000000000e+00  -7.1270158348405773e-29 -1.6907817208705317e-28 0.0000000000000000e+00  2.1721830011087959e-29 4.7634125195404271e-29 0.0000000000000000e+00  8.7349397878117518e-29 1.7949851206857930e-28 0.0000000000000000e+00  1.9076775024490388e-29 7.5173979273639257e-29 0.0000000000000000e+00  1.7753682047266131e-28 6.0514003794406999e-28 0.0000000000000000e+00  8.1935715908760437e-29 2.6763162911319137e-28 0.0000000000000000e+00  -1.6285751429538501e-28 -5.7455002217795002e-28 0.0000000000000000e+00  -3.6157630690675107e-28 -1.2300769671785635e-27 0.0000000000000000e+00  2.4472913072428052e-28 9.5127883576910511e-28 0.0000000000000000e+00  3.8718808971539894e-28 1.6535529521488057e-27 0.0000000000000000e+00  3.1193199654341043e-28 1.2893721116897070e-27 0.0000000000000000e+00  2.4207284958068322e-28 7.9192005358244724e-28 0.0000000000000000e+00  -4.5681629960898792e-28 -2.3635916524537610e-27 0.0000000000000000e+00  -5.2212817968422466e-29 -5.3569784767578655e-28 0.0000000000000000e+00  1.8915009625453229e-29 -1.6456690589532090e-28 0.0000000000000000e+00  -2.1620293104085067e-28 -1.4641083818487419e-27 0.0000000000000000e+00  -1.8056573356881245e-28 -1.3907144243907620e-27 0.0000000000000000e+00  -3.8274386275686877e-28 -2.4770689635960468e-27 0.0000000000000000e+00  -2.4951728463978396e-28 -1.1325737162927555e-27 0.0000000000000000e+00  5.5860325030766602e-30 1.1918587316401293e-27 0.0000000000000000e+00  -1.1238559839492123e-28 -4.3010707125643323e-28 0.0000000000000000e+00  -9.9486443471392016e-29 -2.3075837994751418e-27 0.0000000000000000e+00  -8.4945557369454420e-29 5.0537021617620739e-28 0.0000000000000000e+00  -8.6578095834164439e-29 3.6562579616246909e-28 0.0000000000000000e+00  1.8697810662751051e-29 -1.6082237613904423e-27 0.0000000000000000e+00  -2.8423220230996963e-30 -6.6509751565205807e-28 0.0000000000000000e+00  1.4173419405913478e-28 -1.7334504064223079e-27 0.0000000000000000e+00  -1.8923766856365443e-28 1.5098722002942208e-27 0.0000000000000000e+00  -1.8736280205232084e-28 1.4085191665644029e-27 0.0000000000000000e+00  2.9518126711179497e-28 -1.8004080768906850e-27 0.0000000000000000e+00  1.4256400615275109e-28 -5.2536614096494707e-28 0.0000000000000000e+00  3.3016656953853457e-28 -2.1751092550371032e-27 0.0000000000000000e+00  5.4681522948600974e-29 8.7757455767009202e-28 0.0000000000000000e+00  6.5307992546207427e-29 1.9654717718229274e-28 0.0000000000000000e+00  3.7221464618471573e-28 -1.2019547367639322e-27 0.0000000000000000e+00  2.0872311413290861e-28 -6.3447728374626128e-28 0.0000000000000000e+00  4.7233668521286206e-28 -2.6036222753556870e-27 0.0000000000000000e+00  7.2769262644478090e-28 -3.5489810283834888e-27 0.0000000000000000e+00  8.7045849131692763e-28 -4.5317138753461959e-27 0.0000000000000000e+00  2.1990773892933454e-28 -1.1423629786814145e-27 0.0000000000000000e+00  -3.7057575142405248e-28 1.5401638315900196e-27 0.0000000000000000e+00  -5.4373756791268793e-28 2.4569611676793241e-27 0.0000000000000000e+00  -5.9494258205826166e-28 2.5939232822448665e-27 0.0000000000000000e+00  -1.2367324885487755e-28 5.6066579767190073e-28 0.0000000000000000e+00  1.4828375320322048e-28 -5.5595611157079921e-28 0.0000000000000000e+00  9.4536825087190975e-29 -4.0591813240325730e-28 0.0000000000000000e+00  4.0033221610354056e-28 -1.5533769356484408e-27 0.0000000000000000e+00  1.7764520901834728e-28 -6.2833760697975405e-28 0.0000000000000000e+00  -1.5062545713247325e-28 5.3141645249932065e-28 0.0000000000000000e+00  -1.0894906492290931e-29 6.1596749295909834e-30 0.0000000000000000e+00  2.0969069083891898e-29 -5.6200439175356688e-29 0.0000000000000000e+00  4.5411020643087093e-29 -1.2215762636398924e-28 0.0000000000000000e+00  -1.0432150958640405e-29 2.5565079113039633e-29 0.0000000000000000e+00  -1.5441902452448676e-29 3.6618663984892201e-29 0.0000000000000000e+00  9.11024750