<?xml version="1.0"?>
<VTKFile type="UnstructuredGrid"  version="0.1"  >
<UnstructuredGrid>
<Piece  NumberOfPoints="11902" NumberOfCells="23402">
<Points>
<DataArray  type="Float64"  NumberOfComponents="3"  format="ascii">-5 -5 0  5 -5 0  5 5 0  -5 5 0  1.219370407094949 0.001359465498024146 0  -4.9 -5 0  -4.8 -5 0  -4.7 -5 0  -4.6 -5 0  -4.5 -5 0  -4.4 -5 0  -4.3 -5 0  -4.2 -5 0  -4.1 -5 0  -4 -5 0  -3.9 -5 0  -3.8 -5 0  -3.7 -5 0  -3.6 -5 0  -3.5 -5 0  -3.4 -5 0  -3.3 -5 0  -3.2 -5 0  -3.1 -5 0  -3 -5 0  -2.9 -5 0  -2.8 -5 0  -2.7 -5 0  -2.6 -5 0  -2.5 -5 0  -2.4 -5 0  -2.3 -5 0  -2.2 -5 0  -2.1 -5 0  -2 -5 0  -1.9 -5 0  -1.8 -5 0  -1.7 -5 0  -1.6 -5 0  -1.5 -5 0  -1.4 -5 0  -1.3 -5 0  -1.2 -5 0  -1.1 -5 0  -1 -5 0  -0.9000000000000004 -5 0  -0.7999999999999998 -5 0  -0.7000000000000002 -5 0  -0.5999999999999996 -5 0  -0.5 -5 0  -0.4000000000000004 -5 0  -0.2999999999999998 -5 0  -0.2000000000000002 -5 0  -0.09999999999999964 -5 0  0 -5 0  0.09999999999999964 -5 0  0.2000000000000002 -5 0  0.2999999999999998 -5 0  0.4000000000000004 -5 0  0.5 -5 0  0.5999999999999996 -5 0  0.7000000000000002 -5 0  0.7999999999999998 -5 0  0.9000000000000004 -5 0  1 -5 0  1.1 -5 0  1.2 -5 0  1.3 -5 0  1.4 -5 0  1.5 -5 0  1.6 -5 0  1.7 -5 0  1.8 -5 0  1.9 -5 0  2 -5 0  2.1 -5 0  2.2 -5 0  2.3 -5 0  2.4 -5 0  2.5 -5 0  2.6 -5 0  2.7 -5 0  2.8 -5 0  2.9 -5 0  3 -5 0  3.1 -5 0  3.199999999999999 -5 0  3.300000000000001 -5 0  3.4 -5 0  3.5 -5 0  3.6 -5 0  3.699999999999999 -5 0  3.800000000000001 -5 0  3.9 -5 0  4 -5 0  4.1 -5 0  4.199999999999999 -5 0  4.300000000000001 -5 0  4.4 -5 0  4.5 -5 0  4.6 -5 0  4.699999999999999 -5 0  4.800000000000001 -5 0  4.9 -5 0  5 -4.9 0  5 -4.8 0  5 -4.7 0  5 -4.6 0  5 -4.5 0  5 -4.4 0  5 -4.3 0  5 -4.2 0  5 -4.1 0  5 -4 0  5 -3.9 0  5 -3.8 0  5 -3.7 0  5 -3.6 0  5 -3.5 0  5 -3.4 0  5 -3.3 0  5 -3.2 0  5 -3.1 0  5 -3 0  5 -2.9 0  5 -2.8 0  5 -2.7 0  5 -2.6 0  5 -2.5 0  5 -2.4 0  5 -2.3 0  5 -2.2 0  5 -2.1 0  5 -2 0  5 -1.9 0  5 -1.8 0  5 -1.7 0  5 -1.6 0  5 -1.5 0  5 -1.4 0  5 -1.3 0  5 -1.2 0  5 -1.1 0  5 -1 0  5 -0.9000000000000004 0  5 -0.7999999999999998 0  5 -0.7000000000000002 0  5 -0.5999999999999996 0  5 -0.5 0  5 -0.4000000000000004 0  5 -0.2999999999999998 0  5 -0.2000000000000002 0  5 -0.09999999999999964 0  5 0 0  5 0.09999999999999964 0  5 0.2000000000000002 0  5 0.2999999999999998 0  5 0.4000000000000004 0  5 0.5 0  5 0.5999999999999996 0  5 0.7000000000000002 0  5 0.7999999999999998 0  5 0.9000000000000004 0  5 1 0  5 1.1 0  5 1.2 0  5 1.3 0  5 1.4 0  5 1.5 0  5 1.6 0  5 1.7 0  5 1.8 0  5 1.9 0  5 2 0  5 2.1 0  5 2.2 0  5 2.3 0  5 2.4 0  5 2.5 0  5 2.6 0  5 2.7 0  5 2.8 0  5 2.9 0  5 3 0  5 3.1 0  5 3.199999999999999 0  5 3.300000000000001 0  5 3.4 0  5 3.5 0  5 3.6 0  5 3.699999999999999 0  5 3.800000000000001 0  5 3.9 0  5 4 0  5 4.1 0  5 4.199999999999999 0  5 4.300000000000001 0  5 4.4 0  5 4.5 0  5 4.6 0  5 4.699999999999999 0  5 4.800000000000001 0  5 4.9 0  4.9 5 0  4.8 5 0  4.7 5 0  4.6 5 0  4.5 5 0  4.4 5 0  4.3 5 0  4.2 5 0  4.1 5 0  4 5 0  3.9 5 0  3.8 5 0  3.7 5 0  3.6 5 0  3.5 5 0  3.4 5 0  3.3 5 0  3.2 5 0  3.1 5 0  3 5 0  2.9 5 0  2.8 5 0  2.7 5 0  2.6 5 0  2.5 5 0  2.4 5 0  2.3 5 0  2.2 5 0  2.1 5 0  2 5 0  1.9 5 0  1.8 5 0  1.7 5 0  1.6 5 0  1.5 5 0  1.4 5 0  1.3 5 0  1.2 5 0  1.1 5 0  1 5 0  0.9000000000000004 5 0  0.7999999999999998 5 0  0.7000000000000002 5 0  0.5999999999999996 5 0  0.5 5 0  0.4000000000000004 5 0  0.2999999999999998 5 0  0.2000000000000002 5 0  0.09999999999999964 5 0  0 5 0  -0.09999999999999964 5 0  -0.2000000000000002 5 0  -0.2999999999999998 5 0  -0.4000000000000004 5 0  -0.5 5 0  -0.5999999999999996 5 0  -0.7000000000000002 5 0  -0.7999999999999998 5 0  -0.9000000000000004 5 0  -1 5 0  -1.1 5 0  -1.2 5 0  -1.3 5 0  -1.4 5 0  -1.5 5 0  -1.6 5 0  -1.7 5 0  -1.8 5 0  -1.9 5 0  -2 5 0  -2.1 5 0  -2.2 5 0  -2.3 5 0  -2.4 5 0  -2.5 5 0  -2.6 5 0  -2.7 5 0  -2.8 5 0  -2.9 5 0  -3 5 0  -3.1 5 0  -3.199999999999999 5 0  -3.300000000000001 5 0  -3.4 5 0  -3.5 5 0  -3.6 5 0  -3.699999999999999 5 0  -3.800000000000001 5 0  -3.9 5 0  -4 5 0  -4.1 5 0  -4.199999999999999 5 0  -4.300000000000001 5 0  -4.4 5 0  -4.5 5 0  -4.6 5 0  -4.699999999999999 5 0  -4.800000000000001 5 0  -4.9 5 0  -5 4.9 0  -5 4.8 0  -5 4.7 0  -5 4.6 0  -5 4.5 0  -5 4.4 0  -5 4.3 0  -5 4.2 0  -5 4.1 0  -5 4 0  -5 3.9 0  -5 3.8 0  -5 3.7 0  -5 3.6 0  -5 3.5 0  -5 3.4 0  -5 3.3 0  -5 3.2 0  -5 3.1 0  -5 3 0  -5 2.9 0  -5 2.8 0  -5 2.7 0  -5 2.6 0  -5 2.5 0  -5 2.4 0  -5 2.3 0  -5 2.2 0  -5 2.1 0  -5 2 0  -5 1.9 0  -5 1.8 0  -5 1.7 0  -5 1.6 0  -5 1.5 0  -5 1.4 0  -5 1.3 0  -5 1.2 0  -5 1.1 0  -5 1 0  -5 0.9000000000000004 0  -5 0.7999999999999998 0  -5 0.7000000000000002 0  -5 0.5999999999999996 0  -5 0.5 0  -5 0.4000000000000004 0  -5 0.2999999999999998 0  -5 0.2000000000000002 0  -5 0.09999999999999964 0  -5 0 0  -5 -0.09999999999999964 0  -5 -0.2000000000000002 0  -5 -0.2999999999999998 0  -5 -0.4000000000000004 0  -5 -0.5 0  -5 -0.5999999999999996 0  -5 -0.7000000000000002 0  -5 -0.7999999999999998 0  -5 -0.9000000000000004 0  -5 -1 0  -5 -1.1 0  -5 -1.2 0  -5 -1.3 0  -5 -1.4 0  -5 -1.5 0  -5 -1.6 0  -5 -1.7 0  -5 -1.8 0  -5 -1.9 0  -5 -2 0  -5 -2.1 0  -5 -2.2 0  -5 -2.3 0  -5 -2.4 0  -5 -2.5 0  -5 -2.6 0  -5 -2.7 0  -5 -2.8 0  -5 -2.9 0  -5 -3 0  -5 -3.1 0  -5 -3.199999999999999 0  -5 -3.300000000000001 0  -5 -3.4 0  -5 -3.5 0  -5 -3.6 0  -5 -3.699999999999999 0  -5 -3.800000000000001 0  -5 -3.9 0  -5 -4 0  -5 -4.1 0  -5 -4.199999999999999 0  -5 -4.300000000000001 0  -5 -4.4 0  -5 -4.5 0  -5 -4.6 0  -5 -4.699999999999999 0  -5 -4.800000000000001 0  -5 -4.9 0  1.21304256023224 0.09824920432912441 0  1.19361585822927 0.1959203159958061 0  1.161463382213047 0.2928743269522006 0  1.120023216549372 0.3836566384087851 0  1.065842079836969 0.4741958007886123 0  1.002463997855644 0.5591348453651086 0  0.9278266452124787 0.6389077236534711 0  0.8440943623536808 0.7119515093643936 0  0.7535569688505328 0.7774263596158751 0  0.6541248636554279 0.8356608097346695 0  0.5474214071272463 0.8870685655414946 0  0.4372456249360687 0.9293762750068946 0  0.3250192751973786 0.962259808079636 0  0.2060169143135748 0.9844792334045676 0  0.08914478372947213 1.000293270243477 0  -0.02771650954795473 1.003164641983793 0  -0.1449574610314604 0.9923228823335131 0  -0.2653946796784555 0.9743593076263013 0  -0.3815685864134096 0.9486470559021127 0  -0.4918637105571264 0.9122245211263085 0  -0.5979927083786233 0.8663568057041459 0  -0.6988261490360375 0.8117166252331126 0  -0.792230964487822 0.7483100675671779 0  -0.8797965229890402 0.6771263793264185 0  -0.9604803564126848 0.5987364186987304 0  -1.030423310691033 0.5167371963789836 0  -1.090397765583431 0.4301657775881138 0  -1.139169874727792 0.3383924095482677 0  -1.175603220062813 0.2451780233810388 0  -1.199855457666237 0.1493687171004509 0  -1.212054319114857 0.0507148557552517 0  -1.212029485827284 -0.04876395194041428 0  -1.199735766424128 -0.146993887777213 0  -1.176034603212921 -0.2427127893023666 0  -1.138257379760741 -0.3381753948348759 0  -1.090694301909866 -0.4291758770430986 0  -1.031552304522355 -0.5160042780807066 0  -0.9622816222871264 -0.5974864015258685 0  -0.8820737361143787 -0.6746188240103684 0  -0.7943234193727066 -0.7445533480017137 0  -0.6993850969142892 -0.8056690905278389 0  -0.5979770513556562 -0.8597084329031152 0  -0.4886351537967046 -0.9073345958813536 0  -0.3773984030010543 -0.9457035908212449 0  -0.2622406716254492 -0.9732742457072694 0  -0.1435805238116995 -0.9915787207432439 0  -0.02764190618224417 -1.002237144979489 0  0.08967532870878915 -0.9970243355873889 0  0.2095590892007647 -0.9819176416189316 0  0.3269623525800548 -0.9605982916814116 0  0.4409820984926286 -0.9279673082689176 0  0.5493498558658403 -0.8861387159560589 0  0.6549199205739057 -0.8354371963328627 0  0.7536773626457437 -0.7785284138659777 0  0.8441388083294517 -0.7127791619558029 0  0.9272767456661724 -0.6384566939297125 0  1.00071384614314 -0.558501209916441 0  1.065667573690068 -0.4735198941210396 0  1.121008846105507 -0.3837024419057506 0  1.163007834949037 -0.2911744292341082 0  1.193978838802353 -0.1950404789980514 0  1.213105301284336 -0.09778845631844825 0  -2.448701009319342 4.918369888128428 0  -2.448587707622917 -4.910771503178721 0  4.910702059924374 2.448091584239647 0  4.918802477080241 -2.449535243620372 0  2.44634227845814 -4.896051341262934 0  2.440769990703846 4.899803384196113 0  -4.910726963378591 -2.448115909678395 0  -4.910724797517517 2.448119765986832 0  -1.748660353904645 4.911371935606814 0  -1.744440833725073 -4.914798866722501 0  4.920952937405294 1.744247895734072 0  4.909532042700413 -1.748034971348255 0  -4.909821994941844 -1.747766333558529 0  -4.910641542190206 1.747509101372192 0  1.745942246391473 4.905254957156196 0  1.747373807315865 -4.893446494989854 0  -1.148942092077502 4.909232163508126 0  -1.129788438457301 -4.917112400218758 0  -4.909633565239158 -1.148059450025735 0  -4.909453285102838 1.147859701790333 0  1.143930344912718 -4.913314045903348 0  1.148950823578169 4.909220065188756 0  4.909777113867077 1.146335944153815 0  4.920554523249157 -1.152102522043462 0  -0.5467214125078266 -4.910459206616524 0  -0.5464989338657567 4.919103087691981 0  -4.908441774988703 -0.5487817109773908 0  -4.908465975652017 0.5473386136218051 0  4.907769579662384 -0.5491015067394946 0  4.919362064837183 0.5458488690743468 0  0.5425089459557791 -4.897400845965613 0  0.5512285670687715 4.915941361417221 0  -4.91206498051939 -3.048440286912891 0  4.918624421263481 3.046446952864257 0  4.911574655897495 -3.048418308015632 0  -4.912911878392768 3.045530661289426 0  3.055411794790298 -4.917556049542384 0  -3.048750990174227 -4.91150364450794 0  3.052315660622476 4.913578318008232 0  -3.048195814132534 4.912391997935464 0  -4.907578181955459 -0.04991500866477998 0  0.04512314228451774 -4.912412921778696 0  0.04957115369589158 4.919406735716004 0  4.914597536952193 -0.05129663825993819 0  3.54570707546217 -4.919147857368423 0  -3.548995199
[...]
<PointData  Vectors="f_2802"> 
<DataArray  type="Float64"  Name="f_2802"  NumberOfComponents="3" format="ascii">-1.1183193735984315e-40 -1.3230432319966509e-40 0.0000000000000000e+00  1.3232413892464817e-40 -1.4977840222763625e-40 0.0000000000000000e+00  -1.9745054548012287e-40 -1.9149421158010482e-40 0.0000000000000000e+00  -2.2486186898099956e-40 2.2725918202113038e-40 0.0000000000000000e+00  1.6031188669201995e+01 -9.6727113568859990e-02 0.0000000000000000e+00  2.6627530425407645e-40 2.9431150679384555e-40 0.0000000000000000e+00  7.1356025352038333e-40 7.1635101970585899e-40 0.0000000000000000e+00  -1.6478590108094039e-39 -1.8077695592467391e-39 0.0000000000000000e+00  1.5071442200951746e-38 1.7357174086250757e-38 0.0000000000000000e+00  -4.9553457241729268e-38 -5.6798358521373768e-38 0.0000000000000000e+00  1.8148340307763905e-37 2.2763470391942367e-37 0.0000000000000000e+00  -6.5331152402839193e-37 -8.6008732103080774e-37 0.0000000000000000e+00  3.8461467387182192e-36 5.0031213313378673e-36 0.0000000000000000e+00  -2.3961346690934157e-35 -3.0028998649772812e-35 0.0000000000000000e+00  9.8772727746484602e-35 1.2594120601854616e-34 0.0000000000000000e+00  -2.1813273800253550e-34 -2.7325628652493647e-34 0.0000000000000000e+00  4.4052830707710688e-34 5.3232176159839176e-34 0.0000000000000000e+00  1.6357765395802066e-33 2.0260864483988218e-33 0.0000000000000000e+00  -7.0216463691301296e-33 -9.3904113420601892e-33 0.0000000000000000e+00  1.9078632917520467e-32 2.7810766162103795e-32 0.0000000000000000e+00  -1.1204437645999041e-31 -1.6117143783711492e-31 0.0000000000000000e+00  2.9737192610940313e-31 4.3010453973343477e-31 0.0000000000000000e+00  1.9649265477161541e-31 2.6427807109440037e-31 0.0000000000000000e+00  -1.5831823741404048e-30 -2.2012444997598421e-30 0.0000000000000000e+00  -5.9051331626534260e-31 -1.1306248234988230e-30 0.0000000000000000e+00  -1.2248328715966159e-30 -2.4837902017115641e-30 0.0000000000000000e+00  4.0506719527365984e-30 7.6641819500477125e-30 0.0000000000000000e+00  -9.0471109882629739e-30 -2.4809830406904160e-29 0.0000000000000000e+00  3.2905767855850927e-29 7.5699220011414526e-29 0.0000000000000000e+00  1.8718719838328011e-29 4.6244116941276077e-29 0.0000000000000000e+00  -1.6540401358627069e-28 -3.7952331308661384e-28 0.0000000000000000e+00  -6.1296078328583367e-29 -1.5595902527388605e-28 0.0000000000000000e+00  -1.0125579271819344e-28 -3.2175575512199236e-28 0.0000000000000000e+00  1.6619375936030096e-28 4.6533663558501242e-28 0.0000000000000000e+00  4.7085791023253993e-28 1.4579174397916119e-27 0.0000000000000000e+00  2.3535786711926800e-30 -9.6438057608255322e-29 0.0000000000000000e+00  1.5599365171360105e-28 4.1991141507508144e-28 0.0000000000000000e+00  -7.4341255098521016e-29 -2.6786883956012651e-28 0.0000000000000000e+00  -4.7038930871353632e-28 -1.4774532264317590e-27 0.0000000000000000e+00  -4.4062644135934607e-28 -1.4381846410878515e-27 0.0000000000000000e+00  -1.0841049519564035e-29 -9.6739277999379958e-29 0.0000000000000000e+00  4.4932983456369049e-28 1.7008653816685407e-27 0.0000000000000000e+00  2.7661771727220491e-28 1.0127388219266934e-27 0.0000000000000000e+00  8.2995467672467870e-31 -1.5170870464009567e-28 0.0000000000000000e+00  1.2197826454322318e-28 4.0853144526438151e-28 0.0000000000000000e+00  -8.7247164756808013e-29 9.7774098613438236e-28 0.0000000000000000e+00  4.2870229561041777e-29 1.6743541391057351e-27 0.0000000000000000e+00  3.1396204928860700e-29 -9.9460686296290244e-28 0.0000000000000000e+00  2.9957045534091735e-28 5.3726769581127924e-27 0.0000000000000000e+00  -1.7146522661732795e-28 -1.0692041423864887e-29 0.0000000000000000e+00  -5.1242708919314905e-28 -4.5927535528393427e-27 0.0000000000000000e+00  -4.2873304188715552e-28 -2.6095533467076421e-27 0.0000000000000000e+00  -3.0162584750089571e-28 -3.7891570328972190e-27 0.0000000000000000e+00  -7.6331329540115289e-29 -9.7266455671933724e-27 0.0000000000000000e+00  7.7289312410262399e-29 -1.1147052738257568e-26 0.0000000000000000e+00  -2.0338015285536294e-29 -1.9059190276750885e-27 0.0000000000000000e+00  4.6674503643197978e-29 -5.9809400335078244e-27 0.0000000000000000e+00  4.7574254837194292e-29 -2.0916104201400916e-27 0.0000000000000000e+00  1.9691493388334351e-28 -3.8327048217926927e-27 0.0000000000000000e+00  -1.3552475114660601e-28 1.8631737650135767e-27 0.0000000000000000e+00  4.9284278087445211e-28 -5.1014455818851238e-27 0.0000000000000000e+00  6.2133990897974264e-28 -4.6480655199987904e-27 0.0000000000000000e+00  -7.0172241786395841e-29 1.0319451653145168e-27 0.0000000000000000e+00  -9.3404306867714292e-28 7.0951161694207804e-27 0.0000000000000000e+00  -4.5171738662265981e-28 2.8254319273129962e-27 0.0000000000000000e+00  -3.4705587189839064e-28 1.5744720143611115e-27 0.0000000000000000e+00  -7.9700055111573609e-28 4.0749945071134533e-27 0.0000000000000000e+00  -4.6679829613772936e-28 2.1576415854083522e-27 0.0000000000000000e+00  5.0137976891884948e-28 -2.4871634242468516e-27 0.0000000000000000e+00  3.0733113473192175e-28 -1.1690298917770273e-27 0.0000000000000000e+00  6.6348571713750021e-29 -1.9504606887932584e-28 0.0000000000000000e+00  2.9963550042853871e-28 -8.6512255458488926e-28 0.0000000000000000e+00  2.1330595604660950e-28 -6.7813449827688481e-28 0.0000000000000000e+00  -1.8433164921797722e-28 5.8451148704643259e-28 0.0000000000000000e+00  -1.1656415218027621e-28 3.5000981693215962e-28 0.0000000000000000e+00  -9.1558261624552589e-29 2.6494174946621417e-28 0.0000000000000000e+00  1.7952879438415285e-29 -5.7016401460962001e-29 0.0000000000000000e+00  6.3726806646311698e-29 -1.7017191330025107e-28 0.0000000000000000e+00  9.3283989821519264e-29 -2.3236228481302516e-28 0.0000000000000000e+00  -7.3812213388825223e-30 1.3646861982251996e-29 0.0000000000000000e+00  -7.1494231860069556e-29 1.6013719920252918e-28 0.0000000000000000e+00  1.1637735058397765e-29 -2.5832597716963313e-29 0.0000000000000000e+00  4.0398869473249986e-30 -8.4391722121368650e-30 0.0000000000000000e+00  -1.2087949843447266e-29 2.2111099409615002e-29 0.0000000000000000e+00  -1.1223610416262554e-30 1.5355677641435671e-30 0.0000000000000000e+00  1.4540401898261983e-30 -2.3328595336668183e-30 0.0000000000000000e+00  -7.2401214659887253e-31 1.1325874887809723e-30 0.0000000000000000e+00  9.8525739703192120e-32 -1.5607014186574611e-31 0.0000000000000000e+00  -1.0988789951833451e-32 1.7149164745009927e-32 0.0000000000000000e+00  -1.6293481868729692e-33 2.1411851700467761e-33 0.0000000000000000e+00  6.3112007685043648e-33 -8.2048289122187348e-33 0.0000000000000000e+00  1.3948256869742942e-34 -1.1799798988302700e-34 0.0000000000000000e+00  -3.2397258026916815e-34 3.9205867170508010e-34 0.0000000000000000e+00  3.2131740935273863e-35 -3.4752282782808801e-35 0.0000000000000000e+00  -1.1596333803570687e-35 1.4576690871274418e-35 0.0000000000000000e+00  3.4160891940022524e-36 -4.0651533325849187e-36 0.0000000000000000e+00  -1.5600519411222053e-36 1.7049255712039230e-36 0.0000000000000000e+00  4.7847822296965411e-37 -5.4169405143308446e-37 0.0000000000000000e+00  -2.3680700154287256e-37 2.5572574067781883e-37 0.0000000000000000e+00  7.8706013847005271e-38 -8.2807345480794617e-38 0.0000000000000000e+00  -1.5060317655503031e-38 1.6064972513852922e-38 0.0000000000000000e+00  5.9851777448097143e-39 -6.1636335945430956e-39 0.0000000000000000e+00  -4.2804913125141829e-40 3.9952092859449400e-40 0.0000000000000000e+00  -2.3169587060769562e-40 2.6049562961483438e-40 0.0000000000000000e+00  4.2406038818885476e-44 2.4545475154057161e-42 0.0000000000000000e+00  3.7225195576797702e-40 -3.2193243240021288e-40 0.0000000000000000e+00  -8.4128199954881845e-40 7.1736762130076656e-40 0.0000000000000000e+00  2.8243616536725103e-39 -2.5857341597112991e-39 0.0000000000000000e+00  -1.1989204996349277e-39 1.4570769929922891e-39 0.0000000000000000e+00  -1.4649444349489827e-38 1.1784607560360712e-38 0.0000000000000000e+00  5.2669086262369140e-38 -4.4384292397417953e-38 0.0000000000000000e+00  -6.4664735517423001e-38 5.7902216614330414e-38 0.0000000000000000e+00  -1.4658507721735368e-37 1.0675241774803459e-37 0.0000000000000000e+00  8.3560205856454114e-37 -6.5525329596660200e-37 0.0000000000000000e+00  -1.3668534742564801e-36 1.1083004231299765e-36 0.0000000000000000e+00  -1.4642228270762587e-36 9.7320776461719083e-37 0.0000000000000000e+00  1.1670875119727991e-35 -8.6206974548836518e-36 0.0000000000000000e+00  -2.1506120790913738e-35 1.6132521624991683e-35 0.0000000000000000e+00  -1.8671587425718677e-35 1.2094487050177015e-35 0.0000000000000000e+00  1.6911596760832657e-34 -1.1787250159505923e-34 0.0000000000000000e+00  -2.6010156211977126e-34 1.8278319168927119e-34 0.0000000000000000e+00  -3.8910118495147709e-34 2.5279579370363190e-34 0.0000000000000000e+00  2.2779253744230191e-33 -1.4927219714167858e-33 0.0000000000000000e+00  -2.1400192131643373e-33 1.3968628093168196e-33 0.0000000000000000e+00  -8.4694008922258392e-33 5.2651500542897103e-33 0.0000000000000000e+00  2.5906451056779421e-32 -1.5843812610966544e-32 0.0000000000000000e+00  3.7159275336664831e-33 -2.1970661895496005e-33 0.0000000000000000e+00  -1.4344813478815261e-31 8.2888112347980803e-32 0.0000000000000000e+00  1.8338267457380078e-31 -1.0117391052628636e-31 0.0000000000000000e+00  4.9024189469840531e-31 -2.7002301330407552e-31 0.0000000000000000e+00  -1.4143310282435048e-30 7.3709118963431205e-31 0.0000000000000000e+00  -8.9090225024051764e-31 4.9500588891443962e-31 0.0000000000000000e+00  7.6845808746096541e-30 -3.7709857438512644e-30 0.0000000000000000e+00  -2.0414613237711466e-30 6.5522674602310065e-31 0.0000000000000000e+00  -3.4399310282848998e-29 1.5894550989324564e-29 0.0000000000000000e+00  2.7727841630697117e-29 -1.0150971748769203e-29 0.0000000000000000e+00  1.4182841205131855e-28 -6.1923164698379495e-29 0.0000000000000000e+00  -1.5871461096029076e-28 5.2334851789168827e-29 0.0000000000000000e+00  -5.9681701509624141e-28 2.4214568609141668e-28 0.0000000000000000e+00  6.2954521614232816e-28 -1.6708222209482617e-28 0.0000000000000000e+00  2.5014515122172161e-27 -9.1510361759678919e-28 0.0000000000000000e+00  -1.9016275481526786e-27 2.9400818448739654e-28 0.0000000000000000e+00  -9.6743800252093193e-27 2.8429868787599322e-27 0.0000000000000000e+00  2.6114829621872157e-27 5.6911349489415888e-28 0.0000000000000000e+00  3.0548750461768328e-26 -6.5808403136605486e-27 0.0000000000000000e+00  1.5102660575099310e-26 -5.6781662245402364e-27 0.0000000000000000e+00  -8.5293898031469873e-26 1.2030721368506520e-26 0.0000000000000000e+00  -1.2903078608713812e-25 1.9211769989412517e-26 0.0000000000000000e+00  1.4446835315912592e-25 -2.7976714817903391e-26 0.0000000000000000e+00  8.3465987472094203e-25 -1.3224458259030098e-25 0.0000000000000000e+00  1.5096690496451698e-24 -2.1186145283175975e-25 0.0000000000000000e+00  1.8222910985444369e-24 -2.0814361437574940e-25 0.0000000000000000e+00  1.7625436501159522e-24 -1.1470193541198214e-25 0.0000000000000000e+00  1.7674743493484919e-24 1.3074280229501429e-26 0.0000000000000000e+00  1.8870942963284172e-24 1.2950778745780541e-25 0.0000000000000000e+00  1.7540150129071131e-24 1.8062497212476717e-25 0.0000000000000000e+00  1.1599721681804355e-24 1.4158061320184046e-25 0.0000000000000000e+00  3.5945842845810643e-25 4.6049822545941184e-26 0.0000000000000000e+00  -1.3706437400317688e-25 -2.4980987846893258e-26 0.0000000000000000e+00  -1.9420451345081313e-25 -3.2457268187015813e-26 0.0000000000000000e+00  -3.4355302508268775e-26 -1.7887973328930505e-27 0.0000000000000000e+00  5.6327388012346434e-26 1.5677071135726400e-26 0.0000000000000000e+00  3.4528309682206823e-26 8.8018361569421950e-27 0.0000000000000000e+00  -4.5628171189118879e-27 -1.6248877732742587e-27 0.0000000000000000e+00  -9.7962702408758673e-27 -2.8775634715432620e-27 0.0000000000000000e+00  -5.2429047107877105e-28 -5.6768823759614255e-29 0.0000000000000000e+00  2.4960694165305448e-27 8.3869918346016371e-28 0.0000000000000000e+00  3.0187362516246422e-28 8.4122235282262071e-29 0.0000000000000000e+00  -6.0222290374891528e-28 -2.2222908096886961e-28 0.0000000000000000e+00  -6.6790425435721821e-29 -2.0825788865450200e-29 0.0000000000000000e+00  1.4019421623953336e-28 5.6125725000157006e-29 0.0000000000000000e+00  2.7065014616783557e-30 -9.2556475337525989e-32 0.0000000000000000e+00  -3.0990897461945321e-29 -1.3321779395724550e-29 0.0000000000000000e+00  3.2565055725176466e-30 1.7755010662760192e-30 0.0000000000000000e+00  5.7872198717869785e-30 2.6570485876831352e-30 0.0000000000000000e+00  -1.7967439014217820e-30 -9.3616464737789540e-31 0.0000000000000000e+00  -8.3201193484940486e-31 -3.9649349526380299e-31 0.0000000000000000e+00  5.5605435386459732e-31 3.0099032476001577e-31 0.0000000000000000e+00  2.5283031079931214e-32 6.9492527915330019e-33 0.0000000000000000e+00  -1.1905117315606004e-31 -6.7251650295031195e-32 0.0000000000000000e+00  2.7120573511269899e-32 1.7188768050481626e-32 0.0000000000000000e+00  1.6734326303845013e-32 9.6866840743949067e-33 0.0000000000000000e+00  -1.0732388334466162e-32 -6.7877750676122571e-33 0.0000000000000000e+00  1.7633235773705604e-34 2.0060807939897107e-34 0.0000000000000000e+00  1.8994354278659366e-33 1.2497323166502079e-33 0.0000000000000000e+00  -7.1898092507918492e-34 -4.9677400847200661e-34 0.0000000000000000e+00  -9.7239932316678012e-35 -6.5151921700142350e-35 0.0000000000000000e+00  1.6999945151500654e-34 1.2171120990029742e-34 0.0000000000000000e+00  -4.8320917618086511e-35 -3.5550876730026293e-35 0.0000000000000000e+00  -1.0543051968737320e-35 -8.0518861363924854e-36 0.0000000000000000e+00  1.2350655885729886e-35 9.5230258045180882e-36 0.0000000000000000e+00  -3.3033015912229525e-36 -2.5473615944815217e-36 0.0000000000000000e+00  -6.9686126037021585e-37 -5.9440014222198321e-37 0.0000000000000000e+00  8.4649429831130421e-37 6.9913983353476400e-37 0.0000000000000000e+00  -2.5464880995237582e-37 -2.0726335379505923e-37 0.0000000000000000e+00  -2.3769666903037313e-38 -2.4658929842488726e-38 0.0000000000000000e+00  5.1308050528754167e-38 4.5764265712540459e-38 0.0000000000000000e+00  -2.0467868156306168e-38 -1.7818324253448724e-38 0.0000000000000000e+00  1.2592993995151545e-39 7.2313249183415854e-40 0.0000000000000000e+00  2.5794853090557806e-39 2.5262101167783355e-39 0.0000000000000000e+00  -1.4380017348219079e-39 -1.3497234842590574e-39 0.0000000000000000e+00  3.3590658140028693e-40 2.9954245214035046e-40 0.0000000000000000e+00  1.2414675308411813e-40 1.4129439119562671e-40 0.0000000000000000e+00  3.0881643801613391e-40 3.0045283580551068e-40 0.0000000000000000e+00  -7.8361303131372063e-40 -8.6821224978652397e-40 0.0000000000000000e+00  1.5915460944780570e-39 1.7909891265340726e-39 0.0000000000000000e+00  -1.0628307010322197e-38 -1.2160029102232633e-38 0.0000000000000000e+00  8.3655302374733070e-38 8.8465294088017075e-38 0.0000000000000000e+00  -2.1597407760730340e-37 -2.1631301083658319e-37 0.0000000000000000e+00  2.6823164331094612e-37 2.8046052047445846e-37 0.0000000000000000e+00  -3.5717162405809526e-36 -4.1478437591265430e-36 0.0000000000000000e+00  1.0026727857836951e-35 1.3022218899217770e-35 0.0000000000000000e+00  -3.9731592134073727e-35 -5.5706633577345794e-35 0.0000000000000000e+00  8.7806575784540094e-35 1.2279850173261737e-34 0.0000000000000000e+00  -1.4216865953791171e-34 -2.2744748810141067e-34 0.0000000000000000e+00  8.8943028083798474e-34 1.2645493892337266e-33 0.0000000000000000e+00  -3.2936218917907935e-34 -4.7408413291739555e-34 0.0000000000000000e+00  2.7723233657278279e-33 4.4649641178964600e-33 0.0000000000000000e+00  3.5420274264038775e-32 4.9904721954792976e-32 0.0000000000000000e+00  -1.5234888250990791e-31 -2.1924940116982304e-31 0.0000000000000000e+00  -4.9892749058486695e-31 -7.3469508727414043e-31 0.0000000000000000e+00  1.0752836340381648e-30 1.5826556470639618e-30 0.0000000000000000e+00  -4.3536923108539290e-31 -6.1117591640200210e-31 0.0000000000000000e+00  -2.8680307418105272e-30 -5.3679654234931079e-30 0.0000000000000000e+00  8.7712203837405766e-30 1.8579849928855407e-29 0.0000000000000000e+00  1.2126266033626944e-29 2.6142813554020255e-29 0.0000000000000000e+00  -7.5445004070116372e-29 -1.6764380690945451e-28 0.0000000000000000e+00  2.3691719150368162e-29 4.9685691960572174e-29 0.0000000000000000e+00  8.9030089540326359e-29 1.8263811961252731e-28 0.0000000000000000e+00  2.3067402344005452e-29 7.3556289976605027e-29 0.0000000000000000e+00  2.0858238660557667e-28 6.1793448807148501e-28 0.0000000000000000e+00  9.3634522267127531e-29 2.8020606429828225e-28 0.0000000000000000e+00  -2.1074390086467981e-28 -6.5069726860091247e-28 0.0000000000000000e+00  -3.6982212899688671e-28 -1.1458992099358324e-27 0.0000000000000000e+00  2.7830384114151536e-28 9.3952347387085567e-28 0.0000000000000000e+00  4.6471971386825344e-28 1.6963004387173261e-27 0.0000000000000000e+00  3.2289607608113540e-28 1.2121145197917823e-27 0.0000000000000000e+00  2.0078907831584035e-28 6.6351242936081911e-28 0.0000000000000000e+00  -5.3922765705714904e-28 -2.3595007101634980e-27 0.0000000000000000e+00  -1.1267149714922607e-28 -6.3397704157633527e-28 0.0000000000000000e+00  -1.7728518767131204e-29 -2.1291083631571152e-28 0.0000000000000000e+00  -2.5717788754409230e-28 -1.4453774723092522e-27 0.0000000000000000e+00  -2.1752145403129825e-28 -1.3505761042257301e-27 0.0000000000000000e+00  -3.5750109960785072e-28 -2.2174636520216830e-27 0.0000000000000000e+00  -1.7674642177806386e-28 -9.1910778829839676e-28 0.0000000000000000e+00  9.0666703581298062e-29 1.2173134006669551e-27 0.0000000000000000e+00  -6.9455347004387204e-29 -3.1893664012850302e-28 0.0000000000000000e+00  -1.3362826667155758e-28 -2.1667101179217545e-27 0.0000000000000000e+00  -2.8218561839955053e-29 5.3966118753673477e-28 0.0000000000000000e+00  -3.8936706336365194e-29 4.0278220888557508e-28 0.0000000000000000e+00  1.8123237195219056e-30 -1.4899639524611233e-27 0.0000000000000000e+00  9.7003772170568189e-31 -5.9005084159513733e-28 0.0000000000000000e+00  1.0940625618488545e-28 -1.6303366145192351e-27 0.0000000000000000e+00  -1.4642333505299599e-28 1.5397113105116032e-27 0.0000000000000000e+00  -1.5744740147574141e-28 1.4315797085099256e-27 0.0000000000000000e+00  2.3972531856536798e-28 -1.7074379660384431e-27 0.0000000000000000e+00  1.0734698499273532e-28 -4.5777533622249980e-28 0.0000000000000000e+00  3.0436392240157774e-28 -2.1391635722114476e-27 0.0000000000000000e+00  -1.6392916931845631e-29 1.0075858865746000e-27 0.0000000000000000e+00  1.8427614895224243e-29 2.8117313585277318e-28 0.0000000000000000e+00  2.9628301447205430e-28 -1.0571476239508472e-27 0.0000000000000000e+00  1.5799718761333876e-28 -5.4070507340237211e-28 0.0000000000000000e+00  4.8788688578351515e-28 -2.5646239046495361e-27 0.0000000000000000e+00  7.2242392761769947e-28 -3.4139827994200055e-27 0.0000000000000000e+00  9.3821809003785613e-28 -4.4445256783815685e-27 0.0000000000000000e+00  2.5734027782211654e-28 -1.1580327979234600e-27 0.0000000000000000e+00  -3.5819453415197685e-28 1.4167170595610611e-27 0.0000000000000000e+00  -6.0225421854148849e-28 2.4132355526381589e-27 0.0000000000000000e+00  -6.7635301442121752e-28 2.5805676862894595e-27 0.0000000000000000e+00  -1.5630375596707098e-28 5.8634086618201358e-28 0.0000000000000000e+00  1.5325670743465023e-28 -5.1510491826934596e-28 0.0000000000000000e+00  1.1766704625016518e-28 -4.2881995291556733e-28 0.0000000000000000e+00  4.9281401162951853e-28 -1.6200984108232347e-27 0.0000000000000000e+00  2.1378377303384996e-28 -6.4777070988407954e-28 0.0000000000000000e+00  -1.7960582694944896e-28 5.4083540224040733e-28 0.0000000000000000e+00  -1.0892323109623322e-29 1.1560268174252647e-29 0.0000000000000000e+00  2.3322348215542261e-29 -5.8187437725634670e-29 0.0000000000000000e+00  5.2580637923107588e-29 -1.2779908071695544e-28 0.0000000000000000e+00  -1.1682283889397645e-29 2.6708256217653054e-29 0.0000000000000000e+00  -1.7241178552258202e-29 3.7709258681544686e-29 0.0000000000000000e+00  1.1949542