<?xml version="1.0"?>
<VTKFile type="UnstructuredGrid"  version="0.1"  >
<UnstructuredGrid>
<Piece  NumberOfPoints="11902" NumberOfCells="23402">
<Points>
<DataArray  type="Float64"  NumberOfComponents="3"  format="ascii">-5 -5 0  5 -5 0  5 5 0  -5 5 0  1.261126123029412 0.001323512349028628 0  -4.9 -5 0  -4.8 -5 0  -4.7 -5 0  -4.6 -5 0  -4.5 -5 0  -4.4 -5 0  -4.3 -5 0  -4.2 -5 0  -4.1 -5 0  -4 -5 0  -3.9 -5 0  -3.8 -5 0  -3.7 -5 0  -3.6 -5 0  -3.5 -5 0  -3.4 -5 0  -3.3 -5 0  -3.2 -5 0  -3.1 -5 0  -3 -5 0  -2.9 -5 0  -2.8 -5 0  -2.7 -5 0  -2.6 -5 0  -2.5 -5 0  -2.4 -5 0  -2.3 -5 0  -2.2 -5 0  -2.1 -5 0  -2 -5 0  -1.9 -5 0  -1.8 -5 0  -1.7 -5 0  -1.6 -5 0  -1.5 -5 0  -1.4 -5 0  -1.3 -5 0  -1.2 -5 0  -1.1 -5 0  -1 -5 0  -0.9000000000000004 -5 0  -0.7999999999999998 -5 0  -0.7000000000000002 -5 0  -0.5999999999999996 -5 0  -0.5 -5 0  -0.4000000000000004 -5 0  -0.2999999999999998 -5 0  -0.2000000000000002 -5 0  -0.09999999999999964 -5 0  0 -5 0  0.09999999999999964 -5 0  0.2000000000000002 -5 0  0.2999999999999998 -5 0  0.4000000000000004 -5 0  0.5 -5 0  0.5999999999999996 -5 0  0.7000000000000002 -5 0  0.7999999999999998 -5 0  0.9000000000000004 -5 0  1 -5 0  1.1 -5 0  1.2 -5 0  1.3 -5 0  1.4 -5 0  1.5 -5 0  1.6 -5 0  1.7 -5 0  1.8 -5 0  1.9 -5 0  2 -5 0  2.1 -5 0  2.2 -5 0  2.3 -5 0  2.4 -5 0  2.5 -5 0  2.6 -5 0  2.7 -5 0  2.8 -5 0  2.9 -5 0  3 -5 0  3.1 -5 0  3.199999999999999 -5 0  3.300000000000001 -5 0  3.4 -5 0  3.5 -5 0  3.6 -5 0  3.699999999999999 -5 0  3.800000000000001 -5 0  3.9 -5 0  4 -5 0  4.1 -5 0  4.199999999999999 -5 0  4.300000000000001 -5 0  4.4 -5 0  4.5 -5 0  4.6 -5 0  4.699999999999999 -5 0  4.800000000000001 -5 0  4.9 -5 0  5 -4.9 0  5 -4.8 0  5 -4.7 0  5 -4.6 0  5 -4.5 0  5 -4.4 0  5 -4.3 0  5 -4.2 0  5 -4.1 0  5 -4 0  5 -3.9 0  5 -3.8 0  5 -3.7 0  5 -3.6 0  5 -3.5 0  5 -3.4 0  5 -3.3 0  5 -3.2 0  5 -3.1 0  5 -3 0  5 -2.9 0  5 -2.8 0  5 -2.7 0  5 -2.6 0  5 -2.5 0  5 -2.4 0  5 -2.3 0  5 -2.2 0  5 -2.1 0  5 -2 0  5 -1.9 0  5 -1.8 0  5 -1.7 0  5 -1.6 0  5 -1.5 0  5 -1.4 0  5 -1.3 0  5 -1.2 0  5 -1.1 0  5 -1 0  5 -0.9000000000000004 0  5 -0.7999999999999998 0  5 -0.7000000000000002 0  5 -0.5999999999999996 0  5 -0.5 0  5 -0.4000000000000004 0  5 -0.2999999999999998 0  5 -0.2000000000000002 0  5 -0.09999999999999964 0  5 0 0  5 0.09999999999999964 0  5 0.2000000000000002 0  5 0.2999999999999998 0  5 0.4000000000000004 0  5 0.5 0  5 0.5999999999999996 0  5 0.7000000000000002 0  5 0.7999999999999998 0  5 0.9000000000000004 0  5 1 0  5 1.1 0  5 1.2 0  5 1.3 0  5 1.4 0  5 1.5 0  5 1.6 0  5 1.7 0  5 1.8 0  5 1.9 0  5 2 0  5 2.1 0  5 2.2 0  5 2.3 0  5 2.4 0  5 2.5 0  5 2.6 0  5 2.7 0  5 2.8 0  5 2.9 0  5 3 0  5 3.1 0  5 3.199999999999999 0  5 3.300000000000001 0  5 3.4 0  5 3.5 0  5 3.6 0  5 3.699999999999999 0  5 3.800000000000001 0  5 3.9 0  5 4 0  5 4.1 0  5 4.199999999999999 0  5 4.300000000000001 0  5 4.4 0  5 4.5 0  5 4.6 0  5 4.699999999999999 0  5 4.800000000000001 0  5 4.9 0  4.9 5 0  4.8 5 0  4.7 5 0  4.6 5 0  4.5 5 0  4.4 5 0  4.3 5 0  4.2 5 0  4.1 5 0  4 5 0  3.9 5 0  3.8 5 0  3.7 5 0  3.6 5 0  3.5 5 0  3.4 5 0  3.3 5 0  3.2 5 0  3.1 5 0  3 5 0  2.9 5 0  2.8 5 0  2.7 5 0  2.6 5 0  2.5 5 0  2.4 5 0  2.3 5 0  2.2 5 0  2.1 5 0  2 5 0  1.9 5 0  1.8 5 0  1.7 5 0  1.6 5 0  1.5 5 0  1.4 5 0  1.3 5 0  1.2 5 0  1.1 5 0  1 5 0  0.9000000000000004 5 0  0.7999999999999998 5 0  0.7000000000000002 5 0  0.5999999999999996 5 0  0.5 5 0  0.4000000000000004 5 0  0.2999999999999998 5 0  0.2000000000000002 5 0  0.09999999999999964 5 0  0 5 0  -0.09999999999999964 5 0  -0.2000000000000002 5 0  -0.2999999999999998 5 0  -0.4000000000000004 5 0  -0.5 5 0  -0.5999999999999996 5 0  -0.7000000000000002 5 0  -0.7999999999999998 5 0  -0.9000000000000004 5 0  -1 5 0  -1.1 5 0  -1.2 5 0  -1.3 5 0  -1.4 5 0  -1.5 5 0  -1.6 5 0  -1.7 5 0  -1.8 5 0  -1.9 5 0  -2 5 0  -2.1 5 0  -2.2 5 0  -2.3 5 0  -2.4 5 0  -2.5 5 0  -2.6 5 0  -2.7 5 0  -2.8 5 0  -2.9 5 0  -3 5 0  -3.1 5 0  -3.199999999999999 5 0  -3.300000000000001 5 0  -3.4 5 0  -3.5 5 0  -3.6 5 0  -3.699999999999999 5 0  -3.800000000000001 5 0  -3.9 5 0  -4 5 0  -4.1 5 0  -4.199999999999999 5 0  -4.300000000000001 5 0  -4.4 5 0  -4.5 5 0  -4.6 5 0  -4.699999999999999 5 0  -4.800000000000001 5 0  -4.9 5 0  -5 4.9 0  -5 4.8 0  -5 4.7 0  -5 4.6 0  -5 4.5 0  -5 4.4 0  -5 4.3 0  -5 4.2 0  -5 4.1 0  -5 4 0  -5 3.9 0  -5 3.8 0  -5 3.7 0  -5 3.6 0  -5 3.5 0  -5 3.4 0  -5 3.3 0  -5 3.2 0  -5 3.1 0  -5 3 0  -5 2.9 0  -5 2.8 0  -5 2.7 0  -5 2.6 0  -5 2.5 0  -5 2.4 0  -5 2.3 0  -5 2.2 0  -5 2.1 0  -5 2 0  -5 1.9 0  -5 1.8 0  -5 1.7 0  -5 1.6 0  -5 1.5 0  -5 1.4 0  -5 1.3 0  -5 1.2 0  -5 1.1 0  -5 1 0  -5 0.9000000000000004 0  -5 0.7999999999999998 0  -5 0.7000000000000002 0  -5 0.5999999999999996 0  -5 0.5 0  -5 0.4000000000000004 0  -5 0.2999999999999998 0  -5 0.2000000000000002 0  -5 0.09999999999999964 0  -5 0 0  -5 -0.09999999999999964 0  -5 -0.2000000000000002 0  -5 -0.2999999999999998 0  -5 -0.4000000000000004 0  -5 -0.5 0  -5 -0.5999999999999996 0  -5 -0.7000000000000002 0  -5 -0.7999999999999998 0  -5 -0.9000000000000004 0  -5 -1 0  -5 -1.1 0  -5 -1.2 0  -5 -1.3 0  -5 -1.4 0  -5 -1.5 0  -5 -1.6 0  -5 -1.7 0  -5 -1.8 0  -5 -1.9 0  -5 -2 0  -5 -2.1 0  -5 -2.2 0  -5 -2.3 0  -5 -2.4 0  -5 -2.5 0  -5 -2.6 0  -5 -2.7 0  -5 -2.8 0  -5 -2.9 0  -5 -3 0  -5 -3.1 0  -5 -3.199999999999999 0  -5 -3.300000000000001 0  -5 -3.4 0  -5 -3.5 0  -5 -3.6 0  -5 -3.699999999999999 0  -5 -3.800000000000001 0  -5 -3.9 0  -5 -4 0  -5 -4.1 0  -5 -4.199999999999999 0  -5 -4.300000000000001 0  -5 -4.4 0  -5 -4.5 0  -5 -4.6 0  -5 -4.699999999999999 0  -5 -4.800000000000001 0  -5 -4.9 0  1.252934333067434 0.09436468589033216 0  1.231056807380363 0.1920502904601975 0  1.197568067789126 0.2885768498993384 0  1.154733174776619 0.3771007664364522 0  1.096568456537401 0.4680051721661929 0  1.030576020693378 0.5520853557900666 0  0.9520766590643253 0.6322129236575882 0  0.8650669346180579 0.7069952367769972 0  0.7732449145836455 0.7724158759536602 0  0.6709153473458127 0.8297979862570403 0  0.5586010408917749 0.8820476947817255 0  0.445814761933677 0.9266848043904571 0  0.3337798644113968 0.958714985055601 0  0.2087510485892499 0.980453668259576 0  0.08862313829563588 0.9993776542902946 0  -0.02688466890783427 1.002736441470251 0  -0.1445631495328478 0.9889393371729818 0  -0.272537270878873 0.9697466315020015 0  -0.3920278997028512 0.9455935090118622 0  -0.5024425080532856 0.9097926799790839 0  -0.6120096767469786 0.8633162851575705 0  -0.7141362358251108 0.8085469635316443 0  -0.8088119642858516 0.743709383856719 0  -0.9000597991074512 0.6700654884766218 0  -0.9859633796636913 0.5901568844443957 0  -1.060508345146828 0.5089503331267293 0  -1.122387350328278 0.423853940996505 0  -1.176176564532628 0.3312210759804181 0  -1.214028652598134 0.2426767528266626 0  -1.23849006332172 0.1486011393325156 0  -1.249304116676221 0.05187145707517897 0  -1.249262520003767 -0.0496770289383329 0  -1.238469570081791 -0.1456581304291019 0  -1.213650192173372 -0.2376797783238464 0  -1.171986077792131 -0.3325272667990644 0  -1.122733267418147 -0.4244737988825177 0  -1.062301172349958 -0.5088226626343332 0  -0.9884401609046903 -0.5891523998611042 0  -0.9031693510412073 -0.6679781672463548 0  -0.8125198632131811 -0.7396379696910539 0  -0.7166890872256401 -0.8006201470891486 0  -0.6119435347694149 -0.8537535616514299 0  -0.4975656599871776 -0.9033350919659732 0  -0.3847662179701887 -0.9432139234577036 0  -0.2692105258611903 -0.9695035309097982 0  -0.1430049464232601 -0.9888413390280103 0  -0.02780427166602911 -1.001960400284798 0  0.08773341543033616 -0.9946243066655851 0  0.214527036520516 -0.9768787911335405 0  0.3364608008911131 -0.9570799516759536 0  0.4499788347031798 -0.9253630140671533 0  0.5610748549202508 -0.8812839791374246 0  0.6719652462947913 -0.8298034370256742 0  0.7731833952458542 -0.7735301549438939 0  0.8650021019801152 -0.7081441711697729 0  0.9508877909704037 -0.6324556096507774 0  1.027990094651551 -0.5509820693769333 0  1.097545453385918 -0.4668257826829075 0  1.155537311086526 -0.3775095581174499 0  1.19931075392883 -0.2866360048120995 0  1.2317546045364 -0.1912282049762655 0  1.253319038954047 -0.09417849533175096 0  -2.448544145552354 4.918083045304625 0  -2.448416694553063 -4.910458477511376 0  4.910381828082413 2.447868304561182 0  4.918511830690933 -2.449332316637558 0  2.446143376932409 -4.895683868206892 0  2.440577565021946 4.899447906841583 0  -4.910409055948368 -2.447894936877938 0  -4.910406319765467 2.447898943684635 0  -1.748497534374377 4.910957089251779 0  -1.744284850270762 -4.91440036678255 0  4.920548127102409 1.744045619096728 0  4.909069777626636 -1.747803279085471 0  -4.909364473223413 -1.747537806185493 0  -4.91018753777722 1.747283067814363 0  1.745769078787588 4.904809171172952 0  1.747179830418722 -4.892945984158957 0  -1.148812119876288 4.90872815670469 0  -1.129671381813134 -4.916651316743261 0  -4.909060438742186 -1.147871262031192 0  -4.90887848265234 1.147671808290496 0  1.143808567755098 -4.912831637153067 0  1.148822023107563 4.908714582078229 0  4.909199734000043 1.146146311360055 0  4.920047261028285 -1.151934993741293 0  -0.5466534699029971 -4.909910278625484 0  -0.5464377650126592 4.91860596068447 0  -4.907775564520991 -0.5486770367975485 0  -4.907799521732595 0.5472350616874233 0  4.907092720722457 -0.5489950630491249 0  4.918769974621126 0.545756404472389 0  0.542434399255675 -4.896770372295498 0  0.5511658663449259 4.915424364038199 0  -4.911850600627027 -3.04825777078575 0  4.918424518616362 3.046276277635069 0  4.911358015915778 -3.048233022834383 0  -4.912698689084411 3.045349708702537 0  3.05527228554702 -4.917346615092127 0  -3.048600941344879 -4.911279570791447 0  3.05216887899203 4.913358196408562 0  -3.048046835342687 4.912169796917279 0  -4.906877145318401 -0.04990458010366299 0  0.04511887632610743 -4.911859464928129 0  0.04956622846480994 4.91889635786721 0  4.913944178879702 -0.05128701274629315 0  3.545596818983193 -4.919001611998 0  -3.548875350936734 4.9118
[...]
<PointData  Vectors="f_5298"> 
<DataArray  type="Float64"  Name="f_5298"  NumberOfComponents="3" format="ascii">-1.3706559175041975e-42 -5.1623371923983548e-41 0.0000000000000000e+00  3.0825513390518778e-41 -6.6692636709778254e-41 0.0000000000000000e+00  -1.0308438018121825e-40 -1.0132855915826614e-40 0.0000000000000000e+00  -9.5783650497542682e-41 1.0849020704515503e-40 0.0000000000000000e+00  1.1137788476304351e+01 -2.9700294363422312e-02 0.0000000000000000e+00  4.4476409323932553e-41 1.2012946767176832e-40 0.0000000000000000e+00  4.4537239893446868e-40 3.0436754385004546e-40 0.0000000000000000e+00  -1.1737252842968898e-39 -7.2549903043959363e-40 0.0000000000000000e+00  5.7311121407380715e-39 6.8962146587824984e-39 0.0000000000000000e+00  -2.2122287219575484e-38 -2.2633595710177577e-38 0.0000000000000000e+00  4.7771322647700067e-38 8.0067049973231819e-38 0.0000000000000000e+00  -1.7478222438059351e-37 -2.7171597327571627e-37 0.0000000000000000e+00  7.3240669697746778e-37 1.3433160308577906e-36 0.0000000000000000e+00  -4.5015619042282923e-36 -7.8892611471254696e-36 0.0000000000000000e+00  2.3238659309430274e-35 3.2993322277394518e-35 0.0000000000000000e+00  -7.2121498222636423e-35 -7.1431064617444816e-35 0.0000000000000000e+00  1.6188793091391302e-34 1.2443959259785746e-34 0.0000000000000000e+00  8.0742288118193494e-34 7.8475302893136320e-34 0.0000000000000000e+00  -1.6956337945218031e-33 -1.8492601080071465e-33 0.0000000000000000e+00  -2.1318425109874127e-33 -1.5535279555311556e-33 0.0000000000000000e+00  -3.7820487437067448e-33 -7.8221683534207739e-33 0.0000000000000000e+00  3.0669770355943112e-32 4.8484030054033001e-32 0.0000000000000000e+00  -8.4814111446324301e-32 -1.5242942499181596e-31 0.0000000000000000e+00  3.6683557327841324e-31 6.6627481028093578e-31 0.0000000000000000e+00  -4.5877394209670151e-31 -7.8694566777805879e-31 0.0000000000000000e+00  -2.8682641689379446e-30 -5.6480263208470650e-30 0.0000000000000000e+00  1.9487030966348456e-30 3.7269239803927980e-30 0.0000000000000000e+00  4.3380913482312253e-30 1.3297801352529196e-29 0.0000000000000000e+00  2.2257678842589385e-30 -2.7528300198087225e-30 0.0000000000000000e+00  -3.2466706988607285e-30 -1.4798064707416916e-29 0.0000000000000000e+00  -2.1456948120892085e-30 3.4683139584090775e-29 0.0000000000000000e+00  -1.7119066280794150e-29 -3.3613932739573604e-29 0.0000000000000000e+00  -6.7832273735166378e-29 -2.4211431922294629e-28 0.0000000000000000e+00  4.2184932759821113e-29 1.5212477276966949e-28 0.0000000000000000e+00  1.0139451360022152e-28 5.6226404001764487e-28 0.0000000000000000e+00  1.2721834089540744e-29 -2.2987076749537629e-28 0.0000000000000000e+00  4.9797063398129198e-29 -2.8110824362305207e-29 0.0000000000000000e+00  -1.6546788827540779e-29 -1.2292508321599400e-28 0.0000000000000000e+00  -1.5709927054016776e-28 -1.8127460829858792e-28 0.0000000000000000e+00  -1.2446100938520555e-28 1.8549870243115731e-30 0.0000000000000000e+00  1.4084214085279759e-28 4.1890024092828783e-28 0.0000000000000000e+00  3.1153785634753602e-28 6.2572385657568089e-28 0.0000000000000000e+00  2.6387120642585389e-28 5.0576480590403298e-28 0.0000000000000000e+00  1.5920741103836450e-28 2.8990979209445098e-28 0.0000000000000000e+00  1.1958807745397293e-28 1.3737449608941895e-28 0.0000000000000000e+00  -5.8921253152771851e-28 -3.3353750365769357e-28 0.0000000000000000e+00  -3.4399460884244239e-28 3.9359749774144561e-28 0.0000000000000000e+00  3.1720658207367308e-28 -5.3337160551775357e-29 0.0000000000000000e+00  -1.4973879828366071e-28 2.6441063103410512e-27 0.0000000000000000e+00  -3.2148647478334893e-28 -3.8809931059755546e-28 0.0000000000000000e+00  -6.1514523962615815e-28 -3.2408303669347437e-27 0.0000000000000000e+00  -6.5917816702243498e-28 -2.1619817966646240e-27 0.0000000000000000e+00  -4.5782590325965909e-28 -2.7421111171264438e-27 0.0000000000000000e+00  -1.4015401959638694e-28 -5.9926948273160669e-27 0.0000000000000000e+00  -3.9627770981297410e-29 -6.7516637960931423e-27 0.0000000000000000e+00  -5.6870760951347203e-29 -1.2384084473851021e-27 0.0000000000000000e+00  -1.7628164154488033e-28 -3.7955844517722570e-27 0.0000000000000000e+00  -1.1702928287127383e-28 -1.3197608527228987e-27 0.0000000000000000e+00  -7.6250116028411167e-29 -2.3691341226123040e-27 0.0000000000000000e+00  1.9927044461692819e-29 1.1757127074682712e-27 0.0000000000000000e+00  7.8973286694481885e-29 -2.7874433901202762e-27 0.0000000000000000e+00  1.9894435613037867e-28 -2.3114218754767358e-27 0.0000000000000000e+00  2.9466914302354530e-29 6.5937285506714660e-28 0.0000000000000000e+00  -1.2038661544134381e-28 3.9854264621085117e-27 0.0000000000000000e+00  -1.0274884952937910e-28 1.4784974466370935e-27 0.0000000000000000e+00  -1.3918208431692128e-28 5.7925860234263603e-28 0.0000000000000000e+00  -2.3785673056718661e-28 1.9710508465216167e-27 0.0000000000000000e+00  -1.3021171378521625e-28 1.0207095207987650e-27 0.0000000000000000e+00  1.4891591713796668e-28 -1.3335304141209704e-27 0.0000000000000000e+00  1.3572961929027129e-28 -5.2359258019596389e-28 0.0000000000000000e+00  -6.1801936644062979e-30 -2.7376685654235283e-30 0.0000000000000000e+00  1.1557463583136019e-28 -2.6915155246860231e-28 0.0000000000000000e+00  6.9574489469765483e-29 -3.0195810061774273e-28 0.0000000000000000e+00  -8.3144082281322139e-29 3.2943531145263288e-28 0.0000000000000000e+00  -2.8186736112775183e-29 2.8000119486632085e-28 0.0000000000000000e+00  -1.8348779484452815e-29 7.2976775975204010e-29 0.0000000000000000e+00  3.1443702786813813e-29 -1.3378228192610907e-28 0.0000000000000000e+00  1.0204290152132188e-29 -1.4251036985387299e-29 0.0000000000000000e+00  2.3978033369598517e-29 -5.4081643843778147e-29 0.0000000000000000e+00  -8.9904303197223208e-31 4.8788261912261403e-31 0.0000000000000000e+00  -2.4089134999102662e-29 5.7711296037892576e-29 0.0000000000000000e+00  3.0454758888859413e-30 -7.3002760220915376e-30 0.0000000000000000e+00  1.7249526258591330e-30 -4.0604804157924396e-30 0.0000000000000000e+00  -1.6544387608390864e-30 3.7567751001303294e-30 0.0000000000000000e+00  1.7187913467645518e-31 -4.8074394116676916e-31 0.0000000000000000e+00  2.9559486035175899e-32 -2.0726511014667242e-35 0.0000000000000000e+00  1.3984438585002696e-32 -2.6358922383225868e-32 0.0000000000000000e+00  3.3052051920206069e-32 -3.1522982985065890e-32 0.0000000000000000e+00  -2.9187439776108435e-33 3.2624929898739802e-33 0.0000000000000000e+00  -3.8170267899068099e-33 3.3993574282095818e-33 0.0000000000000000e+00  3.5912682528084639e-33 -3.3975285676055133e-33 0.0000000000000000e+00  -4.0672639291568814e-34 3.5649431382424047e-34 0.0000000000000000e+00  1.2018891714822112e-35 -5.9448144911178546e-37 0.0000000000000000e+00  -2.2253881003778979e-35 2.6924940104419063e-35 0.0000000000000000e+00  4.0870829685421468e-36 -1.7564336229977565e-36 0.0000000000000000e+00  9.2785365779844875e-37 -1.1360548971599818e-36 0.0000000000000000e+00  -1.2066728288044478e-36 1.0334171315635757e-36 0.0000000000000000e+00  3.3892903655836591e-37 -3.2954941212843267e-37 0.0000000000000000e+00  -1.7076355955536732e-37 1.5713938359503516e-37 0.0000000000000000e+00  5.6717370065133875e-38 -5.1097707565875905e-38 0.0000000000000000e+00  -9.8068447939132067e-39 9.3166500176089182e-39 0.0000000000000000e+00  3.7152081503705686e-39 -3.6481542537789010e-39 0.0000000000000000e+00  -3.6684324942937347e-40 2.7928839202556834e-40 0.0000000000000000e+00  -5.9024362766765749e-41 1.2057935375102953e-40 0.0000000000000000e+00  1.0038157638506216e-41 -3.2369208037751666e-42 0.0000000000000000e+00  3.0858442047347594e-40 -2.4238533052730315e-40 0.0000000000000000e+00  -6.8382449773277529e-40 5.4467711723140343e-40 0.0000000000000000e+00  1.4542211567475597e-39 -1.6043733711958812e-39 0.0000000000000000e+00  1.3224032387839217e-39 1.7102486664692488e-40 0.0000000000000000e+00  -1.4191068434226002e-38 9.9792239679380960e-39 0.0000000000000000e+00  3.6129266607236324e-38 -3.1736554086963975e-38 0.0000000000000000e+00  -1.6791814020924639e-38 3.1112938148317883e-38 0.0000000000000000e+00  -1.9229196607288575e-37 1.1268410582338349e-37 0.0000000000000000e+00  6.9925132058893595e-37 -5.2701187345485206e-37 0.0000000000000000e+00  -7.3748437499620787e-37 7.3533187148214388e-37 0.0000000000000000e+00  -2.3676477045584598e-36 1.2554914722386820e-36 0.0000000000000000e+00  1.0653665003612042e-35 -7.4371745321163840e-36 0.0000000000000000e+00  -1.4556533392432904e-35 1.1881765463747903e-35 0.0000000000000000e+00  -2.8971300889410659e-35 1.5855830536790778e-35 0.0000000000000000e+00  1.5702501957630043e-34 -1.0553230751625801e-34 0.0000000000000000e+00  -1.9076911002936430e-34 1.4019451047350912e-34 0.0000000000000000e+00  -4.5153729464600156e-34 2.7793654125732985e-34 0.0000000000000000e+00  2.0573587218041166e-33 -1.3476145685766843e-33 0.0000000000000000e+00  -1.5558097495552925e-33 1.0295014263066886e-33 0.0000000000000000e+00  -8.1195935293691599e-33 5.2362861808896281e-33 0.0000000000000000e+00  2.2497992463080618e-32 -1.4096782986043953e-32 0.0000000000000000e+00  5.1766589749543588e-33 -4.5972429277682608e-33 0.0000000000000000e+00  -1.2485177125219727e-31 7.8438913555496263e-32 0.0000000000000000e+00  1.5406525223549137e-31 -8.4339983156431564e-32 0.0000000000000000e+00  4.1166017405565416e-31 -2.7062780747878480e-31 0.0000000000000000e+00  -1.1746614596184233e-30 6.6330112809556842e-31 0.0000000000000000e+00  -6.7993145892975390e-31 5.7148419761073886e-31 0.0000000000000000e+00  6.1772488992789768e-30 -3.5015488973763266e-30 0.0000000000000000e+00  -1.9931510271417246e-30 8.6553586388396770e-32 0.0000000000000000e+00  -2.6777026909761368e-29 1.5135025653419532e-29 0.0000000000000000e+00  2.3940945358083509e-29 -7.4117276947609368e-30 0.0000000000000000e+00  1.0759366411188598e-28 -6.0227449899412277e-29 0.0000000000000000e+00  -1.3710626662068848e-28 4.2466329505503500e-29 0.0000000000000000e+00  -4.5100698188284216e-28 2.4048821408715287e-28 0.0000000000000000e+00  5.8369770147201475e-28 -1.4144157077092280e-28 0.0000000000000000e+00  1.9495288420231873e-27 -9.4652760223168371e-28 0.0000000000000000e+00  -2.0090487281442137e-27 2.5040151432781453e-28 0.0000000000000000e+00  -8.4207574609515848e-27 3.2653001098223242e-27 0.0000000000000000e+00  3.6371286813750002e-27 1.0965053520889341e-27 0.0000000000000000e+00  2.9463047239102405e-26 -8.1116386889653728e-27 0.0000000000000000e+00  1.6997908943395997e-26 -1.1460548498922421e-26 0.0000000000000000e+00  -7.0710458874640292e-26 4.0764982331614371e-27 0.0000000000000000e+00  -1.0145998594749249e-25 1.1837553078993472e-26 0.0000000000000000e+00  1.6621753787380875e-25 -4.1469231984647299e-26 0.0000000000000000e+00  8.1195000812874735e-25 -1.7371765527715411e-25 0.0000000000000000e+00  1.3865274263508877e-24 -2.9013469643737872e-25 0.0000000000000000e+00  1.5322302164825710e-24 -3.0376153676928116e-25 0.0000000000000000e+00  1.2971903444298121e-24 -1.8394593496654228e-25 0.0000000000000000e+00  1.2040144226575487e-24 3.5833797810677612e-27 0.0000000000000000e+00  1.4031228123306834e-24 1.8561610384329548e-25 0.0000000000000000e+00  1.5030403491313414e-24 2.7261619669309601e-25 0.0000000000000000e+00  1.1540160017504291e-24 2.2649780337010275e-25 0.0000000000000000e+00  4.8002829419779392e-25 9.5074950771511520e-26 0.0000000000000000e+00  -2.1001815713427567e-26 -7.6984821902716903e-27 0.0000000000000000e+00  -1.4410559054522284e-25 -2.9170725514477712e-26 0.0000000000000000e+00  -3.7177868274670608e-26 -6.9525382022121171e-29 0.0000000000000000e+00  4.1544754231352605e-26 1.7849861706101983e-26 0.0000000000000000e+00  3.0396818015137984e-26 1.0434636266330179e-26 0.0000000000000000e+00  -6.1934100730267531e-28 -5.8389846424988968e-28 0.0000000000000000e+00  -6.9242282625286734e-27 -2.4495452451226895e-27 0.0000000000000000e+00  -8.4472933417003346e-28 -2.0472785223357605e-28 0.0000000000000000e+00  1.5566032817348490e-27 5.7946633486113372e-28 0.0000000000000000e+00  2.2979269678486103e-28 5.1672590785154649e-29 0.0000000000000000e+00  -3.6720632375448061e-28 -1.4447678172876624e-28 0.0000000000000000e+00  -3.6462449549321476e-29 -1.9120816420731319e-30 0.0000000000000000e+00  8.6579460207254234e-29 3.6055325009813724e-29 0.0000000000000000e+00  -1.4025379688557737e-30 -4.6489438084952357e-30 0.0000000000000000e+00  -1.9379191205760406e-29 -8.3329840165929192e-30 0.0000000000000000e+00  2.8900309430393723e-30 2.3372434363656126e-30 0.0000000000000000e+00  3.6201863748756755e-30 1.5198352629878474e-30 0.0000000000000000e+00  -1.3330853466471230e-30 -8.5385588115617986e-31 0.0000000000000000e+00  -5.0862212110229239e-31 -1.8130962097762933e-31 0.0000000000000000e+00  3.9809886135181471e-31 2.3364448461638307e-31 0.0000000000000000e+00  3.9323423088666547e-33 -1.8471547967869703e-32 0.0000000000000000e+00  -8.4378523121458933e-32 -4.6795256674197354e-32 0.0000000000000000e+00  2.2454854006634637e-32 1.6588086141052172e-32 0.0000000000000000e+00  1.1147596893603994e-32 5.4044743155438400e-33 0.0000000000000000e+00  -8.2179751524330848e-33 -5.1889696582745982e-33 0.0000000000000000e+00  4.9795855379522263e-34 5.3067762993533871e-34 0.0000000000000000e+00  1.3438684800731284e-33 8.0948195259459214e-34 0.0000000000000000e+00  -6.0052527389842769e-34 -3.9781301911528351e-34 0.0000000000000000e+00  -2.6038048409836122e-35 -1.0877886754788877e-35 0.0000000000000000e+00  1.2153269295170772e-34 7.9736427297471058e-35 0.0000000000000000e+00  -4.4300714054304352e-35 -2.9153857103437028e-35 0.0000000000000000e+00  -2.6153968269370504e-36 -2.4208681460777532e-36 0.0000000000000000e+00  8.4751197531287878e-36 5.9730103393474966e-36 0.0000000000000000e+00  -3.1766777083151946e-36 -2.0770810401506801e-36 0.0000000000000000e+00  -4.6725707684546573e-39 -1.2329068549399526e-37 0.0000000000000000e+00  5.0696136466720063e-37 3.9583728011938690e-37 0.0000000000000000e+00  -2.2555633524284149e-37 -1.5446388346666110e-37 0.0000000000000000e+00  2.5070566583244829e-38 6.3103762933436723e-39 0.0000000000000000e+00  2.2528973015538061e-38 2.1476824983375947e-38 0.0000000000000000e+00  -1.4553839773848966e-38 -1.1257785565151499e-38 0.0000000000000000e+00  3.4822155860085631e-39 1.9074984415328862e-39 0.0000000000000000e+00  4.5350656587547734e-40 8.0206035247413110e-40 0.0000000000000000e+00  -7.0976724132555344e-40 -6.7349515146893057e-40 0.0000000000000000e+00  2.7985694392757204e-40 2.1686811408634997e-40 0.0000000000000000e+00  -2.5406820752712778e-41 1.3363374289523153e-41 0.0000000000000000e+00  1.9540561050493173e-40 1.7925071106167165e-40 0.0000000000000000e+00  -1.6540511850812329e-40 -2.6051129301666319e-40 0.0000000000000000e+00  4.8074376711948397e-40 6.1470502163275000e-40 0.0000000000000000e+00  -2.1718676085141197e-39 -3.6710372954761504e-39 0.0000000000000000e+00  3.5502364931550980e-38 4.0730693764775299e-38 0.0000000000000000e+00  -1.3110911464981863e-37 -1.4076634813442023e-37 0.0000000000000000e+00  1.9877003140724164e-37 2.2792997759851229e-37 0.0000000000000000e+00  -1.8389101315116982e-36 -2.1784002201680303e-36 0.0000000000000000e+00  3.7424423741465914e-36 4.9315465600353815e-36 0.0000000000000000e+00  -7.4385873996247741e-36 -1.2363523908202362e-35 0.0000000000000000e+00  4.5846634518267253e-36 1.0563953273909689e-35 0.0000000000000000e+00  1.1742109247505109e-34 1.2655131581642456e-34 0.0000000000000000e+00  -2.8882786479869049e-34 -2.8888887873958178e-34 0.0000000000000000e+00  1.6424467637434374e-33 1.9704570940480476e-33 0.0000000000000000e+00  -3.4631755382970817e-33 -4.1096708419309577e-33 0.0000000000000000e+00  1.0794111714756253e-32 1.5163189997658861e-32 0.0000000000000000e+00  -9.1745925981180468e-33 -1.6146274917162665e-32 0.0000000000000000e+00  -2.2151018359728328e-31 -3.3627519980130152e-31 0.0000000000000000e+00  7.2502705536342057e-31 1.1037972551715352e-30 0.0000000000000000e+00  -9.5447073020421108e-31 -1.5212321008647828e-30 0.0000000000000000e+00  -1.4799388066152069e-30 -2.7055043180416620e-30 0.0000000000000000e+00  6.5527899525382208e-30 1.3095635359105376e-29 0.0000000000000000e+00  4.4192654973815651e-30 7.5547860347279932e-30 0.0000000000000000e+00  -2.0328107993499160e-29 -4.1940014691256570e-29 0.0000000000000000e+00  3.9750190638807868e-31 -3.8960105579942678e-30 0.0000000000000000e+00  -1.9527025519008787e-30 -7.8455873274580281e-29 0.0000000000000000e+00  2.2626116034494642e-29 1.1902976574480547e-28 0.0000000000000000e+00  1.1376159498858644e-28 5.4002716156318478e-28 0.0000000000000000e+00  3.6734819096771446e-29 1.5862909268253150e-28 0.0000000000000000e+00  -6.2453422597317459e-29 -2.1642019565934374e-28 0.0000000000000000e+00  -1.9606439978166236e-28 -1.0595209399013875e-27 0.0000000000000000e+00  1.3563684185217715e-28 7.2784980876187123e-28 0.0000000000000000e+00  2.0974922452857475e-28 1.1798817108414351e-27 0.0000000000000000e+00  1.9926441227860652e-28 1.1051470224687192e-27 0.0000000000000000e+00  1.3186267566915075e-28 7.2338611532331327e-28 0.0000000000000000e+00  -3.4437408624683835e-28 -1.9399536533376502e-27 0.0000000000000000e+00  -6.9088525222711227e-29 -3.5809552888781139e-28 0.0000000000000000e+00  -3.3968560033840444e-29 -1.1261136775946911e-28 0.0000000000000000e+00  -2.1037248917484334e-28 -1.2419237143775907e-27 0.0000000000000000e+00  -1.8776961912336503e-28 -1.2366190527713673e-27 0.0000000000000000e+00  -2.2877169273711220e-28 -2.6382447081875854e-27 0.0000000000000000e+00  -8.3732252463252707e-29 -1.4018771292524349e-27 0.0000000000000000e+00  1.1731526977710630e-28 9.4066437246552113e-28 0.0000000000000000e+00  6.1191226866870575e-30 -7.2741169750452590e-28 0.0000000000000000e+00  -3.6160200333907573e-29 -2.5920837400950176e-27 0.0000000000000000e+00  -7.8824058010591357e-29 4.3070406717437553e-28 0.0000000000000000e+00  -6.6400755185950299e-29 2.6505258506519420e-28 0.0000000000000000e+00  6.5739823521026781e-29 -2.0229426198766879e-27 0.0000000000000000e+00  2.3041293621992535e-30 -9.3318796431739926e-28 0.0000000000000000e+00  1.9098336640491128e-28 -2.1313285794464176e-27 0.0000000000000000e+00  -3.4507457743793013e-28 1.4811617077797790e-27 0.0000000000000000e+00  -3.1998875464226398e-28 1.4250130752723806e-27 0.0000000000000000e+00  2.8760098071896038e-28 -2.0659104146896609e-27 0.0000000000000000e+00  7.8012614195503450e-29 -6.7285857784068080e-28 0.0000000000000000e+00  3.3797193971111966e-28 -2.0523484988835466e-27 0.0000000000000000e+00  -1.0529577032972980e-28 5.5398893811934126e-28 0.0000000000000000e+00  -5.4717377795066808e-29 1.0226376599993609e-28 0.0000000000000000e+00  2.3343682950958113e-28 -1.1229537677929944e-27 0.0000000000000000e+00  8.8654501446192026e-29 -5.5154729947514134e-28 0.0000000000000000e+00  3.7969529577055916e-28 -2.1042503091735407e-27 0.0000000000000000e+00  4.6863126821797964e-28 -2.7536897169610321e-27 0.0000000000000000e+00  5.5621779159031446e-28 -3.4271477189110367e-27 0.0000000000000000e+00  1.3610743613272803e-28 -8.7160250251400570e-28 0.0000000000000000e+00  -1.9294874848456754e-28 1.1438330996298969e-27 0.0000000000000000e+00  -2.6686543118552271e-28 1.7735114842160595e-27 0.0000000000000000e+00  -2.8037603582401704e-28 1.8459267046111156e-27 0.0000000000000000e+00  -6.1014030327452694e-29 3.6832172987745828e-28 0.0000000000000000e+00  6.5140513876807005e-29 -4.4781538812824809e-28 0.0000000000000000e+00  4.1784991350279526e-29 -2.2729288566496136e-28 0.0000000000000000e+00  1.7797076726556685e-28 -9.2326829217273731e-28 0.0000000000000000e+00  6.5729969777455120e-29 -3.2549352175445575e-28 0.0000000000000000e+00  -6.9621572474751710e-29 3.5458531131867192e-28 0.0000000000000000e+00  1.0213183414479845e-29 -7.6854425808979597e-29 0.0000000000000000e+00  3.9654978615186519e-30 -1.1604858040735288e-29 0.0000000000000000e+00  8.4629221440088806e-30 -2.0619707250431638e-29 0.0000000000000000e+00  -1.5808093392027617e-31 1.9829656244312909e-33 0.0000000000000000e+00  -8.3564661356192774e-31 3.3807627408365633e-30 0.0000000000000000e+00  