<?xml version="1.0"?>
<VTKFile type="UnstructuredGrid"  version="0.1"  >
<UnstructuredGrid>
<Piece  NumberOfPoints="11902" NumberOfCells="23402">
<Points>
<DataArray  type="Float64"  NumberOfComponents="3"  format="ascii">-5 -5 0  5 -5 0  5 5 0  -5 5 0  1.264982214953643 0.00126489560481521 0  -4.9 -5 0  -4.8 -5 0  -4.7 -5 0  -4.6 -5 0  -4.5 -5 0  -4.4 -5 0  -4.3 -5 0  -4.2 -5 0  -4.1 -5 0  -4 -5 0  -3.9 -5 0  -3.8 -5 0  -3.7 -5 0  -3.6 -5 0  -3.5 -5 0  -3.4 -5 0  -3.3 -5 0  -3.2 -5 0  -3.1 -5 0  -3 -5 0  -2.9 -5 0  -2.8 -5 0  -2.7 -5 0  -2.6 -5 0  -2.5 -5 0  -2.4 -5 0  -2.3 -5 0  -2.2 -5 0  -2.1 -5 0  -2 -5 0  -1.9 -5 0  -1.8 -5 0  -1.7 -5 0  -1.6 -5 0  -1.5 -5 0  -1.4 -5 0  -1.3 -5 0  -1.2 -5 0  -1.1 -5 0  -1 -5 0  -0.9000000000000004 -5 0  -0.7999999999999998 -5 0  -0.7000000000000002 -5 0  -0.5999999999999996 -5 0  -0.5 -5 0  -0.4000000000000004 -5 0  -0.2999999999999998 -5 0  -0.2000000000000002 -5 0  -0.09999999999999964 -5 0  0 -5 0  0.09999999999999964 -5 0  0.2000000000000002 -5 0  0.2999999999999998 -5 0  0.4000000000000004 -5 0  0.5 -5 0  0.5999999999999996 -5 0  0.7000000000000002 -5 0  0.7999999999999998 -5 0  0.9000000000000004 -5 0  1 -5 0  1.1 -5 0  1.2 -5 0  1.3 -5 0  1.4 -5 0  1.5 -5 0  1.6 -5 0  1.7 -5 0  1.8 -5 0  1.9 -5 0  2 -5 0  2.1 -5 0  2.2 -5 0  2.3 -5 0  2.4 -5 0  2.5 -5 0  2.6 -5 0  2.7 -5 0  2.8 -5 0  2.9 -5 0  3 -5 0  3.1 -5 0  3.199999999999999 -5 0  3.300000000000001 -5 0  3.4 -5 0  3.5 -5 0  3.6 -5 0  3.699999999999999 -5 0  3.800000000000001 -5 0  3.9 -5 0  4 -5 0  4.1 -5 0  4.199999999999999 -5 0  4.300000000000001 -5 0  4.4 -5 0  4.5 -5 0  4.6 -5 0  4.699999999999999 -5 0  4.800000000000001 -5 0  4.9 -5 0  5 -4.9 0  5 -4.8 0  5 -4.7 0  5 -4.6 0  5 -4.5 0  5 -4.4 0  5 -4.3 0  5 -4.2 0  5 -4.1 0  5 -4 0  5 -3.9 0  5 -3.8 0  5 -3.7 0  5 -3.6 0  5 -3.5 0  5 -3.4 0  5 -3.3 0  5 -3.2 0  5 -3.1 0  5 -3 0  5 -2.9 0  5 -2.8 0  5 -2.7 0  5 -2.6 0  5 -2.5 0  5 -2.4 0  5 -2.3 0  5 -2.2 0  5 -2.1 0  5 -2 0  5 -1.9 0  5 -1.8 0  5 -1.7 0  5 -1.6 0  5 -1.5 0  5 -1.4 0  5 -1.3 0  5 -1.2 0  5 -1.1 0  5 -1 0  5 -0.9000000000000004 0  5 -0.7999999999999998 0  5 -0.7000000000000002 0  5 -0.5999999999999996 0  5 -0.5 0  5 -0.4000000000000004 0  5 -0.2999999999999998 0  5 -0.2000000000000002 0  5 -0.09999999999999964 0  5 0 0  5 0.09999999999999964 0  5 0.2000000000000002 0  5 0.2999999999999998 0  5 0.4000000000000004 0  5 0.5 0  5 0.5999999999999996 0  5 0.7000000000000002 0  5 0.7999999999999998 0  5 0.9000000000000004 0  5 1 0  5 1.1 0  5 1.2 0  5 1.3 0  5 1.4 0  5 1.5 0  5 1.6 0  5 1.7 0  5 1.8 0  5 1.9 0  5 2 0  5 2.1 0  5 2.2 0  5 2.3 0  5 2.4 0  5 2.5 0  5 2.6 0  5 2.7 0  5 2.8 0  5 2.9 0  5 3 0  5 3.1 0  5 3.199999999999999 0  5 3.300000000000001 0  5 3.4 0  5 3.5 0  5 3.6 0  5 3.699999999999999 0  5 3.800000000000001 0  5 3.9 0  5 4 0  5 4.1 0  5 4.199999999999999 0  5 4.300000000000001 0  5 4.4 0  5 4.5 0  5 4.6 0  5 4.699999999999999 0  5 4.800000000000001 0  5 4.9 0  4.9 5 0  4.8 5 0  4.7 5 0  4.6 5 0  4.5 5 0  4.4 5 0  4.3 5 0  4.2 5 0  4.1 5 0  4 5 0  3.9 5 0  3.8 5 0  3.7 5 0  3.6 5 0  3.5 5 0  3.4 5 0  3.3 5 0  3.2 5 0  3.1 5 0  3 5 0  2.9 5 0  2.8 5 0  2.7 5 0  2.6 5 0  2.5 5 0  2.4 5 0  2.3 5 0  2.2 5 0  2.1 5 0  2 5 0  1.9 5 0  1.8 5 0  1.7 5 0  1.6 5 0  1.5 5 0  1.4 5 0  1.3 5 0  1.2 5 0  1.1 5 0  1 5 0  0.9000000000000004 5 0  0.7999999999999998 5 0  0.7000000000000002 5 0  0.5999999999999996 5 0  0.5 5 0  0.4000000000000004 5 0  0.2999999999999998 5 0  0.2000000000000002 5 0  0.09999999999999964 5 0  0 5 0  -0.09999999999999964 5 0  -0.2000000000000002 5 0  -0.2999999999999998 5 0  -0.4000000000000004 5 0  -0.5 5 0  -0.5999999999999996 5 0  -0.7000000000000002 5 0  -0.7999999999999998 5 0  -0.9000000000000004 5 0  -1 5 0  -1.1 5 0  -1.2 5 0  -1.3 5 0  -1.4 5 0  -1.5 5 0  -1.6 5 0  -1.7 5 0  -1.8 5 0  -1.9 5 0  -2 5 0  -2.1 5 0  -2.2 5 0  -2.3 5 0  -2.4 5 0  -2.5 5 0  -2.6 5 0  -2.7 5 0  -2.8 5 0  -2.9 5 0  -3 5 0  -3.1 5 0  -3.199999999999999 5 0  -3.300000000000001 5 0  -3.4 5 0  -3.5 5 0  -3.6 5 0  -3.699999999999999 5 0  -3.800000000000001 5 0  -3.9 5 0  -4 5 0  -4.1 5 0  -4.199999999999999 5 0  -4.300000000000001 5 0  -4.4 5 0  -4.5 5 0  -4.6 5 0  -4.699999999999999 5 0  -4.800000000000001 5 0  -4.9 5 0  -5 4.9 0  -5 4.8 0  -5 4.7 0  -5 4.6 0  -5 4.5 0  -5 4.4 0  -5 4.3 0  -5 4.2 0  -5 4.1 0  -5 4 0  -5 3.9 0  -5 3.8 0  -5 3.7 0  -5 3.6 0  -5 3.5 0  -5 3.4 0  -5 3.3 0  -5 3.2 0  -5 3.1 0  -5 3 0  -5 2.9 0  -5 2.8 0  -5 2.7 0  -5 2.6 0  -5 2.5 0  -5 2.4 0  -5 2.3 0  -5 2.2 0  -5 2.1 0  -5 2 0  -5 1.9 0  -5 1.8 0  -5 1.7 0  -5 1.6 0  -5 1.5 0  -5 1.4 0  -5 1.3 0  -5 1.2 0  -5 1.1 0  -5 1 0  -5 0.9000000000000004 0  -5 0.7999999999999998 0  -5 0.7000000000000002 0  -5 0.5999999999999996 0  -5 0.5 0  -5 0.4000000000000004 0  -5 0.2999999999999998 0  -5 0.2000000000000002 0  -5 0.09999999999999964 0  -5 0 0  -5 -0.09999999999999964 0  -5 -0.2000000000000002 0  -5 -0.2999999999999998 0  -5 -0.4000000000000004 0  -5 -0.5 0  -5 -0.5999999999999996 0  -5 -0.7000000000000002 0  -5 -0.7999999999999998 0  -5 -0.9000000000000004 0  -5 -1 0  -5 -1.1 0  -5 -1.2 0  -5 -1.3 0  -5 -1.4 0  -5 -1.5 0  -5 -1.6 0  -5 -1.7 0  -5 -1.8 0  -5 -1.9 0  -5 -2 0  -5 -2.1 0  -5 -2.2 0  -5 -2.3 0  -5 -2.4 0  -5 -2.5 0  -5 -2.6 0  -5 -2.7 0  -5 -2.8 0  -5 -2.9 0  -5 -3 0  -5 -3.1 0  -5 -3.199999999999999 0  -5 -3.300000000000001 0  -5 -3.4 0  -5 -3.5 0  -5 -3.6 0  -5 -3.699999999999999 0  -5 -3.800000000000001 0  -5 -3.9 0  -5 -4 0  -5 -4.1 0  -5 -4.199999999999999 0  -5 -4.300000000000001 0  -5 -4.4 0  -5 -4.5 0  -5 -4.6 0  -5 -4.699999999999999 0  -5 -4.800000000000001 0  -5 -4.9 0  1.256961294285478 0.09283782477045721 0  1.234779107505269 0.19063940297957 0  1.200919272551697 0.2874621780685861 0  1.158232742887608 0.3759001724062315 0  1.099493723542221 0.46707863453369 0  1.03277154356318 0.5504371639008363 0  0.9541984191181629 0.6309832570692082 0  0.8669035401799844 0.7058929313661576 0  0.775075017978356 0.7710609235857542 0  0.6732906540292046 0.8285254465256469 0  0.559726628068989 0.8807622305498505 0  0.4460334053301217 0.9257998470658453 0  0.3355850284330548 0.9573180055750543 0  0.208811698744986 0.979954335242341 0  0.08738878726095492 0.9983271528173699 0  -0.02622247263412852 1.001908263131153 0  -0.1438974443184316 0.9883003601607442 0  -0.274199118603401 0.9683037149956003 0  -0.39448256890855 0.9440866588643975 0  -0.5037962504310227 0.9090707049069701 0  -0.6132965812067568 0.8626739720857513 0  -0.7152181431846005 0.8074934485687575 0  -0.8096127205750034 0.7431326201907269 0  -0.901296327322644 0.6693415855932905 0  -0.9880178283127433 0.5889369958536771 0  -1.063037333816931 0.5071552720337441 0  -1.12529604191627 0.4229279004932347 0  -1.180776357337413 0.3287893980602339 0  -1.218062260197839 0.2422221537367467 0  -1.242363265549276 0.1486077062475774 0  -1.252549949903552 0.05274035768897122 0  -1.252491299464271 -0.05043009395608311 0  -1.242227280529291 -0.1455650515849159 0  -1.217698156883554 -0.2360763384125876 0  -1.175342863569113 -0.3314916490738934 0  -1.125592919892878 -0.4240299519879727 0  -1.065240924994298 -0.5069645674626432 0  -0.9905969145390261 -0.5879573882711954 0  -0.904476786967322 -0.667319080364948 0  -0.8137537605027688 -0.7385731313520071 0  -0.7185721187607376 -0.7991227305599575 0  -0.6140045292044297 -0.8525422351376756 0  -0.4978337493430994 -0.9023137172625361 0  -0.385516757649623 -0.9422148840176624 0  -0.2708768646218037 -0.9681691055991806 0  -0.1421280532503056 -0.9883728949113452 0  -0.02747124393909327 -1.001143723886577 0  0.08568586036127647 -0.9937414551851633 0  0.2155287007176893 -0.9756996045158068 0  0.3385924996440668 -0.9554358939665776 0  0.450273352877489 -0.9244667750863268 0  0.5625351358848951 -0.8799766405526106 0  0.6746131852676889 -0.8283329798003768 0  0.7748100134362432 -0.7722948253626259 0  0.8659428890052648 -0.7076466985868548 0  0.9516671684485809 -0.6318367120312837 0  1.030403689991329 -0.5489772153493546 0  1.101301633366988 -0.4652292136558394 0  1.159127163947248 -0.3761550166657085 0  1.202758179137636 -0.2855468143913616 0  1.235517776423666 -0.1900385915364665 0  1.257378487780878 -0.09299875838350001 0  -2.448517162233796 4.918035665504264 0  -2.44838704001704 -4.91040663345751 0  4.9103276477246 2.447831853069349 0  4.91846266253653 -2.449299373046212 0  2.446109045176752 -4.895623100240662 0  2.440544227122938 4.899388957093528 0  -4.910354980257156 -2.447858984494164 0  -4.910352294675771 2.447863170983171 0  -1.748469471818975 4.910888160180749 0  -1.74425765132286 -4.914334008721664 0  4.920479922100374 1.744012674191374 0  4.908991886388218 -1.747765810658419 0  -4.909286959511501 -1.747500742336727 0  -4.910110770651301 1.747246594087822 0  1.745738802014986 4.904734885337258 0  1.747146146190616 -4.892862749445416 0  -1.148789766464882 4.908644014865557 0  -1.129650881860695 -4.916574210270007 0  -4.908963642769262 -1.14784079769538 0  -4.90878152982964 1.147641591360863 0  1.143787319981319 -4.912751048410292 0  1.148799260671991 4.90863003086551 0  4.909102747977473 1.146115450842395 0  4.919962044010065 -1.15190800168526 0  -0.5466415344716513 -4.909818233586314 0  -0.5464274143449404 4.918522676735693 0  -4.907663301695712 -0.5486600749503138 0  -4.907687288745035 0.5472184842437978 0  4.906979246991423 -0.5489780236378056 0  4.918670718710579 0.5457413048718428 0  0.5424213533622732 -4.896664703306054 0  0.5511545428204946 4.91533767227946 0  -4.91181402104113 -3.048227995240642 0  4.918390581671443 3.046248353519743 0  4.911321251175021 -3.048202855977319 0  -4.91266243570448 3.045320305471588 0  3.055248319381885 -4.917312133391528 0  -3.048575035833705 -4.911242614667202 0  3.05214360477278 4.913321835125928 0  -3.048021277573344 4.912133260447548 0  -4.906759119789504 -0.04990279892953182 0  0.04511814299835919 -4.911766595389758 0  0.04956499699051271 4.918810729826392 0  4.91383471788836 -0.05128561905054543 0  3.545577936979552 -4.918977602917542 0  -3.548854834853417 4.911873842746
[...]
<PointData  Vectors="f_6546"> 
<DataArray  type="Float64"  Name="f_6546"  NumberOfComponents="3" format="ascii">1.5065962957308631e-40 1.1047922194539712e-40 0.0000000000000000e+00  -9.7408562611433162e-41 8.2853958528897288e-41 0.0000000000000000e+00  -1.8568016647231358e-41 -6.5584799184678656e-42 0.0000000000000000e+00  1.4774768449712474e-40 -1.2611905782722344e-40 0.0000000000000000e+00  1.0862488823771349e+01 -2.6404324237665729e-03 0.0000000000000000e+00  -2.6935406457647301e-40 -2.0351642305711165e-40 0.0000000000000000e+00  5.3529960959220803e-40 3.2040043390206797e-40 0.0000000000000000e+00  -1.6560400019085588e-39 -1.0341106778962889e-39 0.0000000000000000e+00  -4.5595616127875729e-39 -4.1436313362737035e-39 0.0000000000000000e+00  2.9856580650183928e-39 4.2582154738712608e-39 0.0000000000000000e+00  -1.0166943400903440e-37 -6.9702545363027533e-38 0.0000000000000000e+00  1.8004904062409862e-37 1.2086363545018944e-37 0.0000000000000000e+00  -1.6525295486148928e-36 -1.5077291713018510e-36 0.0000000000000000e+00  1.2739478350539573e-35 1.2652114013694647e-35 0.0000000000000000e+00  -4.0842540376993117e-35 -4.4087819196766095e-35 0.0000000000000000e+00  5.3977551201087193e-35 8.1499345769186438e-35 0.0000000000000000e+00  -7.5689368599599013e-35 -1.7117662680667047e-34 0.0000000000000000e+00  -4.2071244149544059e-34 -5.4215900917490804e-34 0.0000000000000000e+00  2.0841954110098131e-33 2.7651151921897210e-33 0.0000000000000000e+00  -5.9200540731016238e-33 -9.0325873224237398e-33 0.0000000000000000e+00  3.4942121795122192e-32 5.0492215739654402e-32 0.0000000000000000e+00  -9.1094325117757113e-32 -1.3053715279769757e-31 0.0000000000000000e+00  -8.8558331197920604e-32 -7.8520931215473436e-32 0.0000000000000000e+00  6.3903952792124903e-31 6.3295287848399506e-31 0.0000000000000000e+00  7.5122251522692218e-32 3.6380917685190055e-31 0.0000000000000000e+00  -1.8178267287560230e-31 5.0132109187054840e-31 0.0000000000000000e+00  -8.0489117458403543e-31 -1.9938113184172080e-30 0.0000000000000000e+00  1.4368844683634540e-30 9.1833657647966224e-30 0.0000000000000000e+00  -6.3651201825409198e-30 -2.3717135572967943e-29 0.0000000000000000e+00  -4.2121209868607856e-30 -1.6550356038504728e-29 0.0000000000000000e+00  3.9862295189003280e-29 1.1867142932698283e-28 0.0000000000000000e+00  1.1698467770187375e-29 4.4490651618946579e-29 0.0000000000000000e+00  -1.0696633414042251e-30 1.8886354712774134e-30 0.0000000000000000e+00  -2.1876656274963123e-29 -5.7463543944244489e-29 0.0000000000000000e+00  -5.1338565797490758e-29 1.1976873849067878e-30 0.0000000000000000e+00  -3.0101612364065814e-29 -2.8302632142119006e-28 0.0000000000000000e+00  -3.7522861226260355e-29 -2.5000838519811905e-28 0.0000000000000000e+00  -3.4489733772182230e-30 -5.4575724889625070e-29 0.0000000000000000e+00  6.0219332775988429e-29 4.8418789050210952e-28 0.0000000000000000e+00  8.8140134814191448e-29 6.8616005119604773e-28 0.0000000000000000e+00  1.0258673564374161e-28 5.6502233851283430e-28 0.0000000000000000e+00  4.5309274048727283e-29 -2.3000769410076687e-28 0.0000000000000000e+00  5.1628519289024185e-29 -7.4212436185204678e-29 0.0000000000000000e+00  7.6489037830806949e-29 3.7071084374287353e-28 0.0000000000000000e+00  1.6503322689368996e-29 -9.1056197203371375e-29 0.0000000000000000e+00  -1.6710911480715238e-28 -8.7662116233456211e-28 0.0000000000000000e+00  -8.4166810757643427e-29 -6.8375943384597625e-28 0.0000000000000000e+00  7.5486090403246660e-29 5.6135905150551534e-28 0.0000000000000000e+00  -2.6122783912585106e-30 -9.6938522659465551e-28 0.0000000000000000e+00  -7.1968582629757187e-29 -2.1278391943547755e-28 0.0000000000000000e+00  -1.7319073292638792e-28 2.4617836628074822e-28 0.0000000000000000e+00  -1.9256365462293574e-28 6.3417114811521644e-30 0.0000000000000000e+00  -1.2579048091036810e-28 -1.2078051323059039e-29 0.0000000000000000e+00  -2.0935082888843601e-30 4.9200279658263911e-28 0.0000000000000000e+00  1.2809280345559505e-29 6.0024973885597272e-28 0.0000000000000000e+00  -4.9466726580164556e-29 1.0279331368395499e-28 0.0000000000000000e+00  -9.5165372618881713e-29 8.1719624785925828e-29 0.0000000000000000e+00  -1.1870182045221252e-28 -2.6780326101074398e-28 0.0000000000000000e+00  -9.6122054945149132e-29 -1.0360021836704839e-28 0.0000000000000000e+00  -1.2815684558987164e-28 -2.1824812019432717e-28 0.0000000000000000e+00  -1.6978763952827276e-28 -3.7203509185638571e-28 0.0000000000000000e+00  -1.6344486652622494e-28 -4.3117617813117179e-28 0.0000000000000000e+00  -8.6172898437971681e-29 -3.8847569288588049e-29 0.0000000000000000e+00  -5.5954212650221228e-29 2.6952054347948123e-28 0.0000000000000000e+00  -4.1661199567669446e-30 1.6900777699603981e-28 0.0000000000000000e+00  9.6513326470242515e-29 1.4186453902680324e-28 0.0000000000000000e+00  5.6850715731090384e-29 3.2162004428972383e-28 0.0000000000000000e+00  3.5246366517754806e-29 1.2745752481308583e-28 0.0000000000000000e+00  1.6073120000713677e-29 -2.4948796970450641e-28 0.0000000000000000e+00  -3.7970883533316419e-29 -1.8094295990475621e-28 0.0000000000000000e+00  -2.9298729801976074e-29 1.1672538058211577e-28 0.0000000000000000e+00  -8.5928598404045585e-29 9.8287198783727839e-29 0.0000000000000000e+00  -3.9857553978751740e-29 7.0211846088818095e-29 0.0000000000000000e+00  2.8965516612949267e-29 -3.3713810319668821e-29 0.0000000000000000e+00  3.9817250559223243e-29 -2.6097811387947629e-28 0.0000000000000000e+00  1.5922019030193283e-29 -7.4272899594775991e-29 0.0000000000000000e+00  -4.1741336734751483e-30 1.0927005081706135e-29 0.0000000000000000e+00  -1.0512951300066746e-29 5.6676222353498269e-29 0.0000000000000000e+00  -1.6092866799210991e-29 7.8646106276308012e-29 0.0000000000000000e+00  3.4668129045884484e-30 -4.1443437660579384e-30 0.0000000000000000e+00  1.4798523843024164e-29 -5.0657492412595631e-29 0.0000000000000000e+00  -2.4991825017979307e-30 8.2342854508299649e-30 0.0000000000000000e+00  -8.3052435127182246e-31 2.6339321282972375e-30 0.0000000000000000e+00  3.6255702569205919e-30 -7.0614603701258830e-30 0.0000000000000000e+00  4.5942069326338315e-31 -5.3745605234427493e-31 0.0000000000000000e+00  -4.8346653830395467e-31 7.5711875364979205e-31 0.0000000000000000e+00  1.9596874581009553e-31 -3.2857146074892714e-31 0.0000000000000000e+00  -5.2363105847576489e-32 6.6526361323957650e-32 0.0000000000000000e+00  5.0114062489888173e-33 -6.8252355446149936e-33 0.0000000000000000e+00  3.2130796801633049e-33 -2.7243805788757355e-33 0.0000000000000000e+00  -4.5066200634722219e-33 4.5460434349639952e-33 0.0000000000000000e+00  1.4267177312988024e-34 -7.2923076039124991e-35 0.0000000000000000e+00  1.6472287391779374e-34 -1.9460691597467118e-34 0.0000000000000000e+00  -1.9576459124804865e-35 2.8263481933669852e-35 0.0000000000000000e+00  1.5422333881593250e-35 -1.6361778537368702e-35 0.0000000000000000e+00  -2.3507914933914386e-36 2.4534054911394716e-36 0.0000000000000000e+00  -1.2516602188163541e-37 1.0179912913861332e-37 0.0000000000000000e+00  -4.6429592943965744e-39 -3.0301249931281696e-39 0.0000000000000000e+00  -1.0038870529979435e-38 9.0544488932895645e-39 0.0000000000000000e+00  3.9600449999710069e-39 -2.8983308791325543e-39 0.0000000000000000e+00  1.0053158031011084e-39 -1.3219886666135030e-39 0.0000000000000000e+00  -6.0129168691214901e-40 5.5127932096910679e-40 0.0000000000000000e+00  -1.2821798680709058e-40 1.1130768909769931e-40 0.0000000000000000e+00  1.5805051575186081e-40 -1.3374010872771296e-40 0.0000000000000000e+00  2.0950557041621674e-41 -2.0787549491340962e-41 0.0000000000000000e+00  1.1308025298820511e-40 -8.2747316988163513e-41 0.0000000000000000e+00  -2.2346300522512544e-40 1.4253977970037872e-40 0.0000000000000000e+00  -4.1342411687415802e-40 3.1109059147537674e-40 0.0000000000000000e+00  2.5559796270607184e-39 -1.6214207945446055e-39 0.0000000000000000e+00  -5.9707042603703719e-39 3.2794730663664710e-39 0.0000000000000000e+00  3.8829580170430610e-39 -9.2033489290434037e-40 0.0000000000000000e+00  2.5231243155199345e-38 -1.6330954309043972e-38 0.0000000000000000e+00  -1.0761008615976729e-37 5.6216638428356655e-38 0.0000000000000000e+00  1.9418688752043248e-37 -8.2274304270866545e-38 0.0000000000000000e+00  8.5708868631273854e-38 -8.4500165640567552e-38 0.0000000000000000e+00  -1.4297044816420633e-36 7.0475750717415716e-37 0.0000000000000000e+00  3.5237809517170527e-36 -1.5004272104690758e-36 0.0000000000000000e+00  -1.9331643351393151e-36 5.1832562806931071e-37 0.0000000000000000e+00  -1.6149957226741559e-35 7.2995804834744571e-36 0.0000000000000000e+00  5.4231538285337795e-35 -2.2911187472923416e-35 0.0000000000000000e+00  -4.2506150478003769e-35 1.8121516855534909e-35 0.0000000000000000e+00  -1.9988534209765739e-34 8.2487278119321277e-35 0.0000000000000000e+00  7.2155963758855171e-34 -3.1178536867603822e-34 0.0000000000000000e+00  -4.3569443265820163e-34 2.2723034782343251e-34 0.0000000000000000e+00  -3.0792795008709251e-33 1.2837103458011212e-33 0.0000000000000000e+00  8.3360621110989291e-33 -3.8140228776266316e-33 0.0000000000000000e+00  1.2888444402754151e-33 -1.4994957223404522e-34 0.0000000000000000e+00  -4.6777541879972897e-32 2.1182558985022768e-32 0.0000000000000000e+00  6.8279523148102980e-32 -3.1547276000421138e-32 0.0000000000000000e+00  1.3649639372136408e-31 -6.5866535053541102e-32 0.0000000000000000e+00  -4.9580512090367220e-31 2.2276167371448257e-31 0.0000000000000000e+00  -4.0795442483941147e-32 7.9084335562134196e-32 0.0000000000000000e+00  2.3917576194393275e-30 -1.0907326532327952e-30 0.0000000000000000e+00  -2.2648658105860458e-30 4.8831884844822155e-31 0.0000000000000000e+00  -8.7723845814344876e-30 4.2157645732359421e-30 0.0000000000000000e+00  1.7512306656064020e-29 -4.2669952281630045e-30 0.0000000000000000e+00  2.5374783228133773e-29 -1.3362664011621349e-29 0.0000000000000000e+00  -9.6311417090984981e-29 2.2781351008633450e-29 0.0000000000000000e+00  -6.5491582030393353e-29 3.4070092939698499e-29 0.0000000000000000e+00  4.8746524422576184e-28 -1.2351081434567897e-28 0.0000000000000000e+00  1.9411452264464635e-28 -7.2486922396858855e-29 0.0000000000000000e+00  -2.3763151271373169e-27 7.0988221192432469e-28 0.0000000000000000e+00  -2.3031537581081870e-27 8.9584693804308139e-28 0.0000000000000000e+00  9.3960656661372694e-27 -2.7823428540813295e-27 0.0000000000000000e+00  1.6373354743177245e-26 -6.1341636658804951e-27 0.0000000000000000e+00  -9.4789949653997804e-27 -1.0704009667651857e-27 0.0000000000000000e+00  -5.7610892113776799e-26 1.1751099233698422e-26 0.0000000000000000e+00  -3.3243457673790404e-26 8.2727525173819020e-27 0.0000000000000000e+00  1.4028676266522343e-25 -3.1349560665178925e-26 0.0000000000000000e+00  4.0032513335438448e-25 -8.8470679503707518e-26 0.0000000000000000e+00  4.8829931008787496e-25 -1.0118869366117772e-25 0.0000000000000000e+00  3.2306730930735545e-25 -6.1482653923369422e-26 0.0000000000000000e+00  5.5700897446172088e-26 -1.5363310310302636e-26 0.0000000000000000e+00  -7.4114520574890580e-26 -1.5417786776545495e-27 0.0000000000000000e+00  4.9666131607783562e-27 -2.8494437361199838e-27 0.0000000000000000e+00  1.5776109158997217e-25 9.7861796438407951e-27 0.0000000000000000e+00  2.2196174292490649e-25 2.5637693818740067e-26 0.0000000000000000e+00  1.4900300776271986e-25 1.8851865717799779e-26 0.0000000000000000e+00  3.5120007059290289e-26 -2.1040108067843053e-27 0.0000000000000000e+00  -2.5725392413888348e-26 -1.0881702431303338e-26 0.0000000000000000e+00  -1.4998462028461210e-26 -1.0878498290395818e-27 0.0000000000000000e+00  1.1899559846953349e-26 8.7225491455398278e-27 0.0000000000000000e+00  1.5877455380673736e-26 7.6056624636401923e-27 0.0000000000000000e+00  4.4865225889356498e-27 1.7978902819797890e-27 0.0000000000000000e+00  -2.1931868138687452e-27 -8.7058122026653979e-28 0.0000000000000000e+00  -1.4764974037243134e-27 -5.3278577507007654e-28 0.0000000000000000e+00  2.7422094899182046e-28 7.4000223737652922e-29 0.0000000000000000e+00  2.9279439747336803e-28 6.9664764446722549e-29 0.0000000000000000e+00  -6.8885592194982004e-29 -2.4597333311990638e-29 0.0000000000000000e+00  -5.2265047004207523e-29 -6.2238580948905475e-30 0.0000000000000000e+00  2.2986122378423069e-29 9.7311189998523553e-30 0.0000000000000000e+00  7.2658171684290946e-30 -4.9579359028421080e-31 0.0000000000000000e+00  -6.9773092751396984e-30 -2.8793728965275617e-30 0.0000000000000000e+00  -2.1308637350983093e-31 5.5338635504029059e-31 0.0000000000000000e+00  1.5938959586310565e-30 6.1290773226338355e-31 0.0000000000000000e+00  -3.3989266559039699e-31 -2.4234988373460894e-31 0.0000000000000000e+00  -2.6680074570657499e-31 -9.4378553127872881e-32 0.0000000000000000e+00  1.4066082101781333e-31 7.2812704795814005e-32 0.0000000000000000e+00  1.5793574425992143e-32 2.3713817197680873e-33 0.0000000000000000e+00  -3.3333326875279585e-32 -1.5763257471754670e-32 0.0000000000000000e+00  6.4188690765139851e-33 3.6525084826225961e-33 0.0000000000000000e+00  4.8880912368808523e-33 2.2196588013948362e-33 0.0000000000000000e+00  -2.8994185453676604e-33 -1.4278673851428338e-33 0.0000000000000000e+00  4.4502062313248486e-35 3.3811450902304574e-35 0.0000000000000000e+00  5.0064144388881150e-34 2.4526822079945515e-34 0.0000000000000000e+00  -1.9848547910907751e-34 -9.7901221225452355e-35 0.0000000000000000e+00  -1.5616981368635350e-35 -7.8001206102454268e-36 0.0000000000000000e+00  4.2024316795848186e-35 2.0751891160869983e-35 0.0000000000000000e+00  -1.4548591060812340e-35 -7.2140983248859764e-36 0.0000000000000000e+00  -9.3500281726632664e-37 -4.0822584627479475e-37 0.0000000000000000e+00  2.8018698985389563e-36 1.3649490776273939e-36 0.0000000000000000e+00  -1.0832352949786825e-36 -5.4588120480478727e-37 0.0000000000000000e+00  3.6149122555516713e-38 3.2303604107065727e-38 0.0000000000000000e+00  1.5555799299723992e-37 7.1250868390856119e-38 0.0000000000000000e+00  -7.9728688072347424e-38 -4.0124837141279035e-38 0.0000000000000000e+00  1.5109456072412511e-38 9.3697237125484859e-39 0.0000000000000000e+00  4.6933019420409074e-39 1.4040849251659266e-39 0.0000000000000000e+00  -4.8142187571709909e-39 -2.2782558848135813e-39 0.0000000000000000e+00  1.8234370936603314e-39 1.0522462012369470e-39 0.0000000000000000e+00  -2.4928129746113411e-40 -2.2976491082643163e-40 0.0000000000000000e+00  -1.3991886785284203e-40 -4.0545372983911044e-41 0.0000000000000000e+00  1.0055734432667750e-40 4.8727948185042034e-41 0.0000000000000000e+00  -5.8160236961945862e-41 -4.1645642228749882e-41 0.0000000000000000e+00  5.0624661093373148e-41 2.4791882345756931e-41 0.0000000000000000e+00  1.5290682270530229e-40 1.2663589451273798e-40 0.0000000000000000e+00  -3.6265284964269517e-40 -3.3346853353334657e-40 0.0000000000000000e+00  4.8371426134577182e-39 3.9388328773778079e-39 0.0000000000000000e+00  -2.3491757791502318e-38 -2.0214785520332048e-38 0.0000000000000000e+00  9.1361198170263196e-38 7.8431867339523267e-38 0.0000000000000000e+00  -2.2188122936675362e-37 -1.9642018883404089e-37 0.0000000000000000e+00  1.5331049274377580e-36 1.4608983277224206e-36 0.0000000000000000e+00  -2.6317666501779646e-36 -3.1310794338492169e-36 0.0000000000000000e+00  1.5324694597577585e-36 5.1128199387190628e-36 0.0000000000000000e+00  2.4634073139944520e-35 1.6692046444936853e-35 0.0000000000000000e+00  -2.1966851600749442e-34 -2.0114070901492117e-34 0.0000000000000000e+00  5.4802759033552724e-34 5.6078192475050962e-34 0.0000000000000000e+00  -1.6976429945431806e-33 -1.9814377121804442e-33 0.0000000000000000e+00  3.5242109966758856e-33 3.5837918234919150e-33 0.0000000000000000e+00  1.2047162765566741e-33 1.9424486636666712e-34 0.0000000000000000e+00  -2.6612522862396875e-32 -2.1566760541267548e-32 0.0000000000000000e+00  -3.3702649898693240e-32 -4.0917394106779469e-32 0.0000000000000000e+00  3.5953966359499581e-32 8.9832019631355858e-32 0.0000000000000000e+00  -1.0294901615064838e-31 -2.6454589211965224e-31 0.0000000000000000e+00  -4.1326053836481647e-31 -9.4183038530581700e-31 0.0000000000000000e+00  2.9062005607147666e-30 5.8148153454274107e-30 0.0000000000000000e+00  2.4368259406920310e-30 7.0558798877059287e-30 0.0000000000000000e+00  -1.5363844217676259e-29 -4.0801550042934663e-29 0.0000000000000000e+00  4.4593312821039430e-31 9.0920580433420521e-30 0.0000000000000000e+00  1.7019888591944590e-29 9.2102098312045642e-29 0.0000000000000000e+00  -1.1746575389681300e-30 -3.4385526210723389e-29 0.0000000000000000e+00  -2.3856055208162973e-31 -1.2627565536675734e-28 0.0000000000000000e+00  1.5694749679301877e-30 -3.3637037803604815e-29 0.0000000000000000e+00  9.2437467261909628e-30 1.8957570260043432e-28 0.0000000000000000e+00  -2.0576861633255367e-29 -2.2737367853148439e-28 0.0000000000000000e+00  -2.1103392609029146e-30 6.7761294529056820e-29 0.0000000000000000e+00  -1.7448741714780795e-29 -1.4817820174491435e-29 0.0000000000000000e+00  -1.8675359116999729e-30 2.8473188374700176e-28 0.0000000000000000e+00  3.1172058013589345e-29 2.7332733295596946e-28 0.0000000000000000e+00  6.3909446913099896e-29 -4.6443341808809599e-28 0.0000000000000000e+00  4.8876476226573248e-29 -8.2583685254342635e-29 0.0000000000000000e+00  4.2900811464587855e-29 -1.9072036327139858e-28 0.0000000000000000e+00  7.0738936229633636e-29 -4.7056497081343539e-28 0.0000000000000000e+00  8.7534985321182401e-29 -5.2796155744806073e-28 0.0000000000000000e+00  1.0368140531640396e-28 -1.6535440236906002e-28 0.0000000000000000e+00  -2.2858514373920973e-29 6.5320599916078149e-28 0.0000000000000000e+00  -1.9311603055619974e-28 1.6519741661589815e-27 0.0000000000000000e+00  -1.9661992350019034e-29 7.8768803230639623e-28 0.0000000000000000e+00  2.4812118973851580e-28 -6.9860898986579040e-28 0.0000000000000000e+00  -1.1002386926202551e-28 1.4990615846894710e-27 0.0000000000000000e+00  -1.0427280252831531e-28 1.4996614354411559e-27 0.0000000000000000e+00  1.8222697857795262e-28 2.9309434531726913e-28 0.0000000000000000e+00  6.5836633796614399e-29 8.9981693545745773e-28 0.0000000000000000e+00  1.4022704650162046e-28 3.8885681743694535e-28 0.0000000000000000e+00  -6.4525081218895419e-29 2.0284425902450540e-27 0.0000000000000000e+00  -8.4032164590772876e-29 1.8914386581726227e-27 0.0000000000000000e+00  9.9260751467340482e-29 9.7076442186080518e-29 0.0000000000000000e+00  1.8753305584697117e-29 6.6815862847785646e-28 0.0000000000000000e+00  3.1118798530546453e-29 -5.7922057787889632e-28 0.0000000000000000e+00  -5.1019304539518071e-29 1.7056984122112982e-27 0.0000000000000000e+00  -3.8288826076382499e-29 1.1557316803627609e-27 0.0000000000000000e+00  -9.3135923179172294e-29 4.6125712398205332e-28 0.0000000000000000e+00  -5.9138806111229052e-29 6.0803357337614890e-28 0.0000000000000000e+00  -1.8748386584854071e-29 -8.1692048798218905e-28 0.0000000000000000e+00  -6.8813690991450131e-29 -4.0301408107931512e-28 0.0000000000000000e+00  1.6509407652510984e-30 -9.5959913631375730e-28 0.0000000000000000e+00  3.5530168171476169e-29 -2.6893519039024087e-28 0.0000000000000000e+00  5.4583029081118365e-29 -2.2909381880682730e-30 0.0000000000000000e+00  -4.7273638249010959e-29 2.7319960320774205e-28 0.0000000000000000e+00  -7.4171632074033554e-29 2.8448909430853063e-28 0.0000000000000000e+00  -2.2664263214052474e-29 1.1988917266930474e-28 0.0000000000000000e+00  1.4698587822871498e-29 -1.7852608530703148e-30 0.0000000000000000e+00  8.0811246552440767e-30 -6.0999868719575088e-29 0.0000000000000000e+00  3.4435565587312782e-29 -2.0701001291480545e-28 0.0000000000000000e+00  9.1249434876908051e-30 -4.7140924508222366e-29 0.0000000000000000e+00  -1.2693712758294274e-29 5.3377352433978426e-29 0.0000000000000000e+00  7.2709989994548097e-30 -2.9586360583625839e-29 0.0000000000000000e+00  -1.8224429663791510e-30 7.9943641430840903e-30 0.0000000000000000e+00  -2.6644824360745887e-30 1.3154486873704285e-29 0.0000000000000000e+00  1.9515268973752002e-30 -5.6372764964182054e-30 0.0000000000000000e+00  2.7949333797057390e-30 -7.6339779927873415e-30 0.0000000000000000e+00  3.93