<?xml version="1.0"?>
<VTKFile type="UnstructuredGrid"  version="0.1"  >
<UnstructuredGrid>
<Piece  NumberOfPoints="11902" NumberOfCells="23402">
<Points>
<DataArray  type="Float64"  NumberOfComponents="3"  format="ascii">-5 -5 0  5 -5 0  5 5 0  -5 5 0  1.258363902379314 0.001344523330501971 0  -4.9 -5 0  -4.8 -5 0  -4.7 -5 0  -4.6 -5 0  -4.5 -5 0  -4.4 -5 0  -4.3 -5 0  -4.2 -5 0  -4.1 -5 0  -4 -5 0  -3.9 -5 0  -3.8 -5 0  -3.7 -5 0  -3.6 -5 0  -3.5 -5 0  -3.4 -5 0  -3.3 -5 0  -3.2 -5 0  -3.1 -5 0  -3 -5 0  -2.9 -5 0  -2.8 -5 0  -2.7 -5 0  -2.6 -5 0  -2.5 -5 0  -2.4 -5 0  -2.3 -5 0  -2.2 -5 0  -2.1 -5 0  -2 -5 0  -1.9 -5 0  -1.8 -5 0  -1.7 -5 0  -1.6 -5 0  -1.5 -5 0  -1.4 -5 0  -1.3 -5 0  -1.2 -5 0  -1.1 -5 0  -1 -5 0  -0.9000000000000004 -5 0  -0.7999999999999998 -5 0  -0.7000000000000002 -5 0  -0.5999999999999996 -5 0  -0.5 -5 0  -0.4000000000000004 -5 0  -0.2999999999999998 -5 0  -0.2000000000000002 -5 0  -0.09999999999999964 -5 0  0 -5 0  0.09999999999999964 -5 0  0.2000000000000002 -5 0  0.2999999999999998 -5 0  0.4000000000000004 -5 0  0.5 -5 0  0.5999999999999996 -5 0  0.7000000000000002 -5 0  0.7999999999999998 -5 0  0.9000000000000004 -5 0  1 -5 0  1.1 -5 0  1.2 -5 0  1.3 -5 0  1.4 -5 0  1.5 -5 0  1.6 -5 0  1.7 -5 0  1.8 -5 0  1.9 -5 0  2 -5 0  2.1 -5 0  2.2 -5 0  2.3 -5 0  2.4 -5 0  2.5 -5 0  2.6 -5 0  2.7 -5 0  2.8 -5 0  2.9 -5 0  3 -5 0  3.1 -5 0  3.199999999999999 -5 0  3.300000000000001 -5 0  3.4 -5 0  3.5 -5 0  3.6 -5 0  3.699999999999999 -5 0  3.800000000000001 -5 0  3.9 -5 0  4 -5 0  4.1 -5 0  4.199999999999999 -5 0  4.300000000000001 -5 0  4.4 -5 0  4.5 -5 0  4.6 -5 0  4.699999999999999 -5 0  4.800000000000001 -5 0  4.9 -5 0  5 -4.9 0  5 -4.8 0  5 -4.7 0  5 -4.6 0  5 -4.5 0  5 -4.4 0  5 -4.3 0  5 -4.2 0  5 -4.1 0  5 -4 0  5 -3.9 0  5 -3.8 0  5 -3.7 0  5 -3.6 0  5 -3.5 0  5 -3.4 0  5 -3.3 0  5 -3.2 0  5 -3.1 0  5 -3 0  5 -2.9 0  5 -2.8 0  5 -2.7 0  5 -2.6 0  5 -2.5 0  5 -2.4 0  5 -2.3 0  5 -2.2 0  5 -2.1 0  5 -2 0  5 -1.9 0  5 -1.8 0  5 -1.7 0  5 -1.6 0  5 -1.5 0  5 -1.4 0  5 -1.3 0  5 -1.2 0  5 -1.1 0  5 -1 0  5 -0.9000000000000004 0  5 -0.7999999999999998 0  5 -0.7000000000000002 0  5 -0.5999999999999996 0  5 -0.5 0  5 -0.4000000000000004 0  5 -0.2999999999999998 0  5 -0.2000000000000002 0  5 -0.09999999999999964 0  5 0 0  5 0.09999999999999964 0  5 0.2000000000000002 0  5 0.2999999999999998 0  5 0.4000000000000004 0  5 0.5 0  5 0.5999999999999996 0  5 0.7000000000000002 0  5 0.7999999999999998 0  5 0.9000000000000004 0  5 1 0  5 1.1 0  5 1.2 0  5 1.3 0  5 1.4 0  5 1.5 0  5 1.6 0  5 1.7 0  5 1.8 0  5 1.9 0  5 2 0  5 2.1 0  5 2.2 0  5 2.3 0  5 2.4 0  5 2.5 0  5 2.6 0  5 2.7 0  5 2.8 0  5 2.9 0  5 3 0  5 3.1 0  5 3.199999999999999 0  5 3.300000000000001 0  5 3.4 0  5 3.5 0  5 3.6 0  5 3.699999999999999 0  5 3.800000000000001 0  5 3.9 0  5 4 0  5 4.1 0  5 4.199999999999999 0  5 4.300000000000001 0  5 4.4 0  5 4.5 0  5 4.6 0  5 4.699999999999999 0  5 4.800000000000001 0  5 4.9 0  4.9 5 0  4.8 5 0  4.7 5 0  4.6 5 0  4.5 5 0  4.4 5 0  4.3 5 0  4.2 5 0  4.1 5 0  4 5 0  3.9 5 0  3.8 5 0  3.7 5 0  3.6 5 0  3.5 5 0  3.4 5 0  3.3 5 0  3.2 5 0  3.1 5 0  3 5 0  2.9 5 0  2.8 5 0  2.7 5 0  2.6 5 0  2.5 5 0  2.4 5 0  2.3 5 0  2.2 5 0  2.1 5 0  2 5 0  1.9 5 0  1.8 5 0  1.7 5 0  1.6 5 0  1.5 5 0  1.4 5 0  1.3 5 0  1.2 5 0  1.1 5 0  1 5 0  0.9000000000000004 5 0  0.7999999999999998 5 0  0.7000000000000002 5 0  0.5999999999999996 5 0  0.5 5 0  0.4000000000000004 5 0  0.2999999999999998 5 0  0.2000000000000002 5 0  0.09999999999999964 5 0  0 5 0  -0.09999999999999964 5 0  -0.2000000000000002 5 0  -0.2999999999999998 5 0  -0.4000000000000004 5 0  -0.5 5 0  -0.5999999999999996 5 0  -0.7000000000000002 5 0  -0.7999999999999998 5 0  -0.9000000000000004 5 0  -1 5 0  -1.1 5 0  -1.2 5 0  -1.3 5 0  -1.4 5 0  -1.5 5 0  -1.6 5 0  -1.7 5 0  -1.8 5 0  -1.9 5 0  -2 5 0  -2.1 5 0  -2.2 5 0  -2.3 5 0  -2.4 5 0  -2.5 5 0  -2.6 5 0  -2.7 5 0  -2.8 5 0  -2.9 5 0  -3 5 0  -3.1 5 0  -3.199999999999999 5 0  -3.300000000000001 5 0  -3.4 5 0  -3.5 5 0  -3.6 5 0  -3.699999999999999 5 0  -3.800000000000001 5 0  -3.9 5 0  -4 5 0  -4.1 5 0  -4.199999999999999 5 0  -4.300000000000001 5 0  -4.4 5 0  -4.5 5 0  -4.6 5 0  -4.699999999999999 5 0  -4.800000000000001 5 0  -4.9 5 0  -5 4.9 0  -5 4.8 0  -5 4.7 0  -5 4.6 0  -5 4.5 0  -5 4.4 0  -5 4.3 0  -5 4.2 0  -5 4.1 0  -5 4 0  -5 3.9 0  -5 3.8 0  -5 3.7 0  -5 3.6 0  -5 3.5 0  -5 3.4 0  -5 3.3 0  -5 3.2 0  -5 3.1 0  -5 3 0  -5 2.9 0  -5 2.8 0  -5 2.7 0  -5 2.6 0  -5 2.5 0  -5 2.4 0  -5 2.3 0  -5 2.2 0  -5 2.1 0  -5 2 0  -5 1.9 0  -5 1.8 0  -5 1.7 0  -5 1.6 0  -5 1.5 0  -5 1.4 0  -5 1.3 0  -5 1.2 0  -5 1.1 0  -5 1 0  -5 0.9000000000000004 0  -5 0.7999999999999998 0  -5 0.7000000000000002 0  -5 0.5999999999999996 0  -5 0.5 0  -5 0.4000000000000004 0  -5 0.2999999999999998 0  -5 0.2000000000000002 0  -5 0.09999999999999964 0  -5 0 0  -5 -0.09999999999999964 0  -5 -0.2000000000000002 0  -5 -0.2999999999999998 0  -5 -0.4000000000000004 0  -5 -0.5 0  -5 -0.5999999999999996 0  -5 -0.7000000000000002 0  -5 -0.7999999999999998 0  -5 -0.9000000000000004 0  -5 -1 0  -5 -1.1 0  -5 -1.2 0  -5 -1.3 0  -5 -1.4 0  -5 -1.5 0  -5 -1.6 0  -5 -1.7 0  -5 -1.8 0  -5 -1.9 0  -5 -2 0  -5 -2.1 0  -5 -2.2 0  -5 -2.3 0  -5 -2.4 0  -5 -2.5 0  -5 -2.6 0  -5 -2.7 0  -5 -2.8 0  -5 -2.9 0  -5 -3 0  -5 -3.1 0  -5 -3.199999999999999 0  -5 -3.300000000000001 0  -5 -3.4 0  -5 -3.5 0  -5 -3.6 0  -5 -3.699999999999999 0  -5 -3.800000000000001 0  -5 -3.9 0  -5 -4 0  -5 -4.1 0  -5 -4.199999999999999 0  -5 -4.300000000000001 0  -5 -4.4 0  -5 -4.5 0  -5 -4.6 0  -5 -4.699999999999999 0  -5 -4.800000000000001 0  -5 -4.9 0  1.250280683742022 0.09486402097433527 0  1.228644382600522 0.192425659224202 0  1.195229681632563 0.2889250401224872 0  1.152391055062966 0.3776720790381458 0  1.094525480578751 0.468487107978113 0  1.028812849834951 0.5527962692709146 0  0.9505453654945526 0.6327651037616114 0  0.8638159684925087 0.7073613733996758 0  0.7720558290125566 0.7727869087607849 0  0.6697154199660562 0.8301504121114013 0  0.5579858928060464 0.8824261415727004 0  0.4455293608342196 0.9267999999701253 0  0.3331174070627027 0.9590190609373758 0  0.2086985765660748 0.9806092645428258 0  0.08897703529707222 0.9994979367468119 0  -0.02711224107511371 1.002788377322118 0  -0.1448324064247923 0.9890829732138878 0  -0.2719285313513221 0.9701520040708426 0  -0.3911480333683406 0.9458951568054865 0  -0.5018429007144058 0.9098674721498936 0  -0.6111695975486519 0.8634094995639179 0  -0.7133286499042704 0.8087843558665242 0  -0.8079773235928328 0.7439375492125579 0  -0.8989145422828015 0.6705229052920899 0  -0.9843716433744433 0.5908312758838627 0  -1.058553046801483 0.5097339209934517 0  -1.120310056660291 0.4243602271907241 0  -1.173460105469426 0.332098230618359 0  -1.211422019947775 0.2427624264071067 0  -1.235906825658678 0.1485545446302256 0  -1.247014890637855 0.05154257427949606 0  -1.246967397442792 -0.04943314106693077 0  -1.235881630175214 -0.1456768976185065 0  -1.211086012883027 -0.238207750355978 0  -1.169789495123104 -0.3330062324014808 0  -1.120655991110258 -0.424734994327793 0  -1.060225980866533 -0.5095604206373947 0  -0.9867982569315635 -0.5898065182259246 0  -0.9019720824980919 -0.6683770907592883 0  -0.8115199049916498 -0.7399922343340057 0  -0.7155839914281569 -0.8010150958884686 0  -0.6109169616348646 -0.8541109829228493 0  -0.4972107958748453 -0.9035946754965569 0  -0.3843662085703702 -0.9433627435852627 0  -0.2686421357174839 -0.9698320191515327 0  -0.1433603632571545 -0.9888892583655635 0  -0.02790809738577733 -1.001997684406083 0  0.08834004643610616 -0.994768198433611 0  0.2140868312333378 -0.977237664781832 0  0.3356590212364151 -0.9574367287574191 0  0.4496731336126852 -0.9254765870252062 0  0.5603711368491747 -0.8816307638709058 0  0.6706731218770136 -0.8302087545409977 0  0.772015377306313 -0.7739030927073099 0  0.8638919035870131 -0.7083944578584308 0  0.9496427541381562 -0.6328794871638241 0  1.02620525823803 -0.5517920787177777 0  1.095269852604041 -0.4673972482484384 0  1.153230416328833 -0.3780028765763107 0  1.19697871226789 -0.2869351929933419 0  1.229316164624743 -0.1915631353801413 0  1.250627544694462 -0.09462064732745779 0  -2.448556359093972 4.918104953453765 0  -2.448430068613242 -4.910482433700955 0  4.910406484455472 2.447885246440787 0  4.918534192667868 -2.449347653716779 0  2.446158868359147 -4.89571194351982 0  2.440592615477827 4.899475103390129 0  -4.910433576937601 -2.447911694624409 0  -4.910430849474302 2.447915636020267 0  -1.748510242646127 4.910988879244826 0  -1.744297106420455 -4.914430957059051 0  4.920579216293453 1.744060955151202 0  4.909105266385879 -1.747820750898937 0  -4.909399676445489 -1.747555115930641 0  -4.910222433950929 1.747300120663076 0  1.745782704740548 4.904843374113233 0  1.747194992515207 -4.892984353974788 0  -1.148822265730092 4.90876688178302 0  -1.129680620379944 -4.916686795509325 0  -4.909104455632192 -1.147885510726085 0  -4.908922597399749 1.147685956775985 0  1.143818107446391 -4.912868720947869 0  1.148832225263064 4.908753451828202 0  4.909243996881595 1.146160692288957 0  4.920086141863882 -1.151947596521415 0  -0.5466588627768162 -4.909952579636435 0  -0.5464425049197345 4.918644231110704 0  -4.90782666435826 -0.5486849768813588 0  -4.907850622751103 0.5472428327498249 0  4.907144545651431 -0.5490030301641713 0  4.918815311727799 0.5457634419934936 0  0.542440230352696 -4.896818935737313 0  0.5511708930302679 4.915464179084249 0  -4.91186716933973 -3.048271627894191 0  4.918439942949244 3.046289239688384 0  4.911374713621207 -3.048247049075784 0  -4.912715136464109 3.045363407298819 0  3.055283118890624 -4.917362573404481 0  -3.048612635837645 -4.911296679006456 0  3.052180311785531 4.913374999062844 0  -3.048058406847967 4.912186724614703 0  -4.906930889475283 -0.04990541014792293 0  0.04511917481193593 -4.911902128538315 0  0.04956670333547214 4.918935678089438 0  4.913994188563368 -0.05128767480805975 0  3.545605363807109 -4.919012735907383 0  -3.54888464329
[...]
<PointData  Vectors="f_4882"> 
<DataArray  type="Float64"  Name="f_4882"  NumberOfComponents="3" format="ascii">-5.6980860081400864e-41 -9.9680575358922403e-41 0.0000000000000000e+00  6.8417639480868453e-41 -9.6629818596687077e-41 0.0000000000000000e+00  -1.4775272278278513e-40 -1.5124202542291966e-40 0.0000000000000000e+00  -1.9102410559084574e-40 1.9550216174737500e-40 0.0000000000000000e+00  1.1981394919006958e+01 -2.8985234885300681e-01 0.0000000000000000e+00  1.6082868273718917e-40 2.2114012713336407e-40 0.0000000000000000e+00  7.8738867086830734e-40 6.8679974909152550e-40 0.0000000000000000e+00  -2.1592068938946164e-39 -1.9721174200227036e-39 0.0000000000000000e+00  1.3720471212666110e-38 1.5629391794198863e-38 0.0000000000000000e+00  -5.1572191390162306e-38 -5.6481423281846647e-38 0.0000000000000000e+00  1.8158928299692529e-37 2.3561771393101972e-37 0.0000000000000000e+00  -7.2696171809223677e-37 -9.5468764698494321e-37 0.0000000000000000e+00  3.2756898728845074e-36 4.4605157130319722e-36 0.0000000000000000e+00  -1.6285900670944956e-35 -2.1698209928526195e-35 0.0000000000000000e+00  7.3843265593429710e-35 9.5085843544706015e-35 0.0000000000000000e+00  -1.6230900023145848e-34 -1.8781892265912557e-34 0.0000000000000000e+00  2.7748685612532343e-34 2.8038789196996321e-34 0.0000000000000000e+00  1.4873931158325319e-33 1.5913697864098219e-33 0.0000000000000000e+00  -5.2209094973807312e-33 -6.4867213968094399e-33 0.0000000000000000e+00  8.7210181205714213e-33 1.4359454871364405e-32 0.0000000000000000e+00  -6.5227278868462847e-32 -9.4798133258978964e-32 0.0000000000000000e+00  1.9205066715563722e-31 2.7636159990615283e-31 0.0000000000000000e+00  9.7674928963759458e-32 7.1511659904726469e-32 0.0000000000000000e+00  -9.3209152272346188e-31 -9.7348193719379496e-31 0.0000000000000000e+00  -4.8390576968798389e-31 -1.0636016382082096e-30 0.0000000000000000e+00  -1.7071430541858147e-30 -4.3057090630623301e-30 0.0000000000000000e+00  3.0783185204468238e-30 6.4143935667035414e-30 0.0000000000000000e+00  -1.6476053726169667e-30 -8.0429582544707973e-30 0.0000000000000000e+00  1.7397920318572475e-29 4.3563888116919038e-29 0.0000000000000000e+00  6.6539892457658755e-30 1.9210208018594762e-29 0.0000000000000000e+00  -8.2429257083901770e-29 -2.0090399094276418e-28 0.0000000000000000e+00  -4.5382279531604651e-29 -1.1334348851052355e-28 0.0000000000000000e+00  -8.8571108817375342e-29 -2.8518612162399402e-28 0.0000000000000000e+00  9.9251878759903163e-29 3.1042217713413788e-28 0.0000000000000000e+00  2.4137005756192006e-28 9.3600782415517685e-28 0.0000000000000000e+00  5.8710224011826439e-29 -5.7741089818864827e-29 0.0000000000000000e+00  1.2538995937889251e-28 2.4527627378577987e-28 0.0000000000000000e+00  -2.1368284954045437e-29 -1.4893532929429029e-28 0.0000000000000000e+00  -3.0122919420300140e-28 -7.8706706279614468e-28 0.0000000000000000e+00  -2.9047049644258294e-28 -6.6992715276969666e-28 0.0000000000000000e+00  6.6530007077972465e-30 1.3181944225588258e-29 0.0000000000000000e+00  2.9278144161355564e-28 7.1739371634219711e-28 0.0000000000000000e+00  2.2753566255524621e-28 4.2391062403347349e-28 0.0000000000000000e+00  6.4272881435719627e-29 -4.2114929047141397e-29 0.0000000000000000e+00  1.1567553773691867e-28 1.2065302801904242e-28 0.0000000000000000e+00  -4.2617743963929893e-28 4.9795464375866799e-28 0.0000000000000000e+00  -2.6580075685809309e-28 9.2330501133466997e-28 0.0000000000000000e+00  2.6205124453105128e-28 -4.8346264073869715e-28 0.0000000000000000e+00  -1.5095141380925670e-28 3.1323830692669834e-27 0.0000000000000000e+00  -3.1895912787787747e-28 -6.5337163663347970e-29 0.0000000000000000e+00  -5.9615882359569706e-28 -2.8547505340276884e-27 0.0000000000000000e+00  -6.9587198306615396e-28 -1.5735257059142139e-27 0.0000000000000000e+00  -4.7016007438521329e-28 -2.5118721092716779e-27 0.0000000000000000e+00  7.2358204696685732e-30 -6.5702904634955998e-27 0.0000000000000000e+00  1.2785925585116285e-28 -7.4754866294707326e-27 0.0000000000000000e+00  -6.8127083353902681e-29 -1.2013900269095307e-27 0.0000000000000000e+00  -1.6778671914214821e-28 -3.9058048879312669e-27 0.0000000000000000e+00  -1.8161181649620371e-28 -1.2525802740113381e-27 0.0000000000000000e+00  -9.0857826818775663e-29 -2.4183688910903264e-27 0.0000000000000000e+00  -8.6242888050665704e-29 1.5077718826691769e-27 0.0000000000000000e+00  6.3828409947566270e-29 -3.0310701804691126e-27 0.0000000000000000e+00  2.1336140069521306e-28 -2.6937088362813340e-27 0.0000000000000000e+00  -2.0955259783376330e-29 8.9766693288958178e-28 0.0000000000000000e+00  -2.5914246578114340e-28 4.8376377382408990e-27 0.0000000000000000e+00  -1.7135291760922853e-28 1.8890371209224841e-27 0.0000000000000000e+00  -1.7744730882824967e-28 7.8857248588654805e-28 0.0000000000000000e+00  -3.5065522050859931e-28 2.6053625958344457e-27 0.0000000000000000e+00  -1.9859304173427821e-28 1.3649759524573114e-27 0.0000000000000000e+00  2.2341870451334865e-28 -1.7599011697958369e-27 0.0000000000000000e+00  1.7796076101216651e-28 -7.5267435138162290e-28 0.0000000000000000e+00  1.1099557697095642e-29 -3.6671681868458364e-29 0.0000000000000000e+00  1.6629860862876534e-28 -4.6876662925608615e-28 0.0000000000000000e+00  1.0614732655147290e-28 -4.2737447481154469e-28 0.0000000000000000e+00  -1.1058678342285708e-28 4.2605793083750940e-28 0.0000000000000000e+00  -5.3945298045670699e-29 2.6042692168131580e-28 0.0000000000000000e+00  -3.8491235491159344e-29 1.4898680182840257e-28 0.0000000000000000e+00  3.0486269042014993e-29 -1.0522399743821387e-28 0.0000000000000000e+00  2.5719875374135197e-29 -8.1500003997141370e-29 0.0000000000000000e+00  4.7385496823964924e-29 -1.3882234083856098e-28 0.0000000000000000e+00  -7.5131670392101314e-30 1.3029246611964261e-29 0.0000000000000000e+00  -4.8026008532559511e-29 1.2214649563184999e-28 0.0000000000000000e+00  7.1445540222876041e-30 -1.7900805314041937e-29 0.0000000000000000e+00  3.1674256673736702e-30 -7.7721021564110273e-30 0.0000000000000000e+00  -8.1284682740462666e-30 1.6053730828315450e-29 0.0000000000000000e+00  -6.5269654949141839e-31 7.3090135953004231e-31 0.0000000000000000e+00  8.9766737180759799e-31 -1.4480515853067480e-30 0.0000000000000000e+00  -3.9011399654951617e-31 6.2292224495377543e-31 0.0000000000000000e+00  8.6011079206856521e-32 -1.2489537952485742e-31 0.0000000000000000e+00  -8.3702643142575714e-33 1.2874076210414994e-32 0.0000000000000000e+00  -4.3692747553249797e-33 4.5941071999552167e-33 0.0000000000000000e+00  5.5924915686366503e-33 -6.2291189551477761e-33 0.0000000000000000e+00  -4.0227642051220308e-34 4.4134086182595225e-34 0.0000000000000000e+00  -6.6988511797944434e-35 7.7500428709672473e-35 0.0000000000000000e+00  -1.9392622900342287e-35 2.4126115612596757e-35 0.0000000000000000e+00  1.5512043020688483e-36 6.7604771173051979e-38 0.0000000000000000e+00  1.7469617108152571e-36 -2.0097550620819356e-36 0.0000000000000000e+00  -1.5580502635578176e-36 1.5091063815858452e-36 0.0000000000000000e+00  4.7289576099632865e-37 -4.9328704314293837e-37 0.0000000000000000e+00  -2.2322909824820725e-37 2.2162643497354008e-37 0.0000000000000000e+00  7.1519418272701753e-38 -6.9172566496551321e-38 0.0000000000000000e+00  -1.2868357459734890e-38 1.2731470233149266e-38 0.0000000000000000e+00  4.6865389900306673e-39 -4.6838902107921610e-39 0.0000000000000000e+00  -3.9780170052853820e-40 3.3218411041607170e-40 0.0000000000000000e+00  -1.2113085442298248e-40 1.7029504740106118e-40 0.0000000000000000e+00  6.5638347370392733e-42 -2.3840899157066395e-42 0.0000000000000000e+00  3.2173229752819564e-40 -2.6901498305577596e-40 0.0000000000000000e+00  -7.1163874340323133e-40 5.9506920098618335e-40 0.0000000000000000e+00  1.7802116922522408e-39 -1.8925198111363901e-39 0.0000000000000000e+00  7.4683842395712155e-40 4.8566064877884651e-40 0.0000000000000000e+00  -1.4285541942241688e-38 1.0665325712566008e-38 0.0000000000000000e+00  3.9549924109106668e-38 -3.5417948235769206e-38 0.0000000000000000e+00  -2.6163022411345825e-38 3.7604841246705020e-38 0.0000000000000000e+00  -1.8415920677707605e-37 1.1518055664629246e-37 0.0000000000000000e+00  7.2432578270618539e-37 -5.6802740491032411e-37 0.0000000000000000e+00  -8.4183233816918665e-37 8.2319233339294768e-37 0.0000000000000000e+00  -2.2402601778631923e-36 1.2624167568539681e-36 0.0000000000000000e+00  1.0835672089556307e-35 -7.8869780411745448e-36 0.0000000000000000e+00  -1.5442729448977129e-35 1.2824623328927530e-35 0.0000000000000000e+00  -2.8209337511093491e-35 1.6276631627842933e-35 0.0000000000000000e+00  1.5947474002269470e-34 -1.1108936563544975e-34 0.0000000000000000e+00  -1.9593658333383427e-34 1.4771706903831199e-34 0.0000000000000000e+00  -4.6104982941630141e-34 2.9300931112756499e-34 0.0000000000000000e+00  2.1003570645286857e-33 -1.4108717935900791e-33 0.0000000000000000e+00  -1.5319618642570474e-33 1.0460731251924792e-33 0.0000000000000000e+00  -8.5081179595433001e-33 5.5439323696546921e-33 0.0000000000000000e+00  2.2990334728304682e-32 -1.4611827784579865e-32 0.0000000000000000e+00  7.1180620124426385e-33 -5.5117729192150417e-33 0.0000000000000000e+00  -1.3209214979644345e-31 8.2505435003822841e-32 0.0000000000000000e+00  1.5347350205363970e-31 -8.4866461554809379e-32 0.0000000000000000e+00  4.5797921495609593e-31 -2.9074019086542856e-31 0.0000000000000000e+00  -1.2378014974771615e-30 6.8976820960318328e-31 0.0000000000000000e+00  -8.6516810742382586e-31 6.4373518639517042e-31 0.0000000000000000e+00  6.7698347305645111e-30 -3.7207467006611997e-30 0.0000000000000000e+00  -1.5891568718778408e-30 -8.5758881319783909e-32 0.0000000000000000e+00  -3.0312228208400877e-29 1.6424242570224740e-29 0.0000000000000000e+00  2.4182765973724881e-29 -7.1731453084741322e-30 0.0000000000000000e+00  1.2517455498839050e-28 -6.6998145811605324e-29 0.0000000000000000e+00  -1.4312269506924173e-28 4.1447936500277512e-29 0.0000000000000000e+00  -5.3159859355703749e-28 2.7339269250943699e-28 0.0000000000000000e+00  5.9533267244712908e-28 -1.1896716015251076e-28 0.0000000000000000e+00  2.2718616040881922e-27 -1.0710964581700470e-27 0.0000000000000000e+00  -1.9193429315928606e-27 5.3630973724048955e-29 0.0000000000000000e+00  -9.2195553122287659e-27 3.3753742398632627e-27 0.0000000000000000e+00  3.0475848387087460e-27 1.7319406165374657e-27 0.0000000000000000e+00  3.0674806942826661e-26 -7.6972067856982495e-27 0.0000000000000000e+00  1.7156122371279288e-26 -1.1691107904817932e-26 0.0000000000000000e+00  -7.6731914121013848e-26 3.9290541986563447e-27 0.0000000000000000e+00  -1.0766467524624759e-25 1.1241294942681124e-26 0.0000000000000000e+00  1.8331130414295095e-25 -4.8772279998806332e-26 0.0000000000000000e+00  8.8652280750847771e-25 -1.9916465366696223e-25 0.0000000000000000e+00  1.5397839129168315e-24 -3.3328920187845385e-25 0.0000000000000000e+00  1.7876106361942066e-24 -3.4602377531578328e-25 0.0000000000000000e+00  1.6501508096255239e-24 -1.9811406071706387e-25 0.0000000000000000e+00  1.6112615554223862e-24 2.5168590978815476e-26 0.0000000000000000e+00  1.7513399003145816e-24 2.2401855394409600e-25 0.0000000000000000e+00  1.6869718426797026e-24 2.9990849047663193e-25 0.0000000000000000e+00  1.1685940467183406e-24 2.3168529751870104e-25 0.0000000000000000e+00  4.1483555071357576e-25 8.7402889103207355e-26 0.0000000000000000e+00  -7.6723732987503917e-26 -1.5601382468367920e-26 0.0000000000000000e+00  -1.6100673005413994e-25 -3.2641967970917183e-26 0.0000000000000000e+00  -3.2691883457479081e-26 -7.0226624503016248e-28 0.0000000000000000e+00  4.6274453230439697e-26 1.7829385840112555e-26 0.0000000000000000e+00  3.0395363700061667e-26 1.0444469907403038e-26 0.0000000000000000e+00  -1.7510503464927506e-27 -4.3515640136704404e-28 0.0000000000000000e+00  -7.0239568303626636e-27 -2.1819001250939902e-27 0.0000000000000000e+00  -4.6397350797145030e-28 -1.0568829893864864e-29 0.0000000000000000e+00  1.6909266465251563e-27 6.1142385644178250e-28 0.0000000000000000e+00  1.5609359122631040e-28 1.3274979826607723e-29 0.0000000000000000e+00  -4.0908907770591819e-28 -1.6009879068041365e-28 0.0000000000000000e+00  -2.0112877692221243e-29 6.7570137722645435e-30 0.0000000000000000e+00  9.6395603591003316e-29 3.9642048659162093e-29 0.0000000000000000e+00  -6.2994606983752554e-30 -7.6722687223186766e-30 0.0000000000000000e+00  -2.1234940309870444e-29 -8.9650281447162640e-30 0.0000000000000000e+00  4.2595533662897114e-30 3.2919684817496586e-30 0.0000000000000000e+00  3.8284616496043069e-30 1.5450816133397269e-30 0.0000000000000000e+00  -1.6890514570033471e-30 -1.1202252609767248e-30 0.0000000000000000e+00  -4.9307135949323777e-31 -1.4528277385404335e-31 0.0000000000000000e+00  4.7356250812912796e-31 2.9348853878770460e-31 0.0000000000000000e+00  -1.6403441585308241e-32 -3.9907672355713065e-32 0.0000000000000000e+00  -9.5863883679033209e-32 -5.6336486278008998e-32 0.0000000000000000e+00  2.9483261187710152e-32 2.3829108705874397e-32 0.0000000000000000e+00  1.1724490645792144e-32 5.6898080969487049e-33 0.0000000000000000e+00  -9.7862177024530750e-33 -6.8512057608783821e-33 0.0000000000000000e+00  7.9605273543257538e-34 9.1967653380611889e-34 0.0000000000000000e+00  1.5486753635681992e-33 1.0226244311213670e-33 0.0000000000000000e+00  -7.2026464053266620e-34 -5.4617747471328031e-34 0.0000000000000000e+00  -2.8202464522793717e-35 -4.8927569593309107e-36 0.0000000000000000e+00  1.4515513796232184e-34 1.0715711877905665e-34 0.0000000000000000e+00  -5.1843301431848339e-35 -4.0004942561477999e-35 0.0000000000000000e+00  -4.3567445759113430e-36 -3.5825749778494098e-36 0.0000000000000000e+00  1.0470886640922830e-35 8.3736948004365065e-36 0.0000000000000000e+00  -3.6250823652781346e-36 -2.8027622459497556e-36 0.0000000000000000e+00  -1.9581861354972708e-37 -2.6816969888344549e-37 0.0000000000000000e+00  6.6928082397540750e-37 5.8535202049302259e-37 0.0000000000000000e+00  -2.6080003463753765e-37 -2.0890906029773061e-37 0.0000000000000000e+00  1.1398492659548740e-38 -3.3827745764341110e-39 0.0000000000000000e+00  3.5052018078700131e-38 3.5255145598762783e-38 0.0000000000000000e+00  -1.8194896597301681e-38 -1.6033022145690001e-38 0.0000000000000000e+00  2.9859000727538720e-39 1.6957476345114845e-39 0.0000000000000000e+00  1.3148022099865616e-39 1.7100852623084363e-39 0.0000000000000000e+00  -1.0567905803060798e-39 -1.0771616959515311e-39 0.0000000000000000e+00  3.2626216625529052e-40 2.8275894869966713e-40 0.0000000000000000e+00  3.5847805562298531e-41 8.2680062779219678e-41 0.0000000000000000e+00  2.5570907498503510e-40 2.4804035368203110e-40 0.0000000000000000e+00  -4.5536192217706075e-40 -6.1122671670525235e-40 0.0000000000000000e+00  1.0337530789621636e-39 1.3371030850913488e-39 0.0000000000000000e+00  -5.9044778111840120e-39 -8.5256136605437730e-39 0.0000000000000000e+00  5.5657034044473606e-38 6.5573926864720102e-38 0.0000000000000000e+00  -1.5835042442628736e-37 -1.7137723827924962e-37 0.0000000000000000e+00  2.2670762187521026e-37 2.6289228958129845e-37 0.0000000000000000e+00  -2.9126195617104539e-36 -3.6259533391975638e-36 0.0000000000000000e+00  8.7485122171153357e-36 1.1936737819762235e-35 0.0000000000000000e+00  -3.3807767553043142e-35 -4.9353791994303918e-35 0.0000000000000000e+00  6.7492456784866455e-35 9.6891515046232614e-35 0.0000000000000000e+00  -4.3241967506765808e-35 -9.4935064382996666e-35 0.0000000000000000e+00  2.9780422901578130e-34 5.5343726950450269e-34 0.0000000000000000e+00  1.5151719610827462e-33 1.6334443323161071e-33 0.0000000000000000e+00  -1.4721680068534655e-33 -6.7005423944541755e-34 0.0000000000000000e+00  3.2803712606661919e-32 4.3666480374874940e-32 0.0000000000000000e+00  -1.0562401799543479e-31 -1.4762205989627500e-31 0.0000000000000000e+00  -5.3751262692748404e-31 -7.5678811481575018e-31 0.0000000000000000e+00  1.4034580034933952e-30 1.9953240246910680e-30 0.0000000000000000e+00  -1.1999670761656717e-30 -1.8117045751645526e-30 0.0000000000000000e+00  -3.1643006824390252e-30 -6.2448736521902323e-30 0.0000000000000000e+00  1.1056246782033881e-29 2.5424474607453398e-29 0.0000000000000000e+00  1.2326963242076512e-29 2.8935635952225314e-29 0.0000000000000000e+00  -6.7808177574538396e-29 -1.7391043898482917e-28 0.0000000000000000e+00  1.8864381921484809e-29 4.3418759948423978e-29 0.0000000000000000e+00  8.8936026022410006e-29 1.8158167622127542e-28 0.0000000000000000e+00  1.1230908636185399e-29 7.2022540982722990e-29 0.0000000000000000e+00  1.3800636651424132e-28 5.5139778320956562e-28 0.0000000000000000e+00  7.0209616815264726e-29 2.3641362193825719e-28 0.0000000000000000e+00  -1.2787661780208506e-28 -4.0249743094779494e-28 0.0000000000000000e+00  -3.3608249287919100e-28 -1.3295390462538648e-27 0.0000000000000000e+00  2.0905219484601225e-28 8.7051441627757774e-28 0.0000000000000000e+00  3.1337575123657312e-28 1.2744820439558952e-27 0.0000000000000000e+00  2.9375886178891576e-28 1.3917072757792716e-27 0.0000000000000000e+00  2.8664771013180638e-28 1.2475415059958388e-27 0.0000000000000000e+00  -3.5788247522486877e-28 -1.8119232012365943e-27 0.0000000000000000e+00  1.9607949465998639e-29 9.8095148890893139e-29 0.0000000000000000e+00  7.3439035877681584e-29 2.7573309789325421e-28 0.0000000000000000e+00  -1.5680034544256859e-28 -1.0468508024924420e-27 0.0000000000000000e+00  -1.1234361792708239e-28 -1.0049626981125445e-27 0.0000000000000000e+00  -3.4960808601333197e-28 -3.2465386748643003e-27 0.0000000000000000e+00  -3.2662305526277774e-28 -2.4717606160962117e-27 0.0000000000000000e+00  -1.5438655680128449e-28 -2.3987941784574070e-28 0.0000000000000000e+00  -1.4241110546417756e-28 -1.3976380070090530e-27 0.0000000000000000e+00  8.1099140047313607e-29 -2.1292823388316192e-27 0.0000000000000000e+00  -2.0572418222875787e-28 -4.4901221935592010e-28 0.0000000000000000e+00  -1.8491893047678051e-28 -5.9322045452911970e-28 0.0000000000000000e+00  1.6642565754886527e-28 -1.9046738709451666e-27 0.0000000000000000e+00  4.8751807095475683e-29 -1.1742664817293697e-27 0.0000000000000000e+00  3.0703104253871711e-28 -2.1187136177745427e-27 0.0000000000000000e+00  -3.1270618012755992e-28 8.9536339619085062e-28 0.0000000000000000e+00  -2.9678030442524751e-28 8.2877021971804349e-28 0.0000000000000000e+00  4.5955752275784888e-28 -2.0083390506777307e-27 0.0000000000000000e+00  2.1178547032754841e-28 -8.1901483763888058e-28 0.0000000000000000e+00  3.9719676056742035e-28 -2.1534918037703653e-27 0.0000000000000000e+00  1.1259731999677300e-28 2.4804930225152467e-28 0.0000000000000000e+00  9.2400160448475121e-29 -1.9661798908820661e-28 0.0000000000000000e+00  3.8531729320897695e-28 -1.6251433040326141e-27 0.0000000000000000e+00  2.0932270232387386e-28 -9.2019919309250345e-28 0.0000000000000000e+00  3.9156820558868424e-28 -2.4557452021124313e-27 0.0000000000000000e+00  5.5507578988352674e-28 -3.4837806133349184e-27 0.0000000000000000e+00  5.9459685032212004e-28 -4.0514276682776008e-27 0.0000000000000000e+00  1.6346474784774113e-28 -9.1875017278763861e-28 0.0000000000000000e+00  -2.1984977833480830e-28 1.5704869906359600e-27 0.0000000000000000e+00  -3.1754134171039948e-28 1.9408532611294430e-27 0.0000000000000000e+00  -3.4958206875475909e-28 1.9317156262035628e-27 0.0000000000000000e+00  -7.4296329315322849e-29 3.7513947057906169e-28 0.0000000000000000e+00  8.1847303642518481e-29 -4.6612884354493297e-28 0.0000000000000000e+00  4.8677243707230643e-29 -2.5445814023485497e-28 0.0000000000000000e+00  2.0351094208296260e-28 -9.6719746629476066e-28 0.0000000000000000e+00  8.0268160569346431e-29 -3.7684268292618948e-28 0.0000000000000000e+00  -7.8345037543095685e-29 3.5314951732773718e-28 0.0000000000000000e+00  4.9758073174341414e-30 -3.8031320949222398e-29 0.0000000000000000e+00  8.0672512666225900e-30 -2.4001092686442274e-29 0.0000000000000000e+00  1.5350692550607746e-29 -4.9197628357846680e-29 0.0000000000000000e+00  -3.9683120290578140e-30 1.0411460917402158e-29 0.0000000000000000e+00  -6.6291921873185347e-30 1.7084003190801334e-29 0.0000000000000000e+00  9.69192