<?xml version="1.0"?>
<VTKFile type="UnstructuredGrid"  version="0.1"  >
<UnstructuredGrid>
<Piece  NumberOfPoints="11902" NumberOfCells="23402">
<Points>
<DataArray  type="Float64"  NumberOfComponents="3"  format="ascii">-5 -5 0  5 -5 0  5 5 0  -5 5 0  1.263696848098453 0.00127575358935317 0  -4.9 -5 0  -4.8 -5 0  -4.7 -5 0  -4.6 -5 0  -4.5 -5 0  -4.4 -5 0  -4.3 -5 0  -4.2 -5 0  -4.1 -5 0  -4 -5 0  -3.9 -5 0  -3.8 -5 0  -3.7 -5 0  -3.6 -5 0  -3.5 -5 0  -3.4 -5 0  -3.3 -5 0  -3.2 -5 0  -3.1 -5 0  -3 -5 0  -2.9 -5 0  -2.8 -5 0  -2.7 -5 0  -2.6 -5 0  -2.5 -5 0  -2.4 -5 0  -2.3 -5 0  -2.2 -5 0  -2.1 -5 0  -2 -5 0  -1.9 -5 0  -1.8 -5 0  -1.7 -5 0  -1.6 -5 0  -1.5 -5 0  -1.4 -5 0  -1.3 -5 0  -1.2 -5 0  -1.1 -5 0  -1 -5 0  -0.9000000000000004 -5 0  -0.7999999999999998 -5 0  -0.7000000000000002 -5 0  -0.5999999999999996 -5 0  -0.5 -5 0  -0.4000000000000004 -5 0  -0.2999999999999998 -5 0  -0.2000000000000002 -5 0  -0.09999999999999964 -5 0  0 -5 0  0.09999999999999964 -5 0  0.2000000000000002 -5 0  0.2999999999999998 -5 0  0.4000000000000004 -5 0  0.5 -5 0  0.5999999999999996 -5 0  0.7000000000000002 -5 0  0.7999999999999998 -5 0  0.9000000000000004 -5 0  1 -5 0  1.1 -5 0  1.2 -5 0  1.3 -5 0  1.4 -5 0  1.5 -5 0  1.6 -5 0  1.7 -5 0  1.8 -5 0  1.9 -5 0  2 -5 0  2.1 -5 0  2.2 -5 0  2.3 -5 0  2.4 -5 0  2.5 -5 0  2.6 -5 0  2.7 -5 0  2.8 -5 0  2.9 -5 0  3 -5 0  3.1 -5 0  3.199999999999999 -5 0  3.300000000000001 -5 0  3.4 -5 0  3.5 -5 0  3.6 -5 0  3.699999999999999 -5 0  3.800000000000001 -5 0  3.9 -5 0  4 -5 0  4.1 -5 0  4.199999999999999 -5 0  4.300000000000001 -5 0  4.4 -5 0  4.5 -5 0  4.6 -5 0  4.699999999999999 -5 0  4.800000000000001 -5 0  4.9 -5 0  5 -4.9 0  5 -4.8 0  5 -4.7 0  5 -4.6 0  5 -4.5 0  5 -4.4 0  5 -4.3 0  5 -4.2 0  5 -4.1 0  5 -4 0  5 -3.9 0  5 -3.8 0  5 -3.7 0  5 -3.6 0  5 -3.5 0  5 -3.4 0  5 -3.3 0  5 -3.2 0  5 -3.1 0  5 -3 0  5 -2.9 0  5 -2.8 0  5 -2.7 0  5 -2.6 0  5 -2.5 0  5 -2.4 0  5 -2.3 0  5 -2.2 0  5 -2.1 0  5 -2 0  5 -1.9 0  5 -1.8 0  5 -1.7 0  5 -1.6 0  5 -1.5 0  5 -1.4 0  5 -1.3 0  5 -1.2 0  5 -1.1 0  5 -1 0  5 -0.9000000000000004 0  5 -0.7999999999999998 0  5 -0.7000000000000002 0  5 -0.5999999999999996 0  5 -0.5 0  5 -0.4000000000000004 0  5 -0.2999999999999998 0  5 -0.2000000000000002 0  5 -0.09999999999999964 0  5 0 0  5 0.09999999999999964 0  5 0.2000000000000002 0  5 0.2999999999999998 0  5 0.4000000000000004 0  5 0.5 0  5 0.5999999999999996 0  5 0.7000000000000002 0  5 0.7999999999999998 0  5 0.9000000000000004 0  5 1 0  5 1.1 0  5 1.2 0  5 1.3 0  5 1.4 0  5 1.5 0  5 1.6 0  5 1.7 0  5 1.8 0  5 1.9 0  5 2 0  5 2.1 0  5 2.2 0  5 2.3 0  5 2.4 0  5 2.5 0  5 2.6 0  5 2.7 0  5 2.8 0  5 2.9 0  5 3 0  5 3.1 0  5 3.199999999999999 0  5 3.300000000000001 0  5 3.4 0  5 3.5 0  5 3.6 0  5 3.699999999999999 0  5 3.800000000000001 0  5 3.9 0  5 4 0  5 4.1 0  5 4.199999999999999 0  5 4.300000000000001 0  5 4.4 0  5 4.5 0  5 4.6 0  5 4.699999999999999 0  5 4.800000000000001 0  5 4.9 0  4.9 5 0  4.8 5 0  4.7 5 0  4.6 5 0  4.5 5 0  4.4 5 0  4.3 5 0  4.2 5 0  4.1 5 0  4 5 0  3.9 5 0  3.8 5 0  3.7 5 0  3.6 5 0  3.5 5 0  3.4 5 0  3.3 5 0  3.2 5 0  3.1 5 0  3 5 0  2.9 5 0  2.8 5 0  2.7 5 0  2.6 5 0  2.5 5 0  2.4 5 0  2.3 5 0  2.2 5 0  2.1 5 0  2 5 0  1.9 5 0  1.8 5 0  1.7 5 0  1.6 5 0  1.5 5 0  1.4 5 0  1.3 5 0  1.2 5 0  1.1 5 0  1 5 0  0.9000000000000004 5 0  0.7999999999999998 5 0  0.7000000000000002 5 0  0.5999999999999996 5 0  0.5 5 0  0.4000000000000004 5 0  0.2999999999999998 5 0  0.2000000000000002 5 0  0.09999999999999964 5 0  0 5 0  -0.09999999999999964 5 0  -0.2000000000000002 5 0  -0.2999999999999998 5 0  -0.4000000000000004 5 0  -0.5 5 0  -0.5999999999999996 5 0  -0.7000000000000002 5 0  -0.7999999999999998 5 0  -0.9000000000000004 5 0  -1 5 0  -1.1 5 0  -1.2 5 0  -1.3 5 0  -1.4 5 0  -1.5 5 0  -1.6 5 0  -1.7 5 0  -1.8 5 0  -1.9 5 0  -2 5 0  -2.1 5 0  -2.2 5 0  -2.3 5 0  -2.4 5 0  -2.5 5 0  -2.6 5 0  -2.7 5 0  -2.8 5 0  -2.9 5 0  -3 5 0  -3.1 5 0  -3.199999999999999 5 0  -3.300000000000001 5 0  -3.4 5 0  -3.5 5 0  -3.6 5 0  -3.699999999999999 5 0  -3.800000000000001 5 0  -3.9 5 0  -4 5 0  -4.1 5 0  -4.199999999999999 5 0  -4.300000000000001 5 0  -4.4 5 0  -4.5 5 0  -4.6 5 0  -4.699999999999999 5 0  -4.800000000000001 5 0  -4.9 5 0  -5 4.9 0  -5 4.8 0  -5 4.7 0  -5 4.6 0  -5 4.5 0  -5 4.4 0  -5 4.3 0  -5 4.2 0  -5 4.1 0  -5 4 0  -5 3.9 0  -5 3.8 0  -5 3.7 0  -5 3.6 0  -5 3.5 0  -5 3.4 0  -5 3.3 0  -5 3.2 0  -5 3.1 0  -5 3 0  -5 2.9 0  -5 2.8 0  -5 2.7 0  -5 2.6 0  -5 2.5 0  -5 2.4 0  -5 2.3 0  -5 2.2 0  -5 2.1 0  -5 2 0  -5 1.9 0  -5 1.8 0  -5 1.7 0  -5 1.6 0  -5 1.5 0  -5 1.4 0  -5 1.3 0  -5 1.2 0  -5 1.1 0  -5 1 0  -5 0.9000000000000004 0  -5 0.7999999999999998 0  -5 0.7000000000000002 0  -5 0.5999999999999996 0  -5 0.5 0  -5 0.4000000000000004 0  -5 0.2999999999999998 0  -5 0.2000000000000002 0  -5 0.09999999999999964 0  -5 0 0  -5 -0.09999999999999964 0  -5 -0.2000000000000002 0  -5 -0.2999999999999998 0  -5 -0.4000000000000004 0  -5 -0.5 0  -5 -0.5999999999999996 0  -5 -0.7000000000000002 0  -5 -0.7999999999999998 0  -5 -0.9000000000000004 0  -5 -1 0  -5 -1.1 0  -5 -1.2 0  -5 -1.3 0  -5 -1.4 0  -5 -1.5 0  -5 -1.6 0  -5 -1.7 0  -5 -1.8 0  -5 -1.9 0  -5 -2 0  -5 -2.1 0  -5 -2.2 0  -5 -2.3 0  -5 -2.4 0  -5 -2.5 0  -5 -2.6 0  -5 -2.7 0  -5 -2.8 0  -5 -2.9 0  -5 -3 0  -5 -3.1 0  -5 -3.199999999999999 0  -5 -3.300000000000001 0  -5 -3.4 0  -5 -3.5 0  -5 -3.6 0  -5 -3.699999999999999 0  -5 -3.800000000000001 0  -5 -3.9 0  -5 -4 0  -5 -4.1 0  -5 -4.199999999999999 0  -5 -4.300000000000001 0  -5 -4.4 0  -5 -4.5 0  -5 -4.6 0  -5 -4.699999999999999 0  -5 -4.800000000000001 0  -5 -4.9 0  1.255524473368296 0.09361409537688527 0  1.233420762263701 0.1914277727892669 0  1.199771313947547 0.288075976315698 0  1.157011469461089 0.3764306392342485 0  1.098514883455111 0.4674828262501047 0  1.032150013848489 0.5511769141499215 0  0.9535030619403644 0.6315455207278209 0  0.8662441414608623 0.7064780665750459 0  0.7744022656453166 0.7718022764440403 0  0.6722770334709464 0.8292304620857893 0  0.5592426678292614 0.881467004162947 0  0.4459947999268852 0.9263563022097079 0  0.3346983214347793 0.9581159992581422 0  0.2087812927905093 0.9802435404895571 0  0.08802623228961397 0.9989853728007801 0  -0.02652403868688939 1.002446743994817 0  -0.1441904426666196 0.9886848127158803 0  -0.2733922355662833 0.969081610831326 0  -0.3932817405011695 0.9449559767075677 0  -0.5031613481721838 0.9095417686581246 0  -0.6128223971443232 0.863088011904943 0  -0.7148563305957031 0.8081024245890384 0  -0.8094337053170195 0.7434449151467257 0  -0.9009810889860405 0.6696433342525469 0  -0.9874059943729827 0.5894324597726819 0  -1.06229763783788 0.5079457701270176 0  -1.124349822680555 0.4233107523248362 0  -1.179006038400034 0.3299989585871071 0  -1.216589028640769 0.2425463692903982 0  -1.240997221679067 0.1486587172431864 0  -1.251450454080737 0.05234679855980595 0  -1.25140890657307 -0.05005103362878879 0  -1.240932536216719 -0.1456399584326568 0  -1.216204064719714 -0.236909116972214 0  -1.174153397678107 -0.3319856196066462 0  -1.124656686484038 -0.4242326799955941 0  -1.064278406350255 -0.5078389311149978 0  -0.9899376386699844 -0.588449959652607 0  -0.9041317182727034 -0.6676094026672523 0  -0.8133646387867429 -0.7391510377792336 0  -0.7178440738023224 -0.7999386349650756 0  -0.6131157120980291 -0.8532071028066593 0  -0.4977725146360324 -0.9029012877767159 0  -0.3851864347041155 -0.9428333259361373 0  -0.2700572487341354 -0.9689134120891648 0  -0.1425224573485432 -0.9886905669085571 0  -0.02761171605377494 -1.001688388782983 0  0.08672478089946507 -0.994281059765317 0  0.2150668112227189 -0.9763394717427466 0  0.3375469421680286 -0.9563698625578132 0  0.4501850790616352 -0.9250344784554743 0  0.5618862092027159 -0.8807035693028067 0  0.673481216279993 -0.8291289431659244 0  0.7742578272534684 -0.7729653580550514 0  0.8657895710567847 -0.7078966675259473 0  0.9517200823225738 -0.6320550415640972 0  1.029664948179715 -0.5499030218445851 0  1.099900021837536 -0.4660287442529515 0  1.157826584748596 -0.3768246824042942 0  1.201555306045126 -0.2861471667811311 0  1.234145431207075 -0.1907131318168288 0  1.255936168258691 -0.09360229552624028 0  -2.44852935404984 4.918056886569347 0  -2.448400448623057 -4.910429858689277 0  4.910352075665504 2.447848132791082 0  4.918484838248914 -2.449314081027239 0  2.446124576751171 -4.895650316041665 0  2.440559301505834 4.899415374777356 0  -4.910379400859177 -2.447875030099588 0  -4.910376688451591 2.447879135818175 0  -1.748482145614381 4.910919064837242 0  -1.744269948584026 -4.914363764474108 0  4.920510654690073 1.744027375657503 0  4.909026992143614 -1.747782529292671 0  -4.909321948675673 -1.747517267859657 0  -4.910145419287006 1.747262860601834 0  1.745752508191744 4.904768205443426 0  1.747161400626568 -4.892900062653341 0  -1.148799849914364 4.908681771260118 0  -1.129660144462346 -4.916608811117699 0  -4.909007318368251 -1.147854368547191 0  -4.908825273528014 1.147655062612161 0  1.143796954793149 -4.912787203506292 0  1.148809581807634 4.908667981364032 0  4.909146428649677 1.146129212331821 0  4.920000430132373 -1.151920041965726 0  -0.5466469145500775 -4.909859556616715 0  -0.5464320647151604 4.918560070512497 0  -4.907713940944614 -0.5486676221017026 0  -4.907737913099185 0.5472258772270834 0  4.907030340643475 -0.548985625525924 0  4.918715407389352 0.5457480325881368 0  0.5424272866248613 -4.896712137333677 0  0.5511596976258401 4.915376601157449 0  -4.911830545543594 -3.048241293671744 0  4.918405889721949 3.046260832572183 0  4.911337841602799 -3.048216331047826 0  -4.912678809146388 3.045333435607042 0  3.055259154040093 -4.917327565306284 0  -3.048586747675607 -4.911259157788524 0  3.052155024766079 4.913338118265569 0  -3.048032825822226 4.912149611939268 0  -4.906812352799968 -0.04990358245645839 0  0.04511849991290535 -4.911808292792999 0  0.04956558830578623 4.918849185206503 0  4.913883997453223 -0.0512862458879079 0  3.545586469463516 -4.918988342932569 0  -3.5488641044
[...]
<PointData  Vectors="f_5922"> 
<DataArray  type="Float64"  Name="f_5922"  NumberOfComponents="3" format="ascii">1.3769321469187431e-41 -2.0527227813067102e-41 0.0000000000000000e+00  -7.1498392185820200e-41 5.7606500377565669e-41 0.0000000000000000e+00  -7.0107359313627966e-41 -6.2396029684960416e-41 0.0000000000000000e+00  4.0405190225981303e-41 -1.3847465911902523e-41 0.0000000000000000e+00  1.1337751917972607e+01 9.0921927612804283e-03 0.0000000000000000e+00  3.8651805261507059e-42 5.3247912176655416e-41 0.0000000000000000e+00  3.1767788438130965e-40 1.9108670792704360e-40 0.0000000000000000e+00  -8.3546441811315087e-40 -3.9497081001223562e-40 0.0000000000000000e+00  2.9773730325334107e-39 3.0569925870247500e-39 0.0000000000000000e+00  -1.2808941269221900e-38 -1.0341126721728825e-38 0.0000000000000000e+00  2.9304937713631039e-38 3.9466872972476479e-38 0.0000000000000000e+00  -1.4445309845037673e-37 -1.4793328943872290e-37 0.0000000000000000e+00  3.9514819908146234e-37 3.8415335925065329e-37 0.0000000000000000e+00  -6.9590492457814892e-37 -4.4901323775631391e-37 0.0000000000000000e+00  4.3297812530703425e-36 -7.3383336535421376e-37 0.0000000000000000e+00  -5.3149719186775151e-36 2.3903714896264224e-35 0.0000000000000000e+00  -6.3608176441404777e-35 -1.5023942885830808e-34 0.0000000000000000e+00  6.3625247089869823e-34 4.5283415746785765e-34 0.0000000000000000e+00  2.4207664142206355e-34 1.0423265352322892e-33 0.0000000000000000e+00  -1.3430356721501711e-32 -1.6138873150281276e-32 0.0000000000000000e+00  4.9592178035439901e-32 6.4218881543139423e-32 0.0000000000000000e+00  -9.5141604349066569e-32 -1.3254952682515244e-31 0.0000000000000000e+00  -1.3619256965942536e-31 -1.5285544775603012e-31 0.0000000000000000e+00  8.0536063778775878e-31 9.4114189034021877e-31 0.0000000000000000e+00  -4.2025956774584129e-32 1.3357365952161994e-31 0.0000000000000000e+00  -1.0916560436034927e-30 -1.3225178066822031e-30 0.0000000000000000e+00  -1.4052150144683330e-31 -4.5684068134271219e-31 0.0000000000000000e+00  2.5928276823444645e-30 1.0915489918569872e-29 0.0000000000000000e+00  -5.2188305475780507e-30 -1.9798871417932525e-29 0.0000000000000000e+00  -3.2480737866853396e-30 -1.0356653754978368e-29 0.0000000000000000e+00  2.5842808369931807e-29 5.8871283588192553e-29 0.0000000000000000e+00  1.3098082847382571e-29 6.0420720748705768e-29 0.0000000000000000e+00  7.5406594375225915e-30 7.0745340251032130e-29 0.0000000000000000e+00  -1.3248216549424728e-29 -4.1438953626557250e-29 0.0000000000000000e+00  -6.4034547072207561e-30 2.1257571915199694e-28 0.0000000000000000e+00  -5.2851228749857219e-29 -5.0421175026112406e-28 0.0000000000000000e+00  -2.3846858617415410e-29 -3.6970364197606549e-28 0.0000000000000000e+00  -2.8186243774105656e-29 -1.3584639586271516e-28 0.0000000000000000e+00  -4.6592407954588831e-29 5.6796969437581214e-28 0.0000000000000000e+00  5.3620903441329722e-30 8.0983147061533189e-28 0.0000000000000000e+00  2.3833810627131897e-28 6.8489148965850871e-28 0.0000000000000000e+00  3.1763687185185293e-28 3.0005936375503061e-29 0.0000000000000000e+00  2.6050479096337537e-28 1.0379750689801779e-28 0.0000000000000000e+00  1.9409773145364392e-28 3.8905953096503735e-28 0.0000000000000000e+00  1.1442952951996017e-28 -6.9959318727146363e-29 0.0000000000000000e+00  -5.5918996822765881e-28 -3.4780516756082572e-28 0.0000000000000000e+00  -3.1221599421583037e-28 1.4492067702823113e-28 0.0000000000000000e+00  2.6072163364008532e-28 3.2254216329398422e-29 0.0000000000000000e+00  -1.1939439407345710e-28 1.4804737316364109e-27 0.0000000000000000e+00  -2.4939663303746848e-28 -6.8819068674244904e-29 0.0000000000000000e+00  -4.8609199848375795e-28 -1.5192944071584176e-27 0.0000000000000000e+00  -5.5960775274162025e-28 -7.4059776478961525e-28 0.0000000000000000e+00  -3.1434979329572876e-28 -1.4634183794958219e-27 0.0000000000000000e+00  1.1476730634899806e-28 -4.0832192642005924e-27 0.0000000000000000e+00  2.0034556081508600e-28 -4.6826943409171881e-27 0.0000000000000000e+00  -6.4654956059210994e-29 -7.1203274704667584e-28 0.0000000000000000e+00  -8.8197708550394884e-29 -2.4986902731829775e-27 0.0000000000000000e+00  -1.3242955150391104e-28 -9.8452712004493255e-28 0.0000000000000000e+00  -6.3280045369421343e-29 -1.6934125417732866e-27 0.0000000000000000e+00  -1.5572501703955434e-28 7.9969902879790803e-28 0.0000000000000000e+00  2.1102223954574200e-29 -2.4997128963779989e-27 0.0000000000000000e+00  1.1453712756479320e-28 -2.4340141303843961e-27 0.0000000000000000e+00  -7.9309643365983696e-29 4.7196956960897500e-28 0.0000000000000000e+00  -2.8811486862510977e-28 3.4813641202750600e-27 0.0000000000000000e+00  -1.4709519305738033e-28 1.4531015730564710e-27 0.0000000000000000e+00  -9.5038854285045367e-29 8.6482226573057576e-28 0.0000000000000000e+00  -2.4126966744860360e-28 2.1745015694217229e-27 0.0000000000000000e+00  -1.4000209738793849e-28 1.1350622581654619e-27 0.0000000000000000e+00  1.5515439325066450e-28 -1.3336330415873379e-27 0.0000000000000000e+00  9.3009778262232540e-29 -6.7163164736546902e-28 0.0000000000000000e+00  1.8108471339821860e-29 -4.5456791638423580e-29 0.0000000000000000e+00  9.6077659807577923e-29 -3.7667638052203437e-28 0.0000000000000000e+00  5.7954760674957709e-29 -3.1681367182198224e-28 0.0000000000000000e+00  -4.8174131731786488e-29 2.8835107786155036e-28 0.0000000000000000e+00  -2.5542597621727263e-30 1.0852597682874560e-28 0.0000000000000000e+00  -1.0444178547196078e-29 3.7424794001046488e-29 0.0000000000000000e+00  -6.2092153019021071e-31 -5.5769020408406653e-29 0.0000000000000000e+00  1.3363153157867667e-30 2.1728709523748173e-29 0.0000000000000000e+00  -2.4381605167902549e-30 2.7798934118981492e-29 0.0000000000000000e+00  4.9036571135669637e-30 -1.2349560385492625e-29 0.0000000000000000e+00  1.0634639161423435e-29 -3.2791273549758888e-29 0.0000000000000000e+00  -1.5366009655118606e-30 4.5125089141979931e-30 0.0000000000000000e+00  -8.7741156155553439e-31 2.6698978398024820e-30 0.0000000000000000e+00  3.4062533116308958e-30 -6.7758020792715267e-30 0.0000000000000000e+00  4.2458097940585879e-31 -5.5310744592695098e-31 0.0000000000000000e+00  -4.5332469368492265e-31 7.3729320879203124e-31 0.0000000000000000e+00  2.4381761726365414e-31 -3.7977381008858783e-31 0.0000000000000000e+00  -1.4052674250703163e-32 2.4802106602531893e-32 0.0000000000000000e+00  2.2676782067296591e-33 -3.9190749956301374e-33 0.0000000000000000e+00  -1.4600689073525678e-33 2.3936675222135984e-33 0.0000000000000000e+00  -1.2241697638914979e-33 1.0225144351786135e-33 0.0000000000000000e+00  -4.0376982244303929e-34 5.2774598678385037e-34 0.0000000000000000e+00  2.3369559346173269e-34 -2.7245039420008258e-34 0.0000000000000000e+00  -4.3659344564623999e-35 5.3128550923157905e-35 0.0000000000000000e+00  1.8079719123629056e-35 -1.8929371935170920e-35 0.0000000000000000e+00  -1.8258382732277707e-36 1.9338159293715136e-36 0.0000000000000000e+00  -6.9565790722796752e-37 6.3443490162101427e-37 0.0000000000000000e+00  1.5957054891739721e-37 -1.6566658394112236e-37 0.0000000000000000e+00  -8.5231370236416141e-38 7.8055950804297173e-38 0.0000000000000000e+00  2.8029521704152142e-38 -2.3898974090488235e-38 0.0000000000000000e+00  -3.4240844002443508e-39 2.3603980143242685e-39 0.0000000000000000e+00  9.7278146579447932e-40 -8.1417412720151958e-40 0.0000000000000000e+00  -2.6626590725880176e-40 2.1754418722615359e-40 0.0000000000000000e+00  1.1774371171121714e-40 -8.9237409906462309e-41 0.0000000000000000e+00  2.0539280567686649e-41 -2.2661022885358160e-41 0.0000000000000000e+00  2.0549809814136954e-40 -1.6394693414592357e-40 0.0000000000000000e+00  -4.3503880422052525e-40 3.2404264371630212e-40 0.0000000000000000e+00  9.5227098781544890e-41 -2.8125567281472217e-40 0.0000000000000000e+00  2.9402867719716375e-39 -1.3913757465259336e-39 0.0000000000000000e+00  -1.0807637368749402e-38 6.4600149215596302e-39 0.0000000000000000e+00  1.6687615094815112e-38 -1.2337332175152973e-38 0.0000000000000000e+00  1.8750463086400261e-38 -2.1577150356022668e-39 0.0000000000000000e+00  -1.7760722197188777e-37 8.8292024462673127e-38 0.0000000000000000e+00  4.5919325637376694e-37 -2.6909761971202325e-37 0.0000000000000000e+00  -2.1841030612225131e-37 2.3199715506898514e-37 0.0000000000000000e+00  -2.2923420498960024e-36 1.0062306443483071e-36 0.0000000000000000e+00  7.7699938990058966e-36 -4.1596383594218301e-36 0.0000000000000000e+00  -8.5012822573138671e-36 5.7400083968617161e-36 0.0000000000000000e+00  -2.5858060575429152e-35 1.0693577912156677e-35 0.0000000000000000e+00  1.1875131830498035e-34 -6.1783425913060637e-35 0.0000000000000000e+00  -1.3780239106266564e-34 8.4721902692561947e-35 0.0000000000000000e+00  -3.4727565777700342e-34 1.5537003938542773e-34 0.0000000000000000e+00  1.5985621426338013e-33 -8.4086600230468369e-34 0.0000000000000000e+00  -1.3943966652658360e-33 8.3936987487059726e-34 0.0000000000000000e+00  -5.9472870958834946e-33 2.9898144120312228e-33 0.0000000000000000e+00  1.8655905294909309e-32 -1.0010020643927865e-32 0.0000000000000000e+00  -1.0498780162242520e-33 8.4617331381104435e-34 0.0000000000000000e+00  -9.6327617186422700e-32 5.1741714143813188e-32 0.0000000000000000e+00  1.5217781231306707e-31 -7.9412042349809213e-32 0.0000000000000000e+00  2.7272125853579134e-31 -1.5699429885516145e-31 0.0000000000000000e+00  -1.0304184340233019e-30 5.4104888874541963e-31 0.0000000000000000e+00  -1.5301180811519307e-31 1.9677957043728685e-31 0.0000000000000000e+00  5.0333214003549000e-30 -2.6993869581515908e-30 0.0000000000000000e+00  -3.6046717949627992e-30 1.0840561479484105e-30 0.0000000000000000e+00  -2.0398549427670542e-29 1.1272987797848564e-29 0.0000000000000000e+00  2.8110536199371584e-29 -9.6059228619408367e-30 0.0000000000000000e+00  7.6448200662077414e-29 -4.3549269903338714e-29 0.0000000000000000e+00  -1.4826899521806859e-28 4.7247578481661103e-29 0.0000000000000000e+00  -3.0582631962390925e-28 1.6894313343717775e-28 0.0000000000000000e+00  6.5393169988844875e-28 -1.7572402750162577e-28 0.0000000000000000e+00  1.3165711722733236e-27 -6.5676664407359615e-28 0.0000000000000000e+00  -2.5803139527207235e-27 5.6452117728507397e-28 0.0000000000000000e+00  -6.5109144344157659e-27 2.6182008099267296e-27 0.0000000000000000e+00  7.2128527334549204e-27 -5.4460342956286275e-28 0.0000000000000000e+00  2.6633265126070092e-26 -7.8804175906483286e-27 0.0000000000000000e+00  2.9538559256556133e-27 -6.5385144864060319e-27 0.0000000000000000e+00  -8.0072048809964760e-26 1.0919386951295666e-26 0.0000000000000000e+00  -8.0042988938462226e-26 1.2488013906872365e-26 0.0000000000000000e+00  2.0720639802053590e-25 -4.8916060333880348e-26 0.0000000000000000e+00  7.9775355497578748e-25 -1.7388218869654289e-25 0.0000000000000000e+00  1.2309795421271182e-24 -2.5866120020088790e-25 0.0000000000000000e+00  1.2133002738394394e-24 -2.3777054787726117e-25 0.0000000000000000e+00  8.6848317835590601e-25 -1.2341509979068023e-25 0.0000000000000000e+00  6.9642611563292032e-25 5.9293415683005716e-27 0.0000000000000000e+00  8.4480051322356622e-25 1.0564656644329230e-25 0.0000000000000000e+00  9.7839304199317873e-25 1.4682205484961971e-25 0.0000000000000000e+00  7.8222554385590953e-25 1.1716133418921318e-25 0.0000000000000000e+00  3.2510109921572995e-25 3.9687917398824710e-26 0.0000000000000000e+00  -2.3876501547879843e-26 -2.0272866203177175e-26 0.0000000000000000e+00  -1.0622553307715125e-25 -2.7413366566554422e-26 0.0000000000000000e+00  -2.6036307187279664e-26 -1.7093949334056593e-27 0.0000000000000000e+00  3.1484262725076378e-26 1.3482562016747560e-26 0.0000000000000000e+00  2.3139764097568204e-26 8.5797606631056482e-27 0.0000000000000000e+00  3.4444591694155570e-28 2.8193442303149587e-28 0.0000000000000000e+00  -4.5589050191068922e-27 -1.4062918532800370e-27 0.0000000000000000e+00  -5.0922749270260086e-28 -4.4443017787347143e-29 0.0000000000000000e+00  1.0355565942262092e-27 3.6132353173078586e-28 0.0000000000000000e+00  9.2957498087600873e-29 -2.9997387038605322e-29 0.0000000000000000e+00  -2.6718320014190260e-28 -1.1617491070299663e-28 0.0000000000000000e+00  -8.8194026170336743e-30 1.2870111728317426e-29 0.0000000000000000e+00  6.6141506193647580e-29 3.2209277237875618e-29 0.0000000000000000e+00  -4.1599541868043660e-30 -5.4231730097148508e-30 0.0000000000000000e+00  -1.4830989135288179e-29 -7.4909087071336704e-30 0.0000000000000000e+00  2.5309573293550442e-30 1.8807260060939516e-30 0.0000000000000000e+00  2.7368764261506569e-30 1.3745658345694245e-30 0.0000000000000000e+00  -1.0084234365916845e-30 -6.2260265067722589e-31 0.0000000000000000e+00  -3.8650538936109190e-31 -1.8473607381564555e-31 0.0000000000000000e+00  2.8884915319771162e-31 1.6664247996952460e-31 0.0000000000000000e+00  7.6997587779048306e-33 -1.7446505338995679e-33 0.0000000000000000e+00  -6.0381247981753389e-32 -3.3457692429708215e-32 0.0000000000000000e+00  1.4573317671251779e-32 9.1300738560960612e-33 0.0000000000000000e+00  8.1870894309835947e-33 4.2688278295628959e-33 0.0000000000000000e+00  -5.5480171425916103e-33 -3.1807906913102021e-33 0.0000000000000000e+00  2.3845434680776598e-34 1.9773355646114439e-34 0.0000000000000000e+00  9.2289847823067505e-34 5.1325161714380630e-34 0.0000000000000000e+00  -3.9493311153421692e-34 -2.2988361512937004e-34 0.0000000000000000e+00  -2.0669810329970669e-35 -9.3003449871793444e-36 0.0000000000000000e+00  8.0899134525260546e-35 4.6512761343304864e-35 0.0000000000000000e+00  -2.9606803690495209e-35 -1.7349179869651037e-35 0.0000000000000000e+00  -1.3669749325916286e-36 -8.3729242842641953e-37 0.0000000000000000e+00  5.5392975514745927e-36 3.3244771034443952e-36 0.0000000000000000e+00  -2.1995596266632955e-36 -1.3144859024444967e-36 0.0000000000000000e+00  7.5437583823655430e-38 2.8915736551255254e-38 0.0000000000000000e+00  3.1857414201351110e-37 2.0465784462363630e-37 0.0000000000000000e+00  -1.5975481951851214e-37 -1.0053803760382546e-37 0.0000000000000000e+00  2.6403357436818273e-38 1.5175452638160169e-38 0.0000000000000000e+00  1.1911614570373822e-38 8.7656554764424323e-39 0.0000000000000000e+00  -1.0061469524299644e-38 -6.9310180664824908e-39 0.0000000000000000e+00  3.1812001250334707e-39 2.0910486644772847e-39 0.0000000000000000e+00  -9.6719026004129703e-41 1.4744394837952267e-41 0.0000000000000000e+00  -4.1888494544777024e-40 -3.3277988210085071e-40 0.0000000000000000e+00  2.1816407239873503e-40 1.6395159339060767e-40 0.0000000000000000e+00  -6.5599206473205270e-41 -4.5747391175903709e-41 0.0000000000000000e+00  1.4883309814346049e-40 1.2876206082374644e-40 0.0000000000000000e+00  5.7157468974876949e-41 2.5647249616607232e-41 0.0000000000000000e+00  -4.0016397555791274e-41 -6.2020589798542126e-43 0.0000000000000000e+00  1.6694033095923312e-39 7.9003653221126090e-40 0.0000000000000000e+00  1.4022633177703558e-38 1.7607003500215905e-38 0.0000000000000000e+00  -7.5215480013333177e-38 -9.1177008786807387e-38 0.0000000000000000e+00  6.0517576269857626e-38 1.0330358941486920e-37 0.0000000000000000e+00  -2.0342008567833157e-37 -4.4832692758259341e-37 0.0000000000000000e+00  -2.1802099449513062e-36 -1.9508587768829012e-36 0.0000000000000000e+00  1.5044417416504339e-35 1.6171288438688109e-35 0.0000000000000000e+00  -1.6464931257425774e-35 -2.4150608325268229e-35 0.0000000000000000e+00  6.5096888839526327e-36 5.3137147623445407e-35 0.0000000000000000e+00  1.1497957930879524e-34 1.2416438574880171e-35 0.0000000000000000e+00  -1.0385715592670714e-33 -7.8380382343535293e-34 0.0000000000000000e+00  1.8029203228378551e-34 -7.3697503711644692e-34 0.0000000000000000e+00  1.4316842622019044e-33 2.2296693780811782e-33 0.0000000000000000e+00  -4.5119831560836833e-33 1.1844645059930260e-34 0.0000000000000000e+00  -3.9488708597362836e-32 -6.5121347048963343e-32 0.0000000000000000e+00  1.3388008775387301e-31 2.3979588318281388e-31 0.0000000000000000e+00  -2.5737220714357563e-31 -4.1244217497870974e-31 0.0000000000000000e+00  -3.7398580039520483e-31 -7.5436108896824097e-31 0.0000000000000000e+00  2.2216087669820708e-30 4.1747316025696680e-30 0.0000000000000000e+00  1.1862232395110627e-30 1.0764599042189346e-30 0.0000000000000000e+00  -6.1773181103586435e-30 -9.2357765144328391e-30 0.0000000000000000e+00  -9.1917553535137435e-31 -4.4910407295225624e-30 0.0000000000000000e+00  -1.3548407372539479e-29 -9.5105681727366541e-29 0.0000000000000000e+00  1.7832217318880069e-29 9.9809293940470719e-29 0.0000000000000000e+00  8.5788643790544098e-29 4.5699382700207050e-28 0.0000000000000000e+00  2.5369302102458562e-29 1.3169940765555429e-28 0.0000000000000000e+00  -5.0539380520464285e-29 -2.3046981804386689e-28 0.0000000000000000e+00  -1.4307148513713860e-28 -8.4651696339695287e-28 0.0000000000000000e+00  1.1216137122834908e-28 6.5917827557959495e-28 0.0000000000000000e+00  1.8146851111841149e-28 1.1315793293021032e-27 0.0000000000000000e+00  1.5891371865798183e-28 9.5787036966893485e-28 0.0000000000000000e+00  8.9611760826272924e-29 4.6222042381966160e-28 0.0000000000000000e+00  -2.8289466545363905e-28 -2.0392969984712206e-27 0.0000000000000000e+00  -5.5243835755468623e-29 -6.4450594512101426e-28 0.0000000000000000e+00  -2.5699754233308530e-29 -3.4145129176652005e-28 0.0000000000000000e+00  -1.7383821390696044e-28 -1.3461607691891633e-27 0.0000000000000000e+00  -1.6627392863392189e-28 -1.2690424955132069e-27 0.0000000000000000e+00  -2.6244962799248585e-28 -1.6157699637202810e-27 0.0000000000000000e+00  -1.1931477999602360e-28 -3.2512644075026853e-28 0.0000000000000000e+00  1.1584066308581426e-28 1.5316234666362616e-27 0.0000000000000000e+00  -3.0790324844567793e-29 8.7361661334693636e-29 0.0000000000000000e+00  -1.3834292602621790e-28 -1.7764435686831883e-27 0.0000000000000000e+00  -2.1219837031200913e-29 7.1607005460087346e-28 0.0000000000000000e+00  -2.2526022317997636e-29 6.4601373097864593e-28 0.0000000000000000e+00  -5.5203073904766493e-29 -9.6816538377316897e-28 0.0000000000000000e+00  -4.4091535335569698e-29 -2.3372571007467105e-28 0.0000000000000000e+00  3.4673262052545696e-30 -8.0336589723358479e-28 0.0000000000000000e+00  -1.5612993902731850e-28 9.3172103734837836e-28 0.0000000000000000e+00  -1.4525787725932224e-28 9.1757886746458558e-28 0.0000000000000000e+00  3.0499984569841823e-29 -7.2455781690135451e-28 0.0000000000000000e+00  -3.6787999588199655e-29 -6.6059751204101441e-29 0.0000000000000000e+00  1.0143583954029283e-28 -7.9344283827501704e-28 0.0000000000000000e+00  -1.8499010730166863e-28 7.0008969252546554e-28 0.0000000000000000e+00  -1.1505505601520880e-28 3.6918480478729740e-28 0.0000000000000000e+00  -5.8765454306260530e-29 1.8768840150920803e-29 0.0000000000000000e+00  -6.5637543056279551e-29 1.1431612886190166e-28 0.0000000000000000e+00  1.2698746688640232e-28 -7.5699982462193012e-28 0.0000000000000000e+00  8.2621013086804153e-29 -6.7387834739816189e-28 0.0000000000000000e+00  1.9008489919893479e-28 -1.1059022438200027e-27 0.0000000000000000e+00  7.6782875201902153e-29 -4.1605269153874778e-28 0.0000000000000000e+00  7.3235063130363180e-30 2.6436646927909903e-29 0.0000000000000000e+00  -9.1629357383796431e-29 5.0847482462521051e-28 0.0000000000000000e+00  -1.1482821849455696e-28 6.3224495620664883e-28 0.0000000000000000e+00  -4.1378313506720566e-29 2.1953956054518861e-28 0.0000000000000000e+00  9.7710427826071747e-30 -3.5422118447304132e-29 0.0000000000000000e+00  2.1688001669055213e-29 -1.2974508319925378e-28 0.0000000000000000e+00  7.3057350007331864e-29 -4.3171157589626830e-28 0.0000000000000000e+00  2.2882379185144653e-29 -1.3232392393593472e-28 0.0000000000000000e+00  -1.9848260871597094e-29 1.0919923231668450e-28 0.0000000000000000e+00  6.3539295972887211e-30 -2.9537429565625782e-29 0.0000000000000000e+00  -1.5092059866963510e-30 6.4826977231155218e-30 0.0000000000000000e+00  -6.5958195701622212e-31 4.0854374558274718e-30 0.0000000000000000e+00  1.7378378280578419e-30 -4.8180350874740847e-30 0.0000000000000000e+00  2.6666206069482898e-30 -6.9428921316074426e-30 0.0000000000000000e+00  5.