<?xml version="1.0"?>
<VTKFile type="UnstructuredGrid"  version="0.1"  >
<UnstructuredGrid>
<Piece  NumberOfPoints="11902" NumberOfCells="23402">
<Points>
<DataArray  type="Float64"  NumberOfComponents="3"  format="ascii">-5 -5 0  5 -5 0  5 5 0  -5 5 0  1.142669574321763 0.0009573965225310653 0  -4.9 -5 0  -4.8 -5 0  -4.7 -5 0  -4.6 -5 0  -4.5 -5 0  -4.4 -5 0  -4.3 -5 0  -4.2 -5 0  -4.1 -5 0  -4 -5 0  -3.9 -5 0  -3.8 -5 0  -3.7 -5 0  -3.6 -5 0  -3.5 -5 0  -3.4 -5 0  -3.3 -5 0  -3.2 -5 0  -3.1 -5 0  -3 -5 0  -2.9 -5 0  -2.8 -5 0  -2.7 -5 0  -2.6 -5 0  -2.5 -5 0  -2.4 -5 0  -2.3 -5 0  -2.2 -5 0  -2.1 -5 0  -2 -5 0  -1.9 -5 0  -1.8 -5 0  -1.7 -5 0  -1.6 -5 0  -1.5 -5 0  -1.4 -5 0  -1.3 -5 0  -1.2 -5 0  -1.1 -5 0  -1 -5 0  -0.9000000000000004 -5 0  -0.7999999999999998 -5 0  -0.7000000000000002 -5 0  -0.5999999999999996 -5 0  -0.5 -5 0  -0.4000000000000004 -5 0  -0.2999999999999998 -5 0  -0.2000000000000002 -5 0  -0.09999999999999964 -5 0  0 -5 0  0.09999999999999964 -5 0  0.2000000000000002 -5 0  0.2999999999999998 -5 0  0.4000000000000004 -5 0  0.5 -5 0  0.5999999999999996 -5 0  0.7000000000000002 -5 0  0.7999999999999998 -5 0  0.9000000000000004 -5 0  1 -5 0  1.1 -5 0  1.2 -5 0  1.3 -5 0  1.4 -5 0  1.5 -5 0  1.6 -5 0  1.7 -5 0  1.8 -5 0  1.9 -5 0  2 -5 0  2.1 -5 0  2.2 -5 0  2.3 -5 0  2.4 -5 0  2.5 -5 0  2.6 -5 0  2.7 -5 0  2.8 -5 0  2.9 -5 0  3 -5 0  3.1 -5 0  3.199999999999999 -5 0  3.300000000000001 -5 0  3.4 -5 0  3.5 -5 0  3.6 -5 0  3.699999999999999 -5 0  3.800000000000001 -5 0  3.9 -5 0  4 -5 0  4.1 -5 0  4.199999999999999 -5 0  4.300000000000001 -5 0  4.4 -5 0  4.5 -5 0  4.6 -5 0  4.699999999999999 -5 0  4.800000000000001 -5 0  4.9 -5 0  5 -4.9 0  5 -4.8 0  5 -4.7 0  5 -4.6 0  5 -4.5 0  5 -4.4 0  5 -4.3 0  5 -4.2 0  5 -4.1 0  5 -4 0  5 -3.9 0  5 -3.8 0  5 -3.7 0  5 -3.6 0  5 -3.5 0  5 -3.4 0  5 -3.3 0  5 -3.2 0  5 -3.1 0  5 -3 0  5 -2.9 0  5 -2.8 0  5 -2.7 0  5 -2.6 0  5 -2.5 0  5 -2.4 0  5 -2.3 0  5 -2.2 0  5 -2.1 0  5 -2 0  5 -1.9 0  5 -1.8 0  5 -1.7 0  5 -1.6 0  5 -1.5 0  5 -1.4 0  5 -1.3 0  5 -1.2 0  5 -1.1 0  5 -1 0  5 -0.9000000000000004 0  5 -0.7999999999999998 0  5 -0.7000000000000002 0  5 -0.5999999999999996 0  5 -0.5 0  5 -0.4000000000000004 0  5 -0.2999999999999998 0  5 -0.2000000000000002 0  5 -0.09999999999999964 0  5 0 0  5 0.09999999999999964 0  5 0.2000000000000002 0  5 0.2999999999999998 0  5 0.4000000000000004 0  5 0.5 0  5 0.5999999999999996 0  5 0.7000000000000002 0  5 0.7999999999999998 0  5 0.9000000000000004 0  5 1 0  5 1.1 0  5 1.2 0  5 1.3 0  5 1.4 0  5 1.5 0  5 1.6 0  5 1.7 0  5 1.8 0  5 1.9 0  5 2 0  5 2.1 0  5 2.2 0  5 2.3 0  5 2.4 0  5 2.5 0  5 2.6 0  5 2.7 0  5 2.8 0  5 2.9 0  5 3 0  5 3.1 0  5 3.199999999999999 0  5 3.300000000000001 0  5 3.4 0  5 3.5 0  5 3.6 0  5 3.699999999999999 0  5 3.800000000000001 0  5 3.9 0  5 4 0  5 4.1 0  5 4.199999999999999 0  5 4.300000000000001 0  5 4.4 0  5 4.5 0  5 4.6 0  5 4.699999999999999 0  5 4.800000000000001 0  5 4.9 0  4.9 5 0  4.8 5 0  4.7 5 0  4.6 5 0  4.5 5 0  4.4 5 0  4.3 5 0  4.2 5 0  4.1 5 0  4 5 0  3.9 5 0  3.8 5 0  3.7 5 0  3.6 5 0  3.5 5 0  3.4 5 0  3.3 5 0  3.2 5 0  3.1 5 0  3 5 0  2.9 5 0  2.8 5 0  2.7 5 0  2.6 5 0  2.5 5 0  2.4 5 0  2.3 5 0  2.2 5 0  2.1 5 0  2 5 0  1.9 5 0  1.8 5 0  1.7 5 0  1.6 5 0  1.5 5 0  1.4 5 0  1.3 5 0  1.2 5 0  1.1 5 0  1 5 0  0.9000000000000004 5 0  0.7999999999999998 5 0  0.7000000000000002 5 0  0.5999999999999996 5 0  0.5 5 0  0.4000000000000004 5 0  0.2999999999999998 5 0  0.2000000000000002 5 0  0.09999999999999964 5 0  0 5 0  -0.09999999999999964 5 0  -0.2000000000000002 5 0  -0.2999999999999998 5 0  -0.4000000000000004 5 0  -0.5 5 0  -0.5999999999999996 5 0  -0.7000000000000002 5 0  -0.7999999999999998 5 0  -0.9000000000000004 5 0  -1 5 0  -1.1 5 0  -1.2 5 0  -1.3 5 0  -1.4 5 0  -1.5 5 0  -1.6 5 0  -1.7 5 0  -1.8 5 0  -1.9 5 0  -2 5 0  -2.1 5 0  -2.2 5 0  -2.3 5 0  -2.4 5 0  -2.5 5 0  -2.6 5 0  -2.7 5 0  -2.8 5 0  -2.9 5 0  -3 5 0  -3.1 5 0  -3.199999999999999 5 0  -3.300000000000001 5 0  -3.4 5 0  -3.5 5 0  -3.6 5 0  -3.699999999999999 5 0  -3.800000000000001 5 0  -3.9 5 0  -4 5 0  -4.1 5 0  -4.199999999999999 5 0  -4.300000000000001 5 0  -4.4 5 0  -4.5 5 0  -4.6 5 0  -4.699999999999999 5 0  -4.800000000000001 5 0  -4.9 5 0  -5 4.9 0  -5 4.8 0  -5 4.7 0  -5 4.6 0  -5 4.5 0  -5 4.4 0  -5 4.3 0  -5 4.2 0  -5 4.1 0  -5 4 0  -5 3.9 0  -5 3.8 0  -5 3.7 0  -5 3.6 0  -5 3.5 0  -5 3.4 0  -5 3.3 0  -5 3.2 0  -5 3.1 0  -5 3 0  -5 2.9 0  -5 2.8 0  -5 2.7 0  -5 2.6 0  -5 2.5 0  -5 2.4 0  -5 2.3 0  -5 2.2 0  -5 2.1 0  -5 2 0  -5 1.9 0  -5 1.8 0  -5 1.7 0  -5 1.6 0  -5 1.5 0  -5 1.4 0  -5 1.3 0  -5 1.2 0  -5 1.1 0  -5 1 0  -5 0.9000000000000004 0  -5 0.7999999999999998 0  -5 0.7000000000000002 0  -5 0.5999999999999996 0  -5 0.5 0  -5 0.4000000000000004 0  -5 0.2999999999999998 0  -5 0.2000000000000002 0  -5 0.09999999999999964 0  -5 0 0  -5 -0.09999999999999964 0  -5 -0.2000000000000002 0  -5 -0.2999999999999998 0  -5 -0.4000000000000004 0  -5 -0.5 0  -5 -0.5999999999999996 0  -5 -0.7000000000000002 0  -5 -0.7999999999999998 0  -5 -0.9000000000000004 0  -5 -1 0  -5 -1.1 0  -5 -1.2 0  -5 -1.3 0  -5 -1.4 0  -5 -1.5 0  -5 -1.6 0  -5 -1.7 0  -5 -1.8 0  -5 -1.9 0  -5 -2 0  -5 -2.1 0  -5 -2.2 0  -5 -2.3 0  -5 -2.4 0  -5 -2.5 0  -5 -2.6 0  -5 -2.7 0  -5 -2.8 0  -5 -2.9 0  -5 -3 0  -5 -3.1 0  -5 -3.199999999999999 0  -5 -3.300000000000001 0  -5 -3.4 0  -5 -3.5 0  -5 -3.6 0  -5 -3.699999999999999 0  -5 -3.800000000000001 0  -5 -3.9 0  -5 -4 0  -5 -4.1 0  -5 -4.199999999999999 0  -5 -4.300000000000001 0  -5 -4.4 0  -5 -4.5 0  -5 -4.6 0  -5 -4.699999999999999 0  -5 -4.800000000000001 0  -5 -4.9 0  1.137135655427785 0.1002071197577191 0  1.119750540477035 0.1992936268924727 0  1.090426912716052 0.2970022909833946 0  1.051938790837881 0.3899418968467028 0  1.002373820198414 0.4808946854001174 0  0.9435045794128698 0.5664712905078215 0  0.874449685290934 0.6462697574218526 0  0.7961331040817159 0.7192318886484742 0  0.7108583733866639 0.7854051672979453 0  0.6183789737906115 0.8442198851393731 0  0.51914566448098 0.8943681497902369 0  0.4149901928068008 0.9357809458072459 0  0.3081426182866803 0.9683595734084064 0  0.1970831122903976 0.9905753290473513 0  0.08555927748374037 1.003722095485895 0  -0.02723517331886121 1.006341661486621 0  -0.139842920752447 0.9980183834719092 0  -0.2517176158634658 0.9808520382925262 0  -0.3610987003355179 0.9540821690646708 0  -0.4664308471042474 0.9173705582877834 0  -0.5668691390074855 0.8720112414435843 0  -0.662159029183623 0.817383572540316 0  -0.750835988591747 0.7549048568049176 0  -0.8324006437466166 0.6850223149488661 0  -0.9062022114820967 0.6073269922232019 0  -0.9704306636130203 0.5242998808902065 0  -1.025737197810535 0.4366441319020781 0  -1.070200447905896 0.3439448708067311 0  -1.103669049059948 0.2485960255314578 0  -1.126387188921196 0.1507980008516377 0  -1.137948402246756 0.05087003377168051 0  -1.137974217950807 -0.04964888451619193 0  -1.126426212946289 -0.1493714384274646 0  -1.104899737093893 -0.2471656841323671 0  -1.070061662320344 -0.3434270633274203 0  -1.026061537584956 -0.4354323249904272 0  -0.9711017631816978 -0.5233288601766074 0  -0.9071031124775396 -0.6060201970877026 0  -0.8333347631512786 -0.6828842301054306 0  -0.7512690662565964 -0.7523249695874061 0  -0.6618473731426125 -0.8139889492739983 0  -0.5672344430285987 -0.8687143680707075 0  -0.4647989702095082 -0.9144814555443963 0  -0.359308591522359 -0.9519573146786441 0  -0.2498047258528457 -0.9793696200681906 0  -0.1385944152170478 -0.9969924864300109 0  -0.02649340076758685 -1.005762125350492 0  0.08604452243827919 -1.002424563391584 0  0.1987221830251986 -0.989028451685001 0  0.3090009877271147 -0.9669187505223493 0  0.4173262253916754 -0.9345128110124632 0  0.5201470746630894 -0.8933830003112387 0  0.6189053600428716 -0.8434955522000185 0  0.7111020745777095 -0.7859845038272119 0  0.7962981234764588 -0.7196792382705026 0  0.8740697594596973 -0.6457416438384759 0  0.9425975988270208 -0.5657439541250948 0  1.002466207075559 -0.480426252483789 0  1.053017376475547 -0.3900472737077562 0  1.091532579488753 -0.2961753885942059 0  1.119866944911189 -0.1986786734296905 0  1.137155235427636 -0.09986679241632095 0  -2.449047100757027 4.919009366218626 0  -2.448964472695133 -4.911468761088969 0  4.911415784336548 2.448593613760116 0  4.919450161799551 -2.449991765691786 0  2.44678069317456 -4.896870641663713 0  2.441194136201169 4.900595951286067 0  -4.911434695626395 -2.448612371940997 0  -4.911434369444902 2.44861614590597 0  -1.749017961237889 4.912292879662154 0  -1.744782841600779 -4.9156827632739 0  4.92185510054908 1.744702408903772 0  4.910562066673887 -1.748556037688136 0  -4.910840469420247 -1.748279559793269 0  -4.911652816132168 1.748016894088581 0  1.746321931171434 4.906244691968031 0  1.747799165608595 -4.894557528247561 0  -1.149226648768806 4.910347385990184 0  -1.130044164473492 -4.918131746701074 0  -4.910909109925639 -1.148481897190321 0  -4.910733111302014 1.148281520163667 0  1.144196240978814 -4.914381215351807 0  1.149231949752347 4.910338653039082 0  4.911063473314684 1.146761698274348 0  4.921684554490659 -1.152479183244235 0  -0.546869578627872 -4.911670210667062 0  -0.5466327588156399 4.920200597886723 0  -4.909924170312228 -0.549016629400559 0  -4.909949229166872 0.547570912831705 0  4.909276997460394 -0.5493409256807636 0  4.920680784657083 0.5460561833115389 0  0.5426711284139918 -4.898792129184528 0  0.5513647710318115 4.917082800546353 0  -4.912542203778603 -3.04885043776137 0  4.919069929600798 3.046830835759363 0  4.912057370530623 -3.048835209460227 0  -4.913386893257958 3.045937550079761 0  3.055720554552356 -4.918024664154427 0  -3.049082832653568 -4.912004458138021 0  3.052640544163299 4.914070808220179 0  -3.048525718463329 4.912889028058001 0  -4.909138031344642 -0.04993848003468453 0  0.0451322277673449 -4.913633214331601 0  0.04958138308765885 4.920532710213402 0  4.916052498170667 -0.05131861843181594 0  3.545951762419098 -4.919475880796869 0  -3.54926129346105
[...]
<PointData  Vectors="f_1450"> 
<DataArray  type="Float64"  Name="f_1450"  NumberOfComponents="3" format="ascii">-1.5345984581952661e-40 -1.5965296377345515e-40 0.0000000000000000e+00  1.9161061165255688e-40 -1.9432403892970456e-40 0.0000000000000000e+00  -2.3718311685339018e-40 -2.3781170645670537e-40 0.0000000000000000e+00  -2.9347240022021297e-40 3.0465087932472034e-40 0.0000000000000000e+00  1.4560601787965050e+01 -4.7833552307824340e-01 0.0000000000000000e+00  3.4558145342803656e-40 3.5589309086187684e-40 0.0000000000000000e+00  7.9417611962230180e-40 8.6986902557142065e-40 0.0000000000000000e+00  -1.7646582519803637e-39 -2.0574372391887199e-39 0.0000000000000000e+00  1.8024149260122591e-38 2.0198356841395853e-38 0.0000000000000000e+00  -5.8036609651872043e-38 -6.3520504633686745e-38 0.0000000000000000e+00  2.2165237008042652e-37 2.4316422903058817e-37 0.0000000000000000e+00  -8.0069156339001617e-37 -8.9952686679381933e-37 0.0000000000000000e+00  4.7424419853602921e-36 5.7655199512903392e-36 0.0000000000000000e+00  -2.9160331000198833e-35 -3.7013616975902232e-35 0.0000000000000000e+00  1.1771943741261226e-34 1.5218276938665385e-34 0.0000000000000000e+00  -2.5107536470793887e-34 -3.3583396155852736e-34 0.0000000000000000e+00  4.9502759946326333e-34 6.8194259141124389e-34 0.0000000000000000e+00  1.7696613615218950e-33 2.4909430033634336e-33 0.0000000000000000e+00  -8.0084702476096384e-33 -1.1458347276887806e-32 0.0000000000000000e+00  2.3276213560722577e-32 3.4255287441680867e-32 0.0000000000000000e+00  -1.3122423497494456e-31 -1.9754441445252089e-31 0.0000000000000000e+00  3.4477091638950037e-31 5.2271324352466367e-31 0.0000000000000000e+00  1.8762403418600680e-31 3.2676835798060855e-31 0.0000000000000000e+00  -1.5920728475093631e-30 -2.6800388234119639e-30 0.0000000000000000e+00  -8.2554294886613980e-31 -1.3278702156766995e-30 0.0000000000000000e+00  -2.1681123076460688e-30 -3.5319522174685839e-30 0.0000000000000000e+00  5.2681766284228461e-30 9.2992662008696688e-30 0.0000000000000000e+00  -1.2843869892174090e-29 -2.2585931575751244e-29 0.0000000000000000e+00  4.3512066156241182e-29 7.9666567062834002e-29 0.0000000000000000e+00  2.5748893319460495e-29 5.0428023659030591e-29 0.0000000000000000e+00  -2.1554336551713525e-28 -4.2812508592533209e-28 0.0000000000000000e+00  -7.2905393980937810e-29 -1.5562604635960628e-28 0.0000000000000000e+00  -1.2360679553743276e-28 -2.7284573864959473e-28 0.0000000000000000e+00  2.1264944254594771e-28 4.6372823651745770e-28 0.0000000000000000e+00  6.3744743739224726e-28 1.4909920559926063e-27 0.0000000000000000e+00  -6.4477795741257513e-29 -1.1444470246322019e-28 0.0000000000000000e+00  1.4081199337333079e-28 4.0706580523048804e-28 0.0000000000000000e+00  -1.0808924910893560e-28 -2.6865261930349628e-28 0.0000000000000000e+00  -4.9189361026887636e-28 -1.4459244715958737e-27 0.0000000000000000e+00  -4.4575569934050065e-28 -1.4475158453157061e-27 0.0000000000000000e+00  -2.6712889370559248e-29 -1.7361968227320537e-28 0.0000000000000000e+00  4.7842285346463245e-28 1.7325786792019436e-27 0.0000000000000000e+00  2.6231094761268868e-28 1.0534597885627116e-27 0.0000000000000000e+00  -4.6876418869438593e-29 -1.9174438088017069e-28 0.0000000000000000e+00  8.9861748646653881e-29 4.3045099543755321e-28 0.0000000000000000e+00  2.5129418694359491e-28 1.1201727441388945e-27 0.0000000000000000e+00  3.5775696266030966e-28 1.8788237263496384e-27 0.0000000000000000e+00  -1.7890108247002654e-28 -1.0757812737799607e-27 0.0000000000000000e+00  7.7747880603712899e-28 6.0409177996359648e-27 0.0000000000000000e+00  -3.2178872713154683e-29 -3.5689393630695665e-29 0.0000000000000000e+00  -4.6104194623820474e-28 -5.2320455472644460e-27 0.0000000000000000e+00  -1.5680620147786119e-28 -3.0710785774430151e-27 0.0000000000000000e+00  -1.9720535572861269e-28 -4.3642839355210272e-27 0.0000000000000000e+00  -3.2843279677522537e-28 -1.0862276276599175e-26 0.0000000000000000e+00  -1.4845111599008084e-28 -1.2449736284338707e-26 0.0000000000000000e+00  1.0374431130550422e-29 -2.1628782097844527e-27 0.0000000000000000e+00  1.5824649068155080e-28 -6.8134732874796916e-27 0.0000000000000000e+00  1.8844044099887095e-28 -2.4823862398120024e-27 0.0000000000000000e+00  4.0248908667827339e-28 -4.4216484915991839e-27 0.0000000000000000e+00  -2.2858472353318853e-28 1.9562206397625332e-27 0.0000000000000000e+00  7.2754366980109848e-28 -5.9532830761893327e-27 0.0000000000000000e+00  8.1611868467554070e-28 -5.3977688079886735e-27 0.0000000000000000e+00  -1.6322155657481578e-28 1.0767205198251867e-27 0.0000000000000000e+00  -1.5638792194876051e-27 7.9514254620268195e-27 0.0000000000000000e+00  -6.9665397485507997e-28 3.1558039237154737e-27 0.0000000000000000e+00  -3.9815616741402173e-28 1.8605748059791368e-27 0.0000000000000000e+00  -1.1501291495149043e-27 4.5483712730144451e-27 0.0000000000000000e+00  -6.7972696138816926e-28 2.4022621217377391e-27 0.0000000000000000e+00  7.8997162070407019e-28 -2.6905161555149082e-27 0.0000000000000000e+00  4.0439259488105963e-28 -1.2657172083560488e-27 0.0000000000000000e+00  8.3939756193333738e-29 -2.7203239636884377e-28 0.0000000000000000e+00  3.3836448074596785e-28 -9.7075806466329266e-28 0.0000000000000000e+00  2.9149755980905372e-28 -7.5858152007060670e-28 0.0000000000000000e+00  -2.4900580556537646e-28 6.3232963518901873e-28 0.0000000000000000e+00  -1.9464085498946662e-28 4.5751401523696206e-28 0.0000000000000000e+00  -1.4196607201823895e-28 3.1770630025378229e-28 0.0000000000000000e+00  1.9526272800266135e-29 -4.8665732667120578e-29 0.0000000000000000e+00  1.0119321825384064e-28 -2.1437508991992881e-28 0.0000000000000000e+00  1.4381028746768178e-28 -2.8269351883246724e-28 0.0000000000000000e+00  -5.5381065914901048e-30 1.4739425757885891e-29 0.0000000000000000e+00  -1.0005474322784628e-28 1.8467881183165510e-28 0.0000000000000000e+00  1.6343606807679586e-29 -3.0447377504739575e-29 0.0000000000000000e+00  5.4898662194505638e-30 -9.1949604777398181e-30 0.0000000000000000e+00  -1.4341915014995387e-29 2.4949057123494465e-29 0.0000000000000000e+00  -1.0758957136067105e-30 1.7185658907332214e-30 0.0000000000000000e+00  1.6169162498457423e-30 -2.6584929001845656e-30 0.0000000000000000e+00  -8.3527057794706070e-31 1.3480507958106747e-30 0.0000000000000000e+00  1.0520514229605386e-31 -1.6772233976569725e-31 0.0000000000000000e+00  -1.2612288176341170e-32 1.9159994583116834e-32 0.0000000000000000e+00  -6.0286376885691849e-34 9.7379396824139735e-34 0.0000000000000000e+00  6.8062062279066216e-33 -9.7756936278145342e-33 0.0000000000000000e+00  3.5638444051236002e-34 -4.3113848016306021e-34 0.0000000000000000e+00  -4.3914466447231595e-34 5.9395386402048950e-34 0.0000000000000000e+00  4.8684707475695313e-35 -6.8596550261320466e-35 0.0000000000000000e+00  -1.9048246737678512e-35 2.4793436315093729e-35 0.0000000000000000e+00  4.5087823403987774e-36 -5.6354926884743869e-36 0.0000000000000000e+00  -1.5601575877303031e-36 1.8826720653723257e-36 0.0000000000000000e+00  5.0289196724425934e-37 -5.8859844000282933e-37 0.0000000000000000e+00  -2.5080314399868859e-37 2.8830436747252526e-37 0.0000000000000000e+00  8.4580185606484158e-38 -9.5949040703062036e-38 0.0000000000000000e+00  -1.7240355651234830e-38 1.9149049910883405e-38 0.0000000000000000e+00  6.9796877312447449e-39 -7.5723007916445624e-39 0.0000000000000000e+00  -4.3107364876259812e-40 4.7572303489001466e-40 0.0000000000000000e+00  -3.2862434116025496e-40 3.3694112881224596e-40 0.0000000000000000e+00  -1.0902976437866944e-41 6.0320978959228138e-42 0.0000000000000000e+00  3.9835330040261410e-40 -3.8723722662703571e-40 0.0000000000000000e+00  -9.1986940232596686e-40 8.6009669228282068e-40 0.0000000000000000e+00  3.4766439168332528e-39 -3.1937759499389049e-39 0.0000000000000000e+00  -2.2230339837993539e-39 2.0187589553440799e-39 0.0000000000000000e+00  -1.5605400992821375e-38 1.3639802606998266e-38 0.0000000000000000e+00  6.1597455011648012e-38 -5.2845447436757103e-38 0.0000000000000000e+00  -8.4526356701215181e-38 7.1355859771234986e-38 0.0000000000000000e+00  -1.4423842280217100e-37 1.1636741362267566e-37 0.0000000000000000e+00  9.4450426478666608e-37 -7.5291367966480187e-37 0.0000000000000000e+00  -1.6613104654283317e-36 1.3061792368743604e-36 0.0000000000000000e+00  -1.3556090447156146e-36 9.8599423024108931e-37 0.0000000000000000e+00  1.3038710344116959e-35 -9.6151754064944099e-36 0.0000000000000000e+00  -2.5383555025219409e-35 1.8403146831659044e-35 0.0000000000000000e+00  -1.7775753163977834e-35 1.1817766291574470e-35 0.0000000000000000e+00  1.8874267730530333e-34 -1.2775402646514995e-34 0.0000000000000000e+00  -3.0454646882306926e-34 2.0454642938071761e-34 0.0000000000000000e+00  -4.0564434642661718e-34 2.5167484119667783e-34 0.0000000000000000e+00  2.5522473552313947e-33 -1.5778101337735994e-33 0.0000000000000000e+00  -2.5456216116106878e-33 1.5729534770472690e-33 0.0000000000000000e+00  -9.1816122424577317e-33 5.2243939115136364e-33 0.0000000000000000e+00  2.9167237199224236e-32 -1.6491474904235268e-32 0.0000000000000000e+00  2.2979305582572947e-33 -4.4072603904082830e-34 0.0000000000000000e+00  -1.5755976750144854e-31 8.1217948733904308e-32 0.0000000000000000e+00  2.0991947614431277e-31 -1.0712810757968545e-31 0.0000000000000000e+00  5.2239051244319441e-31 -2.4280518574446154e-31 0.0000000000000000e+00  -1.5603021658713437e-30 7.2080642786230038e-31 0.0000000000000000e+00  -8.8020927290701887e-31 3.4832132399785240e-31 0.0000000000000000e+00  8.2622704818028884e-30 -3.4527614646284998e-30 0.0000000000000000e+00  -2.5033713234862402e-30 1.1701710613887202e-30 0.0000000000000000e+00  -3.6200214337880596e-29 1.3549928343738055e-29 0.0000000000000000e+00  3.0076071479412651e-29 -1.1390029182527605e-29 0.0000000000000000e+00  1.4635990177856973e-28 -4.8895609993991891e-29 0.0000000000000000e+00  -1.6587122981239732e-28 5.4964464371364595e-29 0.0000000000000000e+00  -6.0532896236811685e-28 1.7837610836349929e-28 0.0000000000000000e+00  6.4156767944707860e-28 -1.9215019710091699e-28 0.0000000000000000e+00  2.5071421477625345e-27 -6.4551244411745985e-28 0.0000000000000000e+00  -1.9097420445077928e-27 4.9163017261659776e-28 0.0000000000000000e+00  -9.6298935568062416e-27 2.0688852631135930e-27 0.0000000000000000e+00  2.5264686008977030e-27 -5.1732819279446294e-28 0.0000000000000000e+00  3.0104517064672420e-26 -5.2841985650561897e-27 0.0000000000000000e+00  1.4549298933456652e-26 -2.1411246318569802e-27 0.0000000000000000e+00  -8.5624888655016840e-26 1.2083406557873951e-26 0.0000000000000000e+00  -1.2974694267782796e-25 1.5571558493200535e-26 0.0000000000000000e+00  1.4523979984941238e-25 -1.5218656556888174e-26 0.0000000000000000e+00  8.4776525717967796e-25 -6.3983733632434387e-26 0.0000000000000000e+00  1.5469145591318717e-24 -8.0606477437826361e-26 0.0000000000000000e+00  1.8854285192144628e-24 -5.8642100911677057e-26 0.0000000000000000e+00  1.8421852888435654e-24 -2.4465875321043920e-26 0.0000000000000000e+00  1.8610852234656116e-24 9.1685624308307385e-29 0.0000000000000000e+00  1.9905173308125267e-24 2.9635603052718571e-26 0.0000000000000000e+00  1.8445867986121908e-24 6.0804728492945239e-26 0.0000000000000000e+00  1.2084307919079889e-24 6.3627211911875717e-26 0.0000000000000000e+00  3.5960870879170295e-25 2.7257442408047599e-26 0.0000000000000000e+00  -1.5993967877276657e-25 -1.3374400715822769e-26 0.0000000000000000e+00  -2.1183418578787480e-25 -2.3292983453267366e-26 0.0000000000000000e+00  -3.7758363416503642e-26 -5.1135163198026514e-27 0.0000000000000000e+00  5.9300194787065887e-26 8.9976475274063006e-27 0.0000000000000000e+00  3.6279883325237204e-26 6.3908076208935472e-27 0.0000000000000000e+00  -5.0425308615313538e-27 -9.3443147251130370e-28 0.0000000000000000e+00  -1.0579519473419485e-26 -2.2920426398472361e-27 0.0000000000000000e+00  -6.9699826637405207e-28 -1.8184004343374936e-28 0.0000000000000000e+00  2.6464953225659417e-27 6.7403302091210129e-28 0.0000000000000000e+00  3.7159745951641830e-28 1.0695826032699981e-28 0.0000000000000000e+00  -6.2865936729762185e-28 -1.8523589379702087e-28 0.0000000000000000e+00  -8.4191563775834961e-29 -2.7885480759787375e-29 0.0000000000000000e+00  1.4601399634303142e-28 4.9554329723943854e-29 0.0000000000000000e+00  6.0432480183416218e-30 2.6039270876743257e-30 0.0000000000000000e+00  -3.2634038264777866e-29 -1.2498604981849385e-29 0.0000000000000000e+00  2.8637177028439386e-30 1.0548323864502998e-30 0.0000000000000000e+00  6.2053137359070289e-30 2.6827201563688009e-30 0.0000000000000000e+00  -1.8338307319785721e-30 -7.8885539666512340e-31 0.0000000000000000e+00  -9.1310483131775218e-31 -4.3855479015393070e-31 0.0000000000000000e+00  5.9134880705626066e-31 2.8504717350476315e-31 0.0000000000000000e+00  3.1824572140765779e-32 1.9999606489231995e-32 0.0000000000000000e+00  -1.2998359152988123e-31 -6.8274326921869684e-32 0.0000000000000000e+00  2.9348568635326977e-32 1.5113896933545874e-32 0.0000000000000000e+00  1.8628744077302760e-32 1.0708329312649352e-32 0.0000000000000000e+00  -1.1937536479967797e-32 -6.8478508772823018e-33 0.0000000000000000e+00  1.7971374111500352e-34 3.3285832330563693e-35 0.0000000000000000e+00  2.1468029560940270e-33 1.3494617666511592e-33 0.0000000000000000e+00  -8.1392935252428828e-34 -5.0994109549711122e-34 0.0000000000000000e+00  -1.1363203348279791e-34 -8.1456725320827023e-35 0.0000000000000000e+00  1.9574808727827909e-34 1.3310003842179713e-34 0.0000000000000000e+00  -5.5108252005788927e-35 -3.7711831288250352e-35 0.0000000000000000e+00  -1.2779101993892172e-35 -9.5204391289688730e-36 0.0000000000000000e+00  1.4485320284638443e-35 1.0681381586290186e-35 0.0000000000000000e+00  -3.7742666024610856e-36 -2.7994993982784880e-36 0.0000000000000000e+00  -8.9007322780764516e-37 -7.1125999239395812e-37 0.0000000000000000e+00  1.0145122066268452e-36 8.0672278117700383e-37 0.0000000000000000e+00  -2.9377332862528315e-37 -2.3683511426251707e-37 0.0000000000000000e+00  -3.5886476446866504e-38 -3.0857108688206984e-38 0.0000000000000000e+00  6.3569088249551674e-38 5.4391223130583559e-38 0.0000000000000000e+00  -2.4240134819925441e-38 -2.1062412799712181e-38 0.0000000000000000e+00  8.9558780790511713e-40 7.4170591346337694e-40 0.0000000000000000e+00  3.3858012515298344e-39 3.0912212996315669e-39 0.0000000000000000e+00  -1.7731316606725492e-39 -1.6427672303883711e-39 0.0000000000000000e+00  3.8399623870982893e-40 3.6102524389958564e-40 0.0000000000000000e+00  1.8205349343627388e-40 1.7819688212701729e-40 0.0000000000000000e+00  3.5385145404885989e-40 3.7198613758768719e-40 0.0000000000000000e+00  -1.0265907538089137e-39 -1.0891972738818502e-39 0.0000000000000000e+00  2.0254733992122539e-39 2.2097933967068257e-39 0.0000000000000000e+00  -1.3731783983571641e-38 -1.4964985477776781e-38 0.0000000000000000e+00  9.8969144191299465e-38 1.0786596646170791e-37 0.0000000000000000e+00  -2.3110638168805022e-37 -2.5442878687386788e-37 0.0000000000000000e+00  2.6983508662452289e-37 3.0953889925606017e-37 0.0000000000000000e+00  -4.1335502103261792e-36 -4.9206827408533452e-36 0.0000000000000000e+00  1.2967347305591911e-35 1.5783841690928756e-35 0.0000000000000000e+00  -5.5933802020589257e-35 -6.9694970420703545e-35 0.0000000000000000e+00  1.2424753532021189e-34 1.6002986558563118e-34 0.0000000000000000e+00  -2.5276018936702791e-34 -3.4404990976598629e-34 0.0000000000000000e+00  1.3281807019480654e-33 1.7923785082688633e-33 0.0000000000000000e+00  -9.8331915314071956e-34 -1.3164545666084099e-33 0.0000000000000000e+00  5.3451192681990998e-33 7.1227324756975562e-33 0.0000000000000000e+00  4.1791066888137020e-32 6.3600278234813321e-32 0.0000000000000000e+00  -1.9599051020764994e-31 -2.9349567115900210e-31 0.0000000000000000e+00  -5.4625368454134523e-31 -8.8040235047042890e-31 0.0000000000000000e+00  1.0576887861132112e-30 1.7362311629903925e-30 0.0000000000000000e+00  -1.3447599472290925e-31 -2.0469899884308792e-31 0.0000000000000000e+00  -3.2305998890495870e-30 -5.5872037517005060e-30 0.0000000000000000e+00  9.5667624483820385e-30 1.6574432154711439e-29 0.0000000000000000e+00  1.4446605128403280e-29 2.7284855795812615e-29 0.0000000000000000e+00  -9.4095404052446501e-29 -1.7739488157251633e-28 0.0000000000000000e+00  3.0513386413268795e-29 5.8315442032537364e-29 0.0000000000000000e+00  9.9423734207698603e-29 2.0677065529328769e-28 0.0000000000000000e+00  3.6760520015202084e-29 7.3669843636005671e-29 0.0000000000000000e+00  3.1902951549102442e-28 6.8347038041836385e-28 0.0000000000000000e+00  1.3676162260932670e-28 3.2716013328157382e-28 0.0000000000000000e+00  -3.8199087705510417e-28 -8.4643792187414582e-28 0.0000000000000000e+00  -3.9981526810838874e-28 -1.0672709811325395e-27 0.0000000000000000e+00  3.9013868427191392e-28 9.8246885372549887e-28 0.0000000000000000e+00  7.0689407721331724e-28 1.8858092400989002e-27 0.0000000000000000e+00  3.7776835727965329e-28 1.1775543064476559e-27 0.0000000000000000e+00  9.5861205762927218e-29 4.7938499680991599e-28 0.0000000000000000e+00  -8.0620840766836823e-28 -2.5630218539249756e-27 0.0000000000000000e+00  -2.8531084090918532e-28 -8.6983516577298411e-28 0.0000000000000000e+00  -1.2425052029791479e-28 -3.7991095245851678e-28 0.0000000000000000e+00  -3.9149754768635420e-28 -1.6112797927340594e-27 0.0000000000000000e+00  -3.4220401723727944e-28 -1.5286989940332266e-27 0.0000000000000000e+00  -3.2474601955252232e-28 -1.9859959281261740e-27 0.0000000000000000e+00  1.1000275734780229e-29 -4.0130551865742236e-28 0.0000000000000000e+00  3.3554649117424028e-28 1.9118534722458039e-27 0.0000000000000000e+00  3.3353560374366804e-29 8.3791666977279678e-29 0.0000000000000000e+00  -2.4178708945289395e-28 -2.3895104703195559e-27 0.0000000000000000e+00  1.2243869570447653e-28 1.1409195377709981e-27 0.0000000000000000e+00  6.9930662761927559e-29 1.0015269142829837e-27 0.0000000000000000e+00  -5.4657150827908912e-29 -1.3805584908590027e-27 0.0000000000000000e+00  -7.4042993738466874e-30 -2.6344097014108879e-28 0.0000000000000000e+00  1.0276042565835289e-30 -1.4779791292224116e-27 0.0000000000000000e+00  -5.7108860409692977e-29 2.2265535243356613e-27 0.0000000000000000e+00  -1.2099804365700836e-28 2.0789610828302962e-27 0.0000000000000000e+00  7.6350132621345311e-29 -1.6470008238890066e-27 0.0000000000000000e+00  -1.2631091284602681e-29 -2.1117627902676591e-28 0.0000000000000000e+00  2.3717809794703416e-28 -2.2949112231884589e-27 0.0000000000000000e+00  -2.6501815974275476e-28 1.6442839364066023e-27 0.0000000000000000e+00  -1.5826013318138121e-28 7.0852044509719449e-28 0.0000000000000000e+00  6.0901317141724124e-29 -7.4582214188216875e-28 0.0000000000000000e+00  -1.5008437968528070e-29 -2.5840027536484114e-28 0.0000000000000000e+00  5.6304136631575827e-28 -2.7542126895633163e-27 0.0000000000000000e+00  7.2232872045583710e-28 -3.3616494412301649e-27 0.0000000000000000e+00  1.1796313091242924e-27 -4.6270358709299782e-27 0.0000000000000000e+00  3.8040867047029831e-28 -1.2715067147715352e-27 0.0000000000000000e+00  -3.2268717221547884e-28 1.2470284385529932e-27 0.0000000000000000e+00  -7.9033013094855336e-28 2.4785522033620910e-27 0.0000000000000000e+00  -9.3507794508111746e-28 2.7048190331421828e-27 0.0000000000000000e+00  -2.6420149834015904e-28 6.7896369045712076e-28 0.0000000000000000e+00  1.6251338505716244e-28 -4.5618608099504026e-28 0.0000000000000000e+00  1.9669964703489316e-28 -5.0795926831326872e-28 0.0000000000000000e+00  8.0792052064696330e-28 -1.8629965340743603e-27 0.0000000000000000e+00  3.3563724461525759e-28 -7.2936093222692917e-28 0.0000000000000000e+00  -2.7722424257063705e-28 5.9191001794662812e-28 0.0000000000000000e+00  -1.0965619353400531e-29 2.6811198116434457e-29 0.0000000000000000e+00  3.1002600295199345e-29 -6.6086016383190572e-29 0.0000000000000000e+00  7.6472001714318820e-29 -1.4865941435784705e-28 0.0000000000000000e+00  -1.5687404638452528e-29 3.0464223709779306e-29 0.0000000000000000e+00  -2.3015328616363628e-29 4.1493648894849456e-29 0.0000000000000000e+00  2.1645