<?xml version="1.0"?>
<VTKFile type="UnstructuredGrid"  version="0.1"  >
<UnstructuredGrid>
<Piece  NumberOfPoints="11902" NumberOfCells="23402">
<Points>
<DataArray  type="Float64"  NumberOfComponents="3"  format="ascii">-5 -5 0  5 -5 0  5 5 0  -5 5 0  1.211407792255175 0.001335319610179812 0  -4.9 -5 0  -4.8 -5 0  -4.7 -5 0  -4.6 -5 0  -4.5 -5 0  -4.4 -5 0  -4.3 -5 0  -4.2 -5 0  -4.1 -5 0  -4 -5 0  -3.9 -5 0  -3.8 -5 0  -3.7 -5 0  -3.6 -5 0  -3.5 -5 0  -3.4 -5 0  -3.3 -5 0  -3.2 -5 0  -3.1 -5 0  -3 -5 0  -2.9 -5 0  -2.8 -5 0  -2.7 -5 0  -2.6 -5 0  -2.5 -5 0  -2.4 -5 0  -2.3 -5 0  -2.2 -5 0  -2.1 -5 0  -2 -5 0  -1.9 -5 0  -1.8 -5 0  -1.7 -5 0  -1.6 -5 0  -1.5 -5 0  -1.4 -5 0  -1.3 -5 0  -1.2 -5 0  -1.1 -5 0  -1 -5 0  -0.9000000000000004 -5 0  -0.7999999999999998 -5 0  -0.7000000000000002 -5 0  -0.5999999999999996 -5 0  -0.5 -5 0  -0.4000000000000004 -5 0  -0.2999999999999998 -5 0  -0.2000000000000002 -5 0  -0.09999999999999964 -5 0  0 -5 0  0.09999999999999964 -5 0  0.2000000000000002 -5 0  0.2999999999999998 -5 0  0.4000000000000004 -5 0  0.5 -5 0  0.5999999999999996 -5 0  0.7000000000000002 -5 0  0.7999999999999998 -5 0  0.9000000000000004 -5 0  1 -5 0  1.1 -5 0  1.2 -5 0  1.3 -5 0  1.4 -5 0  1.5 -5 0  1.6 -5 0  1.7 -5 0  1.8 -5 0  1.9 -5 0  2 -5 0  2.1 -5 0  2.2 -5 0  2.3 -5 0  2.4 -5 0  2.5 -5 0  2.6 -5 0  2.7 -5 0  2.8 -5 0  2.9 -5 0  3 -5 0  3.1 -5 0  3.199999999999999 -5 0  3.300000000000001 -5 0  3.4 -5 0  3.5 -5 0  3.6 -5 0  3.699999999999999 -5 0  3.800000000000001 -5 0  3.9 -5 0  4 -5 0  4.1 -5 0  4.199999999999999 -5 0  4.300000000000001 -5 0  4.4 -5 0  4.5 -5 0  4.6 -5 0  4.699999999999999 -5 0  4.800000000000001 -5 0  4.9 -5 0  5 -4.9 0  5 -4.8 0  5 -4.7 0  5 -4.6 0  5 -4.5 0  5 -4.4 0  5 -4.3 0  5 -4.2 0  5 -4.1 0  5 -4 0  5 -3.9 0  5 -3.8 0  5 -3.7 0  5 -3.6 0  5 -3.5 0  5 -3.4 0  5 -3.3 0  5 -3.2 0  5 -3.1 0  5 -3 0  5 -2.9 0  5 -2.8 0  5 -2.7 0  5 -2.6 0  5 -2.5 0  5 -2.4 0  5 -2.3 0  5 -2.2 0  5 -2.1 0  5 -2 0  5 -1.9 0  5 -1.8 0  5 -1.7 0  5 -1.6 0  5 -1.5 0  5 -1.4 0  5 -1.3 0  5 -1.2 0  5 -1.1 0  5 -1 0  5 -0.9000000000000004 0  5 -0.7999999999999998 0  5 -0.7000000000000002 0  5 -0.5999999999999996 0  5 -0.5 0  5 -0.4000000000000004 0  5 -0.2999999999999998 0  5 -0.2000000000000002 0  5 -0.09999999999999964 0  5 0 0  5 0.09999999999999964 0  5 0.2000000000000002 0  5 0.2999999999999998 0  5 0.4000000000000004 0  5 0.5 0  5 0.5999999999999996 0  5 0.7000000000000002 0  5 0.7999999999999998 0  5 0.9000000000000004 0  5 1 0  5 1.1 0  5 1.2 0  5 1.3 0  5 1.4 0  5 1.5 0  5 1.6 0  5 1.7 0  5 1.8 0  5 1.9 0  5 2 0  5 2.1 0  5 2.2 0  5 2.3 0  5 2.4 0  5 2.5 0  5 2.6 0  5 2.7 0  5 2.8 0  5 2.9 0  5 3 0  5 3.1 0  5 3.199999999999999 0  5 3.300000000000001 0  5 3.4 0  5 3.5 0  5 3.6 0  5 3.699999999999999 0  5 3.800000000000001 0  5 3.9 0  5 4 0  5 4.1 0  5 4.199999999999999 0  5 4.300000000000001 0  5 4.4 0  5 4.5 0  5 4.6 0  5 4.699999999999999 0  5 4.800000000000001 0  5 4.9 0  4.9 5 0  4.8 5 0  4.7 5 0  4.6 5 0  4.5 5 0  4.4 5 0  4.3 5 0  4.2 5 0  4.1 5 0  4 5 0  3.9 5 0  3.8 5 0  3.7 5 0  3.6 5 0  3.5 5 0  3.4 5 0  3.3 5 0  3.2 5 0  3.1 5 0  3 5 0  2.9 5 0  2.8 5 0  2.7 5 0  2.6 5 0  2.5 5 0  2.4 5 0  2.3 5 0  2.2 5 0  2.1 5 0  2 5 0  1.9 5 0  1.8 5 0  1.7 5 0  1.6 5 0  1.5 5 0  1.4 5 0  1.3 5 0  1.2 5 0  1.1 5 0  1 5 0  0.9000000000000004 5 0  0.7999999999999998 5 0  0.7000000000000002 5 0  0.5999999999999996 5 0  0.5 5 0  0.4000000000000004 5 0  0.2999999999999998 5 0  0.2000000000000002 5 0  0.09999999999999964 5 0  0 5 0  -0.09999999999999964 5 0  -0.2000000000000002 5 0  -0.2999999999999998 5 0  -0.4000000000000004 5 0  -0.5 5 0  -0.5999999999999996 5 0  -0.7000000000000002 5 0  -0.7999999999999998 5 0  -0.9000000000000004 5 0  -1 5 0  -1.1 5 0  -1.2 5 0  -1.3 5 0  -1.4 5 0  -1.5 5 0  -1.6 5 0  -1.7 5 0  -1.8 5 0  -1.9 5 0  -2 5 0  -2.1 5 0  -2.2 5 0  -2.3 5 0  -2.4 5 0  -2.5 5 0  -2.6 5 0  -2.7 5 0  -2.8 5 0  -2.9 5 0  -3 5 0  -3.1 5 0  -3.199999999999999 5 0  -3.300000000000001 5 0  -3.4 5 0  -3.5 5 0  -3.6 5 0  -3.699999999999999 5 0  -3.800000000000001 5 0  -3.9 5 0  -4 5 0  -4.1 5 0  -4.199999999999999 5 0  -4.300000000000001 5 0  -4.4 5 0  -4.5 5 0  -4.6 5 0  -4.699999999999999 5 0  -4.800000000000001 5 0  -4.9 5 0  -5 4.9 0  -5 4.8 0  -5 4.7 0  -5 4.6 0  -5 4.5 0  -5 4.4 0  -5 4.3 0  -5 4.2 0  -5 4.1 0  -5 4 0  -5 3.9 0  -5 3.8 0  -5 3.7 0  -5 3.6 0  -5 3.5 0  -5 3.4 0  -5 3.3 0  -5 3.2 0  -5 3.1 0  -5 3 0  -5 2.9 0  -5 2.8 0  -5 2.7 0  -5 2.6 0  -5 2.5 0  -5 2.4 0  -5 2.3 0  -5 2.2 0  -5 2.1 0  -5 2 0  -5 1.9 0  -5 1.8 0  -5 1.7 0  -5 1.6 0  -5 1.5 0  -5 1.4 0  -5 1.3 0  -5 1.2 0  -5 1.1 0  -5 1 0  -5 0.9000000000000004 0  -5 0.7999999999999998 0  -5 0.7000000000000002 0  -5 0.5999999999999996 0  -5 0.5 0  -5 0.4000000000000004 0  -5 0.2999999999999998 0  -5 0.2000000000000002 0  -5 0.09999999999999964 0  -5 0 0  -5 -0.09999999999999964 0  -5 -0.2000000000000002 0  -5 -0.2999999999999998 0  -5 -0.4000000000000004 0  -5 -0.5 0  -5 -0.5999999999999996 0  -5 -0.7000000000000002 0  -5 -0.7999999999999998 0  -5 -0.9000000000000004 0  -5 -1 0  -5 -1.1 0  -5 -1.2 0  -5 -1.3 0  -5 -1.4 0  -5 -1.5 0  -5 -1.6 0  -5 -1.7 0  -5 -1.8 0  -5 -1.9 0  -5 -2 0  -5 -2.1 0  -5 -2.2 0  -5 -2.3 0  -5 -2.4 0  -5 -2.5 0  -5 -2.6 0  -5 -2.7 0  -5 -2.8 0  -5 -2.9 0  -5 -3 0  -5 -3.1 0  -5 -3.199999999999999 0  -5 -3.300000000000001 0  -5 -3.4 0  -5 -3.5 0  -5 -3.6 0  -5 -3.699999999999999 0  -5 -3.800000000000001 0  -5 -3.9 0  -5 -4 0  -5 -4.1 0  -5 -4.199999999999999 0  -5 -4.300000000000001 0  -5 -4.4 0  -5 -4.5 0  -5 -4.6 0  -5 -4.699999999999999 0  -5 -4.800000000000001 0  -5 -4.9 0  1.205240074769141 0.09861450417624154 0  1.186100453466963 0.1964802647394079 0  1.154262229435072 0.293550995051041 0  1.11317210570981 0.3846256973561994 0  1.059575241801818 0.475211920394544 0  0.9966880214238856 0.5602109918371743 0  0.9226942563079079 0.6399842692091414 0  0.8395247988544529 0.7129102392169263 0  0.7494260504769528 0.7784586918366355 0  0.650745206205631 0.8368185226269188 0  0.5448698215651292 0.8879925302951888 0  0.4352161449394389 0.9301280604234041 0  0.3233807561351628 0.9629915919605335 0  0.2053016865605746 0.9853093193305862 0  0.08893089652518868 1.000613156143201 0  -0.0277241110209495 1.003444921400409 0  -0.1446828486371543 0.9930629316062604 0  -0.2640436698935351 0.9752079458906129 0  -0.3795672871264072 0.9493008792273764 0  -0.4895317712767891 0.9128431194538632 0  -0.5950602002641466 0.867098097314045 0  -0.695408072774704 0.8124122145985003 0  -0.7884458966463609 0.7492187837601567 0  -0.8753522631205627 0.6783166717539795 0  -0.9551870770566983 0.6000573871654908 0  -1.024430434918874 0.5178837572527217 0  -1.083913478194311 0.4311757374304014 0  -1.132121834797621 0.3392752197232893 0  -1.168195700760553 0.2457040124051485 0  -1.192314228698945 0.1495859545474289 0  -1.204490963830948 0.05073635815817683 0  -1.204473781909321 -0.04885605343936804 0  -1.192213508798994 -0.1473222419478758 0  -1.168791466711842 -0.2433992778272162 0  -1.131388192597182 -0.3389954609521626 0  -1.084239790164126 -0.4300800457047673 0  -1.025504715479709 -0.5170735889642604 0  -0.9568793525475231 -0.5987617887696293 0  -0.8774614558460593 -0.675791319393087 0  -0.7902722709403777 -0.7455357834432258 0  -0.6957826329587234 -0.8067169197563182 0  -0.5951383936081249 -0.8608804604952685 0  -0.4864914629041702 -0.9081730199114936 0  -0.375756140419378 -0.9464037445341852 0  -0.2609938555855723 -0.9740104402278097 0  -0.1432953788057187 -0.992249385528845 0  -0.02751575764846358 -1.002527634973747 0  0.08950889824472488 -0.997649673931124 0  0.2085827594010835 -0.9828506093744839 0  0.3252009913689718 -0.9613214348726843 0  0.4388265301208862 -0.9287089698579527 0  0.54670213450935 -0.8870519884870894 0  0.6515144661955529 -0.8365265475411292 0  0.7495667308726836 -0.7795181057925513 0  0.8395726464043243 -0.7136955154291716 0  0.9221626832730564 -0.6394803539493054 0  0.9950722805681596 -0.5595721822907681 0  1.059397048297639 -0.4745875331449894 0  1.114174804449391 -0.3846769311338033 0  1.155760524969201 -0.291943625922236 0  1.186420153367286 -0.1956151013074427 0  1.205282338943072 -0.09814666326082108 0  -2.448732251412495 4.918427447829116 0  -2.448621729224294 -4.910834275484428 0  4.910766284708372 2.448136643493996 0  4.918860766144522 -2.449576217573652 0  2.44638186889735 -4.896125089930029 0  2.440808283398793 4.899874719505452 0  -4.910790666024393 -2.448160477579626 0  -4.910788653725192 2.448164326951857 0  -1.74869270303833 4.911454991820138 0  -1.744471781431544 -4.914878598941269 0  4.921034186499514 1.744288728201118 0  4.909624817246653 -1.748081778788126 0  -4.909913741852593 -1.747812445794138 0  -4.910732627393781 1.747554730221986 0  1.745976599156789 4.905344212420109 0  1.747412304315139 -4.893546702808393 0  -1.148967873612583 4.909332890139336 0  -1.129811614687462 -4.917204490903242 0  -4.909748552939498 -1.148097433361514 0  -4.909568647554964 1.14789763817307 0  1.143954453744887 -4.913410444159603 0  1.148976302573578 4.909321091527326 0  4.909893052671818 1.146374224670774 0  4.920656377586393 -1.152136382440534 0  -0.5467348502635946 -4.910568719249023 0  -0.5465110702899825 4.919202315264098 0  -4.908575483306112 -0.5488028416554508 0  -4.908599755091571 0.5473595224209384 0  4.907905526003648 -0.5491230391340457 0  4.91948098917551 0.5458675231019965 0  0.54252367403057 -4.897526655776772 0  0.5512409281337772 4.916044558224395 0  -4.912107910588308 -3.048477083743928 0  4.918664486524118 3.046481385135342 0  4.911618074317078 -3.048455702870549 0  -4.912954600438963 3.04556716401641 0  3.055439626649899 -4.917598161285563 0  -3.048780904381652 -4.911548659018665 0  3.052344939602647 4.913622571733577 0  -3.048225544811249 4.912436665449353 0  -4.907718900576731 -0.04991711333054456 0  0.04512397635343862 -4.91252330718017 0  0.04957208661522415 4.919508568687577 0  4.914728775208448 -0.05129861092056916 0  3.545729104275019 -4.919177300742989 0  -3.549019150734665 4
[...]
<PointData  Vectors="f_2594"> 
<DataArray  type="Float64"  Name="f_2594"  NumberOfComponents="3" format="ascii">-1.1776310279635430e-40 -1.3555817977301195e-40 0.0000000000000000e+00  1.4068003648866266e-40 -1.5565955967226722e-40 0.0000000000000000e+00  -2.0225000146787616e-40 -1.9710990597817269e-40 0.0000000000000000e+00  -2.3377167416023313e-40 2.3684947294242733e-40 0.0000000000000000e+00  1.5912451725141560e+01 -1.4783301855341716e-01 0.0000000000000000e+00  2.7738158750391677e-40 3.0187119848448590e-40 0.0000000000000000e+00  7.1951226903545326e-40 7.3260380452257313e-40 0.0000000000000000e+00  -1.6449188510797477e-39 -1.8251344258695033e-39 0.0000000000000000e+00  1.5405340177792616e-38 1.7646273473435725e-38 0.0000000000000000e+00  -5.0342235858537582e-38 -5.7303609733151387e-38 0.0000000000000000e+00  1.8534284783563959e-37 2.2774688607901046e-37 0.0000000000000000e+00  -6.6557868958476464e-37 -8.5581005524129714e-37 0.0000000000000000e+00  3.9444757338332359e-36 5.0693504813448721e-36 0.0000000000000000e+00  -2.4630400884414298e-35 -3.0860638684652923e-35 0.0000000000000000e+00  1.0105004121910962e-34 1.2895069498603136e-34 0.0000000000000000e+00  -2.2209277551804765e-34 -2.8105883153547385e-34 0.0000000000000000e+00  4.4832372331807128e-34 5.5345076231027848e-34 0.0000000000000000e+00  1.6461240051241528e-33 2.0805056479114420e-33 0.0000000000000000e+00  -7.1318901442108304e-33 -9.6363462417905283e-33 0.0000000000000000e+00  1.9642373599361409e-32 2.8637212261634829e-32 0.0000000000000000e+00  -1.1446993016355140e-31 -1.6570761484571508e-31 0.0000000000000000e+00  3.0313262145828020e-31 4.4134297092635818e-31 0.0000000000000000e+00  1.9400167966565919e-31 2.7156514016899455e-31 0.0000000000000000e+00  -1.5754112430510256e-30 -2.2561506135136113e-30 0.0000000000000000e+00  -6.2420311245604498e-31 -1.1545902049036014e-30 0.0000000000000000e+00  -1.3736537922686478e-30 -2.6382173165291711e-30 0.0000000000000000e+00  4.2197529470204312e-30 7.8644612063113891e-30 0.0000000000000000e+00  -9.4914934382434345e-30 -2.4273276070518653e-29 0.0000000000000000e+00  3.4245185611168639e-29 7.5768966647909334e-29 0.0000000000000000e+00  1.9583425479549294e-29 4.6502244427448475e-29 0.0000000000000000e+00  -1.7175709181313754e-28 -3.8410032331556809e-28 0.0000000000000000e+00  -6.2682088195324796e-29 -1.5493663903930111e-28 0.0000000000000000e+00  -1.0477400093683990e-28 -3.1347798951678567e-28 0.0000000000000000e+00  1.7285972066489258e-28 4.6297715390674236e-28 0.0000000000000000e+00  4.9506965122896117e-28 1.4557709929627295e-27 0.0000000000000000e+00  -7.9326197107815234e-30 -9.7859102094802841e-29 0.0000000000000000e+00  1.5367869030401123e-28 4.1684191405620023e-28 0.0000000000000000e+00  -7.9674425875905820e-29 -2.6667185134791408e-28 0.0000000000000000e+00  -4.7444437791708654e-28 -1.4691706248932053e-27 0.0000000000000000e+00  -4.4122444737751288e-28 -1.4388752290629715e-27 0.0000000000000000e+00  -1.1194542249589835e-29 -1.1236585909275717e-28 0.0000000000000000e+00  4.5440743137918054e-28 1.7053234238941642e-27 0.0000000000000000e+00  2.7455629680098070e-28 1.0186162808862694e-27 0.0000000000000000e+00  -5.5317732100368245e-30 -1.6038265784309508e-28 0.0000000000000000e+00  1.1697207759431492e-28 4.1253696749144617e-28 0.0000000000000000e+00  -3.7354171767403404e-29 1.0079655194936796e-27 0.0000000000000000e+00  8.9286260934651622e-29 1.7117800017832836e-27 0.0000000000000000e+00  -5.3793957282346372e-32 -1.0140451334896874e-27 0.0000000000000000e+00  3.6911627164648785e-28 5.4783112923737939e-27 0.0000000000000000e+00  -1.4953540905716013e-28 -9.9146437575718450e-30 0.0000000000000000e+00  -5.0093385350902304e-28 -4.6811461670835330e-27 0.0000000000000000e+00  -3.8446796766335057e-28 -2.6702549759497387e-27 0.0000000000000000e+00  -2.8270372839765087e-28 -3.8616060820583260e-27 0.0000000000000000e+00  -1.1158963095656372e-28 -9.8784419808213183e-27 0.0000000000000000e+00  4.5612688271906015e-29 -1.1322086601196761e-26 0.0000000000000000e+00  -1.4886245602039226e-29 -1.9404455896254182e-27 0.0000000000000000e+00  6.5953694548898677e-29 -6.0864188594347211e-27 0.0000000000000000e+00  7.1251330661673418e-29 -2.1339548644660362e-27 0.0000000000000000e+00  2.2932980133869338e-28 -3.9038627108544856e-27 0.0000000000000000e+00  -1.4762603719558489e-28 1.8778451449090187e-27 0.0000000000000000e+00  5.3048754917911910e-28 -5.2007906932491702e-27 0.0000000000000000e+00  6.5234791406150396e-28 -4.7337499175838597e-27 0.0000000000000000e+00  -8.3223315230130288e-29 1.0372858072350221e-27 0.0000000000000000e+00  -1.0263923995259603e-27 7.1948156174912135e-27 0.0000000000000000e+00  -4.8761374197604950e-28 2.8630166665568827e-27 0.0000000000000000e+00  -3.5522347026081887e-28 1.6086314083716904e-27 0.0000000000000000e+00  -8.4891408160085048e-28 4.1279118014335802e-27 0.0000000000000000e+00  -4.9810746221967917e-28 2.1852255862125866e-27 0.0000000000000000e+00  5.4344382561916531e-28 -2.5076391991886845e-27 0.0000000000000000e+00  3.2187413428185872e-28 -1.1781473231231438e-27 0.0000000000000000e+00  6.9009120492575845e-29 -2.0617721927924297e-28 0.0000000000000000e+00  3.0655998993899393e-28 -8.7805072062868139e-28 0.0000000000000000e+00  2.2495133157977121e-28 -6.8825092267141306e-28 0.0000000000000000e+00  -1.9401849139007024e-28 5.9008043705213504e-28 0.0000000000000000e+00  -1.2695578008369413e-28 3.6685202875829239e-28 0.0000000000000000e+00  -9.8795686770716729e-29 2.7215960586474335e-28 0.0000000000000000e+00  1.8078046192037339e-29 -5.5948428082675420e-29 0.0000000000000000e+00  6.9059894115579578e-29 -1.7616779038840639e-28 0.0000000000000000e+00  1.0037744246297229e-28 -2.3911166303990075e-28 0.0000000000000000e+00  -7.0596881404224610e-30 1.3651098792160566e-29 0.0000000000000000e+00  -7.5368998656250553e-29 1.6313786991385131e-28 0.0000000000000000e+00  1.2278859339950473e-29 -2.6412418678431463e-29 0.0000000000000000e+00  4.2306639571085241e-30 -8.5126720032107189e-30 0.0000000000000000e+00  -1.2361210329928613e-29 2.2406326722810193e-29 0.0000000000000000e+00  -1.1111499837760399e-30 1.5514072376157789e-30 0.0000000000000000e+00  1.4717302739315694e-30 -2.3668471659949606e-30 0.0000000000000000e+00  -7.3814485798724887e-31 1.1587151498794687e-30 0.0000000000000000e+00  9.8723016440728972e-32 -1.5640248682292951e-31 0.0000000000000000e+00  -1.1157190757906151e-32 1.7317950416142812e-32 0.0000000000000000e+00  -1.4280140164863313e-33 1.8977885701286301e-33 0.0000000000000000e+00  6.3471508140248571e-33 -8.3689540738270953e-33 0.0000000000000000e+00  1.7845833153777918e-34 -1.7317362365872909e-34 0.0000000000000000e+00  -3.4235723423647976e-34 4.2274626630238255e-34 0.0000000000000000e+00  3.5142123759322091e-35 -4.0360738083016036e-35 0.0000000000000000e+00  -1.2812937585221804e-35 1.6186206099899558e-35 0.0000000000000000e+00  3.5744782261992692e-36 -4.2862834483129477e-36 0.0000000000000000e+00  -1.5463711403678643e-36 1.7133646152335080e-36 0.0000000000000000e+00  4.7764961709775484e-37 -5.4245929712105431e-37 0.0000000000000000e+00  -2.3697449905385775e-37 2.5804385009405075e-37 0.0000000000000000e+00  7.9006736856637536e-38 -8.4033965733792456e-38 0.0000000000000000e+00  -1.5284500130139227e-38 1.6399705056893267e-38 0.0000000000000000e+00  6.1004899918756747e-39 -6.3311605496853404e-39 0.0000000000000000e+00  -4.2566323562074393e-40 4.0773810891656004e-40 0.0000000000000000e+00  -2.4534106557415375e-40 2.7051593828650544e-40 0.0000000000000000e+00  -1.6555257933735898e-42 3.0905749585180719e-42 0.0000000000000000e+00  3.7397725401507850e-40 -3.2933159169941859e-40 0.0000000000000000e+00  -8.4850950302737101e-40 7.3408222472247538e-40 0.0000000000000000e+00  2.9109108334927022e-39 -2.6624094497169318e-39 0.0000000000000000e+00  -1.3589396933343667e-39 1.5387375059834274e-39 0.0000000000000000e+00  -1.4699285171881928e-38 1.1983366657488763e-38 0.0000000000000000e+00  5.3764400546335954e-38 -4.5406326565744952e-38 0.0000000000000000e+00  -6.7523552868085964e-38 5.9694213162382735e-38 0.0000000000000000e+00  -1.4498011022997124e-37 1.0732032805708602e-37 0.0000000000000000e+00  8.4741443055252322e-37 -6.6606804735608807e-37 0.0000000000000000e+00  -1.4064811358372877e-36 1.1331379448425124e-36 0.0000000000000000e+00  -1.4318229008586473e-36 9.6471230166701188e-37 0.0000000000000000e+00  1.1806734268364637e-35 -8.7161049600127329e-36 0.0000000000000000e+00  -2.1999127893206573e-35 1.6396379964235515e-35 0.0000000000000000e+00  -1.8327290477070600e-35 1.1915169460894748e-35 0.0000000000000000e+00  1.7101009389408644e-34 -1.1858342095448130e-34 0.0000000000000000e+00  -2.6559769062305121e-34 1.8512618332258800e-34 0.0000000000000000e+00  -3.8820606505519876e-34 2.5035787477444024e-34 0.0000000000000000e+00  2.3048306560411720e-33 -1.4955456923107338e-33 0.0000000000000000e+00  -2.1916924114566955e-33 1.4164363133328439e-33 0.0000000000000000e+00  -8.5144552103190617e-33 5.2188736954984837e-33 0.0000000000000000e+00  2.6235895692580757e-32 -1.5835827550794251e-32 0.0000000000000000e+00  3.4364333600817439e-33 -1.8989128311433969e-33 0.0000000000000000e+00  -1.4459790932991490e-31 8.2051687082274868e-32 0.0000000000000000e+00  1.8631531285611998e-31 -1.0142227084296266e-31 0.0000000000000000e+00  4.9155517073880125e-31 -2.6399175822204840e-31 0.0000000000000000e+00  -1.4274005011731193e-30 7.2970538401052265e-31 0.0000000000000000e+00  -8.8168695993501220e-31 4.6918923257923955e-31 0.0000000000000000e+00  7.7226283088127385e-30 -3.6978866497264880e-30 0.0000000000000000e+00  -2.1087258292588755e-30 7.3095136276002928e-31 0.0000000000000000e+00  -3.4452890698479312e-29 1.5434405884638609e-29 0.0000000000000000e+00  2.7970920607672141e-29 -1.0288254078993344e-29 0.0000000000000000e+00  1.4162836187740834e-28 -5.9523726298268568e-29 0.0000000000000000e+00  -1.5915864168556816e-28 5.2502298749051093e-29 0.0000000000000000e+00  -5.9454554635329789e-28 2.3070170734198953e-28 0.0000000000000000e+00  6.2916230445818109e-28 -1.7052315669002535e-28 0.0000000000000000e+00  2.4882514357617414e-27 -8.6725878826810837e-28 0.0000000000000000e+00  -1.8979467792161783e-27 3.2631045814801413e-28 0.0000000000000000e+00  -9.6182296884363719e-27 2.7067023190785656e-27 0.0000000000000000e+00  2.6070750470202418e-27 3.8954770605085548e-28 0.0000000000000000e+00  3.0351432235241654e-26 -6.3390838897998910e-27 0.0000000000000000e+00  1.4906726242831420e-26 -5.0567644611425217e-27 0.0000000000000000e+00  -8.5096244767575916e-26 1.2033765259897212e-26 0.0000000000000000e+00  -1.2889953789745011e-25 1.8603454341600181e-26 0.0000000000000000e+00  1.4319746913091086e-25 -2.5691900752510108e-26 0.0000000000000000e+00  8.3174544352683267e-25 -1.2054335830384090e-25 0.0000000000000000e+00  1.5078563663073629e-24 -1.8982306134028762e-25 0.0000000000000000e+00  1.8247946363192434e-24 -1.8343640200161429e-25 0.0000000000000000e+00  1.7699474755852777e-24 -9.9963590751955950e-26 0.0000000000000000e+00  1.7778239005023694e-24 1.1001889294273855e-26 0.0000000000000000e+00  1.8971690080473141e-24 1.1332438815007493e-25 0.0000000000000000e+00  1.7606957428505671e-24 1.6095999139965812e-25 0.0000000000000000e+00  1.1617516200793775e-24 1.2843033581802046e-25 0.0000000000000000e+00  3.5753054672461981e-25 4.2512400385063769e-26 0.0000000000000000e+00  -1.3990881430056232e-25 -2.3329442695868984e-26 0.0000000000000000e+00  -1.9591069633164685e-25 -3.0995644182566700e-26 0.0000000000000000e+00  -3.4718771722508630e-26 -2.3286948803962843e-27 0.0000000000000000e+00  5.6475521442778860e-26 1.4555654976447040e-26 0.0000000000000000e+00  3.4610050276381454e-26 8.3738195147941891e-27 0.0000000000000000e+00  -4.6220926420140161e-27 -1.5262895286263240e-27 0.0000000000000000e+00  -9.8716232277694160e-27 -2.7852814368168560e-27 0.0000000000000000e+00  -5.4623392575717620e-28 -7.8863775226981859e-29 0.0000000000000000e+00  2.5100061577917287e-27 8.1127259761568619e-28 0.0000000000000000e+00  3.1173015824750189e-28 8.8506548153934671e-29 0.0000000000000000e+00  -6.0404902588715671e-28 -2.1572468761253466e-28 0.0000000000000000e+00  -6.9449340409659494e-29 -2.2144378317392758e-29 0.0000000000000000e+00  1.4051328390239083e-28 5.4872198352288187e-29 0.0000000000000000e+00  3.2879636319031144e-30 3.9899211350673668e-31 0.0000000000000000e+00  -3.1107344945363391e-29 -1.3133530679901973e-29 0.0000000000000000e+00  3.1621520466699788e-30 1.6404194413963391e-30 0.0000000000000000e+00  5.8261240395089069e-30 2.6485435502484396e-30 0.0000000000000000e+00  -1.7897097036643313e-30 -9.0570630446674734e-31 0.0000000000000000e+00  -8.4128280731108766e-31 -4.0127081028139887e-31 0.0000000000000000e+00  5.5793648227882664e-31 2.9636798996722455e-31 0.0000000000000000e+00  2.6513906597850780e-32 9.0847148888923765e-33 0.0000000000000000e+00  -1.2002143081259954e-31 -6.6955796595110975e-32 0.0000000000000000e+00  2.7214440160780901e-32 1.6719828212061516e-32 0.0000000000000000e+00  1.6947414657510793e-32 9.7875980138712847e-33 0.0000000000000000e+00  -1.0840077235346064e-32 -6.7468563914510987e-33 0.0000000000000000e+00  1.6728696921075947e-34 1.7020135419028956e-34 0.0000000000000000e+00  1.9261664806246080e-33 1.2569521080728192e-33 0.0000000000000000e+00  -7.2748627679820975e-34 -4.9484955341274189e-34 0.0000000000000000e+00  -9.9871834023858007e-35 -6.7556584559928390e-35 0.0000000000000000e+00  1.7284599333456236e-34 1.2265652414551812e-34 0.0000000000000000e+00  -4.8905765119929429e-35 -3.5578080409302383e-35 0.0000000000000000e+00  -1.0876498953201628e-35 -8.2563820813419574e-36 0.0000000000000000e+00  1.2596183908398689e-35 9.6384429291750936e-36 0.0000000000000000e+00  -3.3429676816639872e-36 -2.5632918235624082e-36 0.0000000000000000e+00  -7.2662997091867740e-37 -6.1128579127907044e-37 0.0000000000000000e+00  8.6699183289880462e-37 7.1127341536066743e-37 0.0000000000000000e+00  -2.5831745264312314e-37 -2.1001474077436577e-37 0.0000000000000000e+00  -2.5835134060125850e-38 -2.5693262874128050e-38 0.0000000000000000e+00  5.2917298961482036e-38 4.6828821738325814e-38 0.0000000000000000e+00  -2.0885802722179937e-38 -1.8176228639205187e-38 0.0000000000000000e+00  1.1711395086515450e-39 7.0225342118712705e-40 0.0000000000000000e+00  2.6941959434731264e-39 2.6019264749036313e-39 0.0000000000000000e+00  -1.4803856985626647e-39 -1.3855198055152722e-39 0.0000000000000000e+00  3.4017045149070573e-40 3.0602932064681147e-40 0.0000000000000000e+00  1.3294777791533499e-40 1.4668850235179967e-40 0.0000000000000000e+00  3.1349297761186024e-40 3.0881616657293923e-40 0.0000000000000000e+00  -8.1796642094412522e-40 -8.9803968581391512e-40 0.0000000000000000e+00  1.6521396530343502e-39 1.8467431185616212e-39 0.0000000000000000e+00  -1.1083862731368067e-38 -1.2546725940933887e-38 0.0000000000000000e+00  8.5713634892070662e-38 9.0956346354374858e-38 0.0000000000000000e+00  -2.1759572881300427e-37 -2.2075805492265020e-37 0.0000000000000000e+00  2.6776391904951164e-37 2.8303230720572454e-37 0.0000000000000000e+00  -3.6427512106329662e-36 -4.2402989202630005e-36 0.0000000000000000e+00  1.0416821341771077e-35 1.3365635306350642e-35 0.0000000000000000e+00  -4.1939424417977152e-35 -5.7526887955937633e-35 0.0000000000000000e+00  9.2775148334445989e-35 1.2776137192513902e-34 0.0000000000000000e+00  -1.5803579424903620e-34 -2.4423354057236503e-34 0.0000000000000000e+00  9.5386441742590962e-34 1.3404796175218418e-33 0.0000000000000000e+00  -4.3977588177525755e-34 -6.1312221238456322e-34 0.0000000000000000e+00  3.1775483796611929e-33 4.8868734613836832e-33 0.0000000000000000e+00  3.6182561441318819e-32 5.1596455742351001e-32 0.0000000000000000e+00  -1.5844640974907161e-31 -2.2937567689124745e-31 0.0000000000000000e+00  -5.0249829025421660e-31 -7.4976753227292262e-31 0.0000000000000000e+00  1.0622006362915108e-30 1.5866398852141951e-30 0.0000000000000000e+00  -3.7698285536269778e-31 -5.2905651553042576e-31 0.0000000000000000e+00  -2.8990352800390637e-30 -5.3541642110089640e-30 0.0000000000000000e+00  8.7838659292590295e-30 1.8082339714766523e-29 0.0000000000000000e+00  1.2390970313711334e-29 2.6132180305306783e-29 0.0000000000000000e+00  -7.7818693632065544e-29 -1.6812827801556074e-28 0.0000000000000000e+00  2.4671962747526273e-29 5.0821965935310959e-29 0.0000000000000000e+00  9.0352962469586557e-29 1.8539023592596348e-28 0.0000000000000000e+00  2.4908465652986645e-29 7.3092527855818164e-29 0.0000000000000000e+00  2.2362677424324430e-28 6.2528501041314634e-28 0.0000000000000000e+00  9.9483287773696939e-29 2.8640564563296193e-28 0.0000000000000000e+00  -2.3437899970356287e-28 -6.8175709536615432e-28 0.0000000000000000e+00  -3.7378462574859478e-28 -1.1219272520628955e-27 0.0000000000000000e+00  2.9411682010906687e-28 9.4021338525991319e-28 0.0000000000000000e+00  5.0036985628166578e-28 1.7196153400442178e-27 0.0000000000000000e+00  3.2892571151314539e-28 1.1929333800201093e-27 0.0000000000000000e+00  1.8356250499788998e-28 6.2245806187825398e-28 0.0000000000000000e+00  -5.7679015966613663e-28 -2.3736443310240536e-27 0.0000000000000000e+00  -1.3906033782703526e-28 -6.7271685322583160e-28 0.0000000000000000e+00  -3.3125280950332252e-29 -2.3544561425936965e-28 0.0000000000000000e+00  -2.7510441856113244e-28 -1.4531406515323358e-27 0.0000000000000000e+00  -2.3310882122397931e-28 -1.3538040541949553e-27 0.0000000000000000e+00  -3.4731578137056397e-28 -2.1400991365676618e-27 0.0000000000000000e+00  -1.4748018777113482e-28 -8.3296890402909124e-28 0.0000000000000000e+00  1.2324586734650123e-28 1.2713082807348333e-27 0.0000000000000000e+00  -5.3309797493609953e-29 -2.6345376813331968e-28 0.0000000000000000e+00  -1.4640616879943982e-28 -2.1446275386577533e-27 0.0000000000000000e+00  -7.0163617254141604e-30 5.8825489963283703e-28 0.0000000000000000e+00  -2.2449527633581500e-29 4.5250583408806328e-28 0.0000000000000000e+00  -5.7613291308710715e-30 -1.4489637790319661e-27 0.0000000000000000e+00  6.4068455644617652e-31 -5.4667958143325911e-28 0.0000000000000000e+00  9.3417734028192513e-29 -1.5884252880644288e-27 0.0000000000000000e+00  -1.2989684594804536e-28 1.5903726619253893e-27 0.0000000000000000e+00  -1.4733792491237494e-28 1.4780181149707735e-27 0.0000000000000000e+00  2.1390392703291603e-28 -1.6739969928145230e-27 0.0000000000000000e+00  9.0073283504951612e-29 -4.2163437824695292e-28 0.0000000000000000e+00  2.9172069848787845e-28 -2.1359698230882236e-27 0.0000000000000000e+00  -5.0241017157285964e-29 1.0830946016020655e-27 0.0000000000000000e+00  -4.7144425881651499e-30 3.3147054217490024e-28 0.0000000000000000e+00  2.6020141581981139e-28 -9.9828836167113294e-28 0.0000000000000000e+00  1.3335909895070649e-28 -4.9748197273791633e-28 0.0000000000000000e+00  4.9438652598033110e-28 -2.5650319535509659e-27 0.0000000000000000e+00  7.1837994735055261e-28 -3.3748840727852994e-27 0.0000000000000000e+00  9.6807060962485346e-28 -4.4328181507362282e-27 0.0000000000000000e+00  2.7420001912595392e-28 -1.1679233738399262e-27 0.0000000000000000e+00  -3.5160430276517312e-28 1.3759675161234122e-27 0.0000000000000000e+00  -6.2840615112973451e-28 2.4061724628922383e-27 0.0000000000000000e+00  -7.1305579179842168e-28 2.5841255068368821e-27 0.0000000000000000e+00  -1.7139561162890300e-28 5.9786717378408907e-28 0.0000000000000000e+00  1.5496067639588455e-28 -5.0171682020857927e-28 0.0000000000000000e+00  1.2854015345019091e-28 -4.3902009791319906e-28 0.0000000000000000e+00  5.3631095219598163e-28 -1.6505374966795932e-27 0.0000000000000000e+00  2.3065935529323049e-28 -6.5722890501757515e-28 0.0000000000000000e+00  -1.9316509375225615e-28 5.4618113931399521e-28 0.0000000000000000e+00  -1.0868951933952119e-29 1.3782005466050290e-29 0.0000000000000000e+00  2.4397984301914366e-29 -5.9157445246217493e-29 0.0000000000000000e+00  5.5894936925774289e-29 -1.3042439497526092e-28 0.0000000000000000e+00  -1.2246267126546383e-29 2.7206486158262918e-29 0.0000000000000000e+00  -1.8055543070386969e-29 3.8192904285180906e-29 0.0000000000000000e+00  1.32