<?xml version="1.0"?>
<VTKFile type="UnstructuredGrid"  version="0.1"  >
<UnstructuredGrid>
<Piece  NumberOfPoints="11902" NumberOfCells="23402">
<Points>
<DataArray  type="Float64"  NumberOfComponents="3"  format="ascii">-5 -5 0  5 -5 0  5 5 0  -5 5 0  1.015079880798714 9.651599180928134e-05 0  -4.9 -5 0  -4.8 -5 0  -4.7 -5 0  -4.6 -5 0  -4.5 -5 0  -4.4 -5 0  -4.3 -5 0  -4.2 -5 0  -4.1 -5 0  -4 -5 0  -3.9 -5 0  -3.8 -5 0  -3.7 -5 0  -3.6 -5 0  -3.5 -5 0  -3.4 -5 0  -3.3 -5 0  -3.2 -5 0  -3.1 -5 0  -3 -5 0  -2.9 -5 0  -2.8 -5 0  -2.7 -5 0  -2.6 -5 0  -2.5 -5 0  -2.4 -5 0  -2.3 -5 0  -2.2 -5 0  -2.1 -5 0  -2 -5 0  -1.9 -5 0  -1.8 -5 0  -1.7 -5 0  -1.6 -5 0  -1.5 -5 0  -1.4 -5 0  -1.3 -5 0  -1.2 -5 0  -1.1 -5 0  -1 -5 0  -0.9000000000000004 -5 0  -0.7999999999999998 -5 0  -0.7000000000000002 -5 0  -0.5999999999999996 -5 0  -0.5 -5 0  -0.4000000000000004 -5 0  -0.2999999999999998 -5 0  -0.2000000000000002 -5 0  -0.09999999999999964 -5 0  0 -5 0  0.09999999999999964 -5 0  0.2000000000000002 -5 0  0.2999999999999998 -5 0  0.4000000000000004 -5 0  0.5 -5 0  0.5999999999999996 -5 0  0.7000000000000002 -5 0  0.7999999999999998 -5 0  0.9000000000000004 -5 0  1 -5 0  1.1 -5 0  1.2 -5 0  1.3 -5 0  1.4 -5 0  1.5 -5 0  1.6 -5 0  1.7 -5 0  1.8 -5 0  1.9 -5 0  2 -5 0  2.1 -5 0  2.2 -5 0  2.3 -5 0  2.4 -5 0  2.5 -5 0  2.6 -5 0  2.7 -5 0  2.8 -5 0  2.9 -5 0  3 -5 0  3.1 -5 0  3.199999999999999 -5 0  3.300000000000001 -5 0  3.4 -5 0  3.5 -5 0  3.6 -5 0  3.699999999999999 -5 0  3.800000000000001 -5 0  3.9 -5 0  4 -5 0  4.1 -5 0  4.199999999999999 -5 0  4.300000000000001 -5 0  4.4 -5 0  4.5 -5 0  4.6 -5 0  4.699999999999999 -5 0  4.800000000000001 -5 0  4.9 -5 0  5 -4.9 0  5 -4.8 0  5 -4.7 0  5 -4.6 0  5 -4.5 0  5 -4.4 0  5 -4.3 0  5 -4.2 0  5 -4.1 0  5 -4 0  5 -3.9 0  5 -3.8 0  5 -3.7 0  5 -3.6 0  5 -3.5 0  5 -3.4 0  5 -3.3 0  5 -3.2 0  5 -3.1 0  5 -3 0  5 -2.9 0  5 -2.8 0  5 -2.7 0  5 -2.6 0  5 -2.5 0  5 -2.4 0  5 -2.3 0  5 -2.2 0  5 -2.1 0  5 -2 0  5 -1.9 0  5 -1.8 0  5 -1.7 0  5 -1.6 0  5 -1.5 0  5 -1.4 0  5 -1.3 0  5 -1.2 0  5 -1.1 0  5 -1 0  5 -0.9000000000000004 0  5 -0.7999999999999998 0  5 -0.7000000000000002 0  5 -0.5999999999999996 0  5 -0.5 0  5 -0.4000000000000004 0  5 -0.2999999999999998 0  5 -0.2000000000000002 0  5 -0.09999999999999964 0  5 0 0  5 0.09999999999999964 0  5 0.2000000000000002 0  5 0.2999999999999998 0  5 0.4000000000000004 0  5 0.5 0  5 0.5999999999999996 0  5 0.7000000000000002 0  5 0.7999999999999998 0  5 0.9000000000000004 0  5 1 0  5 1.1 0  5 1.2 0  5 1.3 0  5 1.4 0  5 1.5 0  5 1.6 0  5 1.7 0  5 1.8 0  5 1.9 0  5 2 0  5 2.1 0  5 2.2 0  5 2.3 0  5 2.4 0  5 2.5 0  5 2.6 0  5 2.7 0  5 2.8 0  5 2.9 0  5 3 0  5 3.1 0  5 3.199999999999999 0  5 3.300000000000001 0  5 3.4 0  5 3.5 0  5 3.6 0  5 3.699999999999999 0  5 3.800000000000001 0  5 3.9 0  5 4 0  5 4.1 0  5 4.199999999999999 0  5 4.300000000000001 0  5 4.4 0  5 4.5 0  5 4.6 0  5 4.699999999999999 0  5 4.800000000000001 0  5 4.9 0  4.9 5 0  4.8 5 0  4.7 5 0  4.6 5 0  4.5 5 0  4.4 5 0  4.3 5 0  4.2 5 0  4.1 5 0  4 5 0  3.9 5 0  3.8 5 0  3.7 5 0  3.6 5 0  3.5 5 0  3.4 5 0  3.3 5 0  3.2 5 0  3.1 5 0  3 5 0  2.9 5 0  2.8 5 0  2.7 5 0  2.6 5 0  2.5 5 0  2.4 5 0  2.3 5 0  2.2 5 0  2.1 5 0  2 5 0  1.9 5 0  1.8 5 0  1.7 5 0  1.6 5 0  1.5 5 0  1.4 5 0  1.3 5 0  1.2 5 0  1.1 5 0  1 5 0  0.9000000000000004 5 0  0.7999999999999998 5 0  0.7000000000000002 5 0  0.5999999999999996 5 0  0.5 5 0  0.4000000000000004 5 0  0.2999999999999998 5 0  0.2000000000000002 5 0  0.09999999999999964 5 0  0 5 0  -0.09999999999999964 5 0  -0.2000000000000002 5 0  -0.2999999999999998 5 0  -0.4000000000000004 5 0  -0.5 5 0  -0.5999999999999996 5 0  -0.7000000000000002 5 0  -0.7999999999999998 5 0  -0.9000000000000004 5 0  -1 5 0  -1.1 5 0  -1.2 5 0  -1.3 5 0  -1.4 5 0  -1.5 5 0  -1.6 5 0  -1.7 5 0  -1.8 5 0  -1.9 5 0  -2 5 0  -2.1 5 0  -2.2 5 0  -2.3 5 0  -2.4 5 0  -2.5 5 0  -2.6 5 0  -2.7 5 0  -2.8 5 0  -2.9 5 0  -3 5 0  -3.1 5 0  -3.199999999999999 5 0  -3.300000000000001 5 0  -3.4 5 0  -3.5 5 0  -3.6 5 0  -3.699999999999999 5 0  -3.800000000000001 5 0  -3.9 5 0  -4 5 0  -4.1 5 0  -4.199999999999999 5 0  -4.300000000000001 5 0  -4.4 5 0  -4.5 5 0  -4.6 5 0  -4.699999999999999 5 0  -4.800000000000001 5 0  -4.9 5 0  -5 4.9 0  -5 4.8 0  -5 4.7 0  -5 4.6 0  -5 4.5 0  -5 4.4 0  -5 4.3 0  -5 4.2 0  -5 4.1 0  -5 4 0  -5 3.9 0  -5 3.8 0  -5 3.7 0  -5 3.6 0  -5 3.5 0  -5 3.4 0  -5 3.3 0  -5 3.2 0  -5 3.1 0  -5 3 0  -5 2.9 0  -5 2.8 0  -5 2.7 0  -5 2.6 0  -5 2.5 0  -5 2.4 0  -5 2.3 0  -5 2.2 0  -5 2.1 0  -5 2 0  -5 1.9 0  -5 1.8 0  -5 1.7 0  -5 1.6 0  -5 1.5 0  -5 1.4 0  -5 1.3 0  -5 1.2 0  -5 1.1 0  -5 1 0  -5 0.9000000000000004 0  -5 0.7999999999999998 0  -5 0.7000000000000002 0  -5 0.5999999999999996 0  -5 0.5 0  -5 0.4000000000000004 0  -5 0.2999999999999998 0  -5 0.2000000000000002 0  -5 0.09999999999999964 0  -5 0 0  -5 -0.09999999999999964 0  -5 -0.2000000000000002 0  -5 -0.2999999999999998 0  -5 -0.4000000000000004 0  -5 -0.5 0  -5 -0.5999999999999996 0  -5 -0.7000000000000002 0  -5 -0.7999999999999998 0  -5 -0.9000000000000004 0  -5 -1 0  -5 -1.1 0  -5 -1.2 0  -5 -1.3 0  -5 -1.4 0  -5 -1.5 0  -5 -1.6 0  -5 -1.7 0  -5 -1.8 0  -5 -1.9 0  -5 -2 0  -5 -2.1 0  -5 -2.2 0  -5 -2.3 0  -5 -2.4 0  -5 -2.5 0  -5 -2.6 0  -5 -2.7 0  -5 -2.8 0  -5 -2.9 0  -5 -3 0  -5 -3.1 0  -5 -3.199999999999999 0  -5 -3.300000000000001 0  -5 -3.4 0  -5 -3.5 0  -5 -3.6 0  -5 -3.699999999999999 0  -5 -3.800000000000001 0  -5 -3.9 0  -5 -4 0  -5 -4.1 0  -5 -4.199999999999999 0  -5 -4.300000000000001 0  -5 -4.4 0  -5 -4.5 0  -5 -4.6 0  -5 -4.699999999999999 0  -5 -4.800000000000001 0  -5 -4.9 0  1.010053950867705 0.09978963442310579 0  0.9949549064756614 0.1985750708451404 0  0.9698595053447565 0.2954282502920925 0  0.9353052602852935 0.3892137282846889 0  0.8914367608923928 0.4792826730971633 0  0.8387616739624071 0.5645342594747611 0  0.7776805091155206 0.6441061074889008 0  0.7087522985204161 0.717268609206672 0  0.6329021763005972 0.7833645613913885 0  0.5507718688097161 0.8417145667650174 0  0.4631147950079634 0.8916072033801171 0  0.3708080003561264 0.9326668306465623 0  0.2749927853082333 0.9645184617016628 0  0.1763196907072404 0.9866741493043959 0  0.07597074326643127 0.9991134885985529 0  -0.02517842080844479 1.001613871182351 0  -0.1260878686088556 0.9941038416702801 0  -0.2257410501014528 0.9768391182044828 0  -0.3231269344698026 0.9498309942362816 0  -0.4172909625681975 0.9133211896039122 0  -0.5072896599340054 0.8678131947132181 0  -0.5922658081184515 0.8136306575600353 0  -0.6713636874018101 0.7513881770882289 0  -0.7437870285909414 0.681715090154868 0  -0.8088392752501549 0.6051368360720383 0  -0.8657969229340131 0.5225625723509965 0  -0.9142506088456422 0.4348701199164192 0  -0.9535307683588161 0.3427894901634936 0  -0.9833091632288311 0.2473433134380402 0  -1.003377675754517 0.1494488046461649 0  -1.013482054558858 0.05002465986079858 0  -1.013485035889812 -0.04990681286498842 0  -1.003385139713301 -0.1493148286148249 0  -0.9835066058705697 -0.2471937822019837 0  -0.9535346562768758 -0.3426908537565034 0  -0.9142751842674189 -0.4347040784631218 0  -0.8658514371726733 -0.522427107590489 0  -0.8088984683451391 -0.604960030378912 0  -0.7438386999302816 -0.6814605132009586 0  -0.6713515276071054 -0.7511197265519025 0  -0.5921892406479794 -0.8132865876186721 0  -0.5073345567788055 -0.8675653419207235 0  -0.4171719576523565 -0.9130538559168246 0  -0.3229934398346661 -0.9496030779651168 0  -0.2255673821687919 -0.9766354922909815 0  -0.1259366617002838 -0.9939569868872138 0  -0.02507586309029483 -1.001549266572389 0  0.07599532135719585 -0.9990084050426208 0  0.1764269382840704 -0.9865227214542062 0  0.2750222622825961 -0.9643446588350408 0  0.3710110423858267 -0.9324942487207971 0  0.4631665705964542 -0.8914364105586893 0  0.5508317545665964 -0.8415453214749028 0  0.6329468404480921 -0.783377346452299 0  0.7087927658033589 -0.7172967977442113 0  0.7776335540745161 -0.6440423091489719 0  0.8386873815980036 -0.5644012458495629 0  0.8914915166879036 -0.479192681553911 0  0.9354762675116647 -0.3892095550427274 0  0.9699927944304008 -0.2953865798354932 0  0.994964339452118 -0.1985145725532982 0  1.010066566746846 -0.09976815378089857 0  -2.449877134830295 4.920551731621465 0  -2.449867768360199 -4.913150323450322 0  4.913137294634438 2.449811567295466 0  4.921012296465794 -2.451099379399792 0  2.447831691034517 -4.898846201253772 0  2.442211107952416 4.902507147782533 0  -4.91314185814883 -2.449816988773452 0  -4.913146029970062 2.449820447775287 0  -1.7498704461405 4.914500895336085 0  -1.745597810258599 -4.917801650464463 0  4.924021646224966 1.745800354143986 0  4.913035406784341 -1.749814909541276 0  -4.91328661747063 -1.749519568305033 0  -4.914081674100998 1.74924364478107 0  1.747226844652764 4.908617329175348 0  1.748812671702334 -4.897220648360905 0  -1.149901930720278 4.913009382068246 0  -1.130650741777939 -4.920564257922657 0  -4.91396153203188 -1.149498914329486 0  -4.913795740628787 1.149296910971471 0  1.144826834572427 -4.916927972782499 0  1.149898953582156 4.913008458452766 0  4.914141178674017 1.147786516158895 0  4.924388301648299 -1.153385984677454 0  -0.5472200697009058 -4.914551711655927 0  -0.54694935094258 4.922812488842336 0  -4.913462003362229 -0.5495806953242899 0  -4.913489066947086 0.5481285946590971 0  4.912873810262159 -0.5499158972527356 0  4.923827431229998 0.5465538330797292 0  0.5430544988020742 -4.902102449536661 0  0.5516869392286832 4.919799133753557 0  -4.913697038393961 -3.0498487833474 0  4.920148069110363 3.04776516351589 0  4.913225352287322 -3.049849875323746 0  -4.914536467085033 3.046927868330413 0  3.056464590563314 -4.919160479258668 0  -3.04988248032417 -4.913218351257597 0  3.053423564831527 4.915264539927083 0  -3.049320912194113 4.914093786763922 0  -4.912857371459071 -0.04999482684309531 0  0.04515355033483071 -4.916534092160741 0  0.04960554221549705 4.923209781944744 0  4.919521122034968 -0.05137144572488522 0  3.546543604067044 -4.920273886960914 0 
[...]
<PointData  Vectors="f_306"> 
<DataArray  type="Float64"  Name="f_306"  NumberOfComponents="3" format="ascii">-1.5966522486652227e-40 -1.6422839385362825e-40 0.0000000000000000e+00  2.1547769837600438e-40 -2.1637097727765224e-40 0.0000000000000000e+00  -2.4500969935181244e-40 -2.5297577482245326e-40 0.0000000000000000e+00  -3.1361949145162047e-40 3.3565581976925129e-40 0.0000000000000000e+00  1.1595875543492392e+01 -7.3777060931048499e-01 0.0000000000000000e+00  3.5232266337647999e-40 3.6341996835032042e-40 0.0000000000000000e+00  7.9959405558025110e-40 9.1668572155273192e-40 0.0000000000000000e+00  -1.7807264717317199e-39 -2.1394721859797196e-39 0.0000000000000000e+00  1.8242463342832224e-38 2.0630806536541515e-38 0.0000000000000000e+00  -5.8959409483911456e-38 -6.4239332390298520e-38 0.0000000000000000e+00  2.3135361237695665e-37 2.4426563300277036e-37 0.0000000000000000e+00  -8.5749548774641340e-37 -9.2033803346098261e-37 0.0000000000000000e+00  4.9812518164048955e-36 6.0369936484339241e-36 0.0000000000000000e+00  -2.9742962644057385e-35 -3.8940929495768526e-35 0.0000000000000000e+00  1.1954574678073128e-34 1.5902583773556007e-34 0.0000000000000000e+00  -2.4824137543056693e-34 -3.4763549132221779e-34 0.0000000000000000e+00  4.6893619201100159e-34 6.9455172552072015e-34 0.0000000000000000e+00  1.7348401029671760e-33 2.6199807941179194e-33 0.0000000000000000e+00  -7.9965168141154831e-33 -1.2011053208623906e-32 0.0000000000000000e+00  2.3578726749084288e-32 3.5705147578758265e-32 0.0000000000000000e+00  -1.3135285836264963e-31 -2.0619883194050903e-31 0.0000000000000000e+00  3.4457891007045108e-31 5.4528803053638212e-31 0.0000000000000000e+00  1.8555884581295069e-31 3.6511509416290211e-31 0.0000000000000000e+00  -1.5741421817543707e-30 -2.9307182856503001e-30 0.0000000000000000e+00  -8.2345508833820626e-31 -1.2769597375017422e-30 0.0000000000000000e+00  -2.1218816633060778e-30 -3.3377988161152927e-30 0.0000000000000000e+00  5.3025460996533713e-30 9.4379602761971078e-30 0.0000000000000000e+00  -1.4236447146572697e-29 -2.1144694595851500e-29 0.0000000000000000e+00  4.5498344905683150e-29 7.7840215247039182e-29 0.0000000000000000e+00  2.7961923590904475e-29 5.1292260950563735e-29 0.0000000000000000e+00  -2.2627693134876937e-28 -4.3691925749524151e-28 0.0000000000000000e+00  -7.1075089245757361e-29 -1.4389570257714020e-28 0.0000000000000000e+00  -1.1041443869880130e-28 -2.0785878233369667e-28 0.0000000000000000e+00  2.0934115674328493e-28 4.2466468304686215e-28 0.0000000000000000e+00  6.4436739907827136e-28 1.3951193246881658e-27 0.0000000000000000e+00  -9.1070901945473608e-29 -1.2659230798301706e-28 0.0000000000000000e+00  1.1265738801066980e-28 3.5564615528517192e-28 0.0000000000000000e+00  -1.0960377421557528e-28 -2.4820631209372091e-28 0.0000000000000000e+00  -4.2870262026270457e-28 -1.2759015039930452e-27 0.0000000000000000e+00  -3.8866384686356937e-28 -1.2934116422294888e-27 0.0000000000000000e+00  -4.5377069888122955e-29 -1.9884527092619641e-28 0.0000000000000000e+00  4.2629854796970718e-28 1.5541885411969570e-27 0.0000000000000000e+00  2.2136605400735085e-28 9.5680822719928318e-28 0.0000000000000000e+00  -6.9705890749000474e-29 -1.9670130564206264e-28 0.0000000000000000e+00  6.3563791424281291e-29 3.8782242367796930e-28 0.0000000000000000e+00  3.9519221606758407e-28 1.0991991942869334e-27 0.0000000000000000e+00  4.7691639814530888e-28 1.8226234901818940e-27 0.0000000000000000e+00  -2.6223465161563267e-28 -1.0121245805498265e-27 0.0000000000000000e+00  9.3782870547753551e-28 5.8858112334136749e-27 0.0000000000000000e+00  3.5774388214412082e-29 -5.5762741164289870e-29 0.0000000000000000e+00  -4.0217818386322971e-28 -5.1596668689368048e-27 0.0000000000000000e+00  -1.8492123718973908e-29 -3.0724736834211164e-27 0.0000000000000000e+00  -1.3994750414641869e-28 -4.3714002634021978e-27 0.0000000000000000e+00  -4.3784050753457471e-28 -1.0715668629534232e-26 0.0000000000000000e+00  -2.6241548888770261e-28 -1.2279041249386593e-26 0.0000000000000000e+00  2.1308497556620525e-29 -2.1390439485795923e-27 0.0000000000000000e+00  1.8331411136915698e-28 -6.8036156672823573e-27 0.0000000000000000e+00  2.2759199647048693e-28 -2.5567439358422134e-27 0.0000000000000000e+00  4.5430836891619793e-28 -4.4602954820776432e-27 0.0000000000000000e+00  -2.5651661490460371e-28 1.8662788022213297e-27 0.0000000000000000e+00  7.5693755383393406e-28 -6.0632981362563345e-27 0.0000000000000000e+00  8.2003962080519566e-28 -5.4910334451267674e-27 0.0000000000000000e+00  -1.9492196111090321e-28 1.0211109760686772e-27 0.0000000000000000e+00  -1.7193320688810196e-27 7.9109666925140334e-27 0.0000000000000000e+00  -7.4722123888446103e-28 3.1297456083394462e-27 0.0000000000000000e+00  -3.7953637785580152e-28 1.9025977942196515e-27 0.0000000000000000e+00  -1.2042391229584206e-27 4.5007993807002910e-27 0.0000000000000000e+00  -7.1350214076678637e-28 2.3739592710612993e-27 0.0000000000000000e+00  8.4711769455188229e-28 -2.6007938461711804e-27 0.0000000000000000e+00  4.0191131846644247e-28 -1.2144874691358968e-27 0.0000000000000000e+00  8.6465558889685018e-29 -3.0305572563204946e-28 0.0000000000000000e+00  3.0799967069567808e-28 -9.4376065707160889e-28 0.0000000000000000e+00  2.9536657146981401e-28 -7.4112604379002436e-28 0.0000000000000000e+00  -2.4751343245731046e-28 5.9928639231548018e-28 0.0000000000000000e+00  -2.2173080581566266e-28 4.8494639490864023e-28 0.0000000000000000e+00  -1.5557564129310548e-28 3.2849292258832476e-28 0.0000000000000000e+00  1.5083194480755522e-29 -3.3135119756133619e-29 0.0000000000000000e+00  1.1433251073566244e-28 -2.3114568425941278e-28 0.0000000000000000e+00  1.6067408129221401e-28 -2.9909613457073286e-28 0.0000000000000000e+00  -4.6645205249704111e-30 1.5489855964537020e-29 0.0000000000000000e+00  -1.0845280527278658e-28 1.9077020650264397e-28 0.0000000000000000e+00  1.7700090542448859e-29 -3.1699471044426123e-29 0.0000000000000000e+00  5.9326859600653730e-30 -9.3109008881507132e-30 0.0000000000000000e+00  -1.4573129775267893e-29 2.5452257666285770e-29 0.0000000000000000e+00  -9.6288893615450565e-31 1.7189575458273787e-30 0.0000000000000000e+00  1.5825597508588413e-30 -2.7048394685712992e-30 0.0000000000000000e+00  -8.2638226272244781e-31 1.3890212661835154e-30 0.0000000000000000e+00  1.0300501311692259e-31 -1.6932586915738106e-31 0.0000000000000000e+00  -1.2709599692985806e-32 1.9616371072903419e-32 0.0000000000000000e+00  -2.7889274293350420e-34 7.0901811860709976e-34 0.0000000000000000e+00  6.7458010382640924e-33 -1.0401057163679003e-32 0.0000000000000000e+00  4.1383716154222794e-34 -5.2848748327327135e-34 0.0000000000000000e+00  -4.6410830633278737e-34 6.6592004720109919e-34 0.0000000000000000e+00  5.2215028573097820e-35 -8.0241798261298677e-35 0.0000000000000000e+00  -2.1715676591574320e-35 2.9290241895376813e-35 0.0000000000000000e+00  4.8114883124998943e-36 -6.2708628540597071e-36 0.0000000000000000e+00  -1.4577655632787241e-36 1.8789499506782112e-36 0.0000000000000000e+00  4.8688678522593072e-37 -5.9285566145718237e-37 0.0000000000000000e+00  -2.4222928251709102e-37 2.9200706044511711e-37 0.0000000000000000e+00  8.2079491759215238e-38 -9.7853657469572408e-38 0.0000000000000000e+00  -1.7332056009600452e-38 1.9914330506964829e-38 0.0000000000000000e+00  7.0639714845051111e-39 -7.9558818385732063e-39 0.0000000000000000e+00  -3.9539481205689841e-40 4.7537207940619096e-40 0.0000000000000000e+00  -3.6634916341524502e-40 3.7401563472296086e-40 0.0000000000000000e+00  -1.7213360369373723e-41 9.7741174565762186e-42 0.0000000000000000e+00  3.7872170833444862e-40 -3.9102483003908919e-40 0.0000000000000000e+00  -8.8907656951738796e-40 8.7207427280202581e-40 0.0000000000000000e+00  3.6125329043286456e-39 -3.3780676290220850e-39 0.0000000000000000e+00  -2.7441930995554361e-39 2.3897516632534341e-39 0.0000000000000000e+00  -1.4832709139064304e-38 1.3547605038931856e-38 0.0000000000000000e+00  6.2282201912501440e-38 -5.4516116965516497e-38 0.0000000000000000e+00  -9.0994806955509612e-38 7.6587016334698827e-38 0.0000000000000000e+00  -1.2950167835601915e-37 1.1028812770519726e-37 0.0000000000000000e+00  9.3820512571445920e-37 -7.6171278163769277e-37 0.0000000000000000e+00  -1.7266037238423479e-36 1.3600689513919653e-36 0.0000000000000000e+00  -1.1583109789076608e-36 8.9038497516115879e-37 0.0000000000000000e+00  1.2908658017697453e-35 -9.6327457185996215e-36 0.0000000000000000e+00  -2.6063138236908031e-35 1.8878053862945211e-35 0.0000000000000000e+00  -1.5609661604664118e-35 1.0698690291127204e-35 0.0000000000000000e+00  1.8770550304373758e-34 -1.2728761807276595e-34 0.0000000000000000e+00  -3.1317850797820031e-34 2.0913773998905481e-34 0.0000000000000000e+00  -3.8518213719190752e-34 2.3839495017504874e-34 0.0000000000000000e+00  2.5602203310951202e-33 -1.5680771655743884e-33 0.0000000000000000e+00  -2.6636526836691795e-33 1.6295376670612639e-33 0.0000000000000000e+00  -9.0298240578648650e-33 5.0260296284689301e-33 0.0000000000000000e+00  2.9552503436622451e-32 -1.6415433660843042e-32 0.0000000000000000e+00  9.6985646355861756e-34 6.4490556408715743e-34 0.0000000000000000e+00  -1.5744774671074872e-31 7.8395464115457852e-32 0.0000000000000000e+00  2.1629917356259900e-31 -1.0852993549792074e-31 0.0000000000000000e+00  5.1268294628125428e-31 -2.2284987663633278e-31 0.0000000000000000e+00  -1.5718807420664027e-30 6.9942232935361441e-31 0.0000000000000000e+00  -8.2120259863944829e-31 2.6326237860967728e-31 0.0000000000000000e+00  8.1955909769520297e-30 -3.2247088407200626e-30 0.0000000000000000e+00  -2.6528479965092098e-30 1.4019984010818617e-30 0.0000000000000000e+00  -3.5440024290244043e-29 1.2117883255714306e-29 0.0000000000000000e+00  2.9686190178580577e-29 -1.1643132625173042e-29 0.0000000000000000e+00  1.4158739225914795e-28 -4.1659649348985717e-29 0.0000000000000000e+00  -1.5921162105233451e-28 5.4016727217101771e-29 0.0000000000000000e+00  -5.7895978271232730e-28 1.4524518495337416e-28 0.0000000000000000e+00  6.0001811761476351e-28 -1.9267962268300263e-28 0.0000000000000000e+00  2.3776325841243249e-27 -5.1051245587886181e-28 0.0000000000000000e+00  -1.7317675032822216e-27 5.3672461608276250e-28 0.0000000000000000e+00  -9.0270102781611908e-27 1.6624250281261880e-27 0.0000000000000000e+00  1.9368641958775135e-27 -9.0397713810246588e-28 0.0000000000000000e+00  2.7546850673742769e-26 -4.5489148296097588e-27 0.0000000000000000e+00  1.3863653491848378e-26 -7.4271148668562793e-28 0.0000000000000000e+00  -7.8172696098166687e-26 1.1580214266750275e-26 0.0000000000000000e+00  -1.1839809780900101e-25 1.3557955182112578e-26 0.0000000000000000e+00  1.4130238354917041e-25 -1.0354769866753094e-26 0.0000000000000000e+00  8.0930307259662135e-25 -3.7440652872315358e-26 0.0000000000000000e+00  1.4792111679166495e-24 -2.9838572619346103e-26 0.0000000000000000e+00  1.8064272110599601e-24 -4.3275566913652873e-28 0.0000000000000000e+00  1.7681110977277768e-24 1.1083795126488544e-26 0.0000000000000000e+00  1.7958831210257363e-24 -5.3231360685054086e-27 0.0000000000000000e+00  1.9380560009371752e-24 -1.0760331585457842e-26 0.0000000000000000e+00  1.8063950590997259e-24 1.3246250950595366e-26 0.0000000000000000e+00  1.1804679080764249e-24 3.4418608536172284e-26 0.0000000000000000e+00  3.3858383217014217e-25 2.2390233390466791e-26 0.0000000000000000e+00  -1.7382334484786165e-25 -6.8529665059187804e-27 0.0000000000000000e+00  -2.1799402453002171e-25 -1.8950708485097170e-26 0.0000000000000000e+00  -3.9094071470364809e-26 -6.5019312874714100e-27 0.0000000000000000e+00  5.9356672464723216e-26 6.1328301866441456e-27 0.0000000000000000e+00  3.6344885044136553e-26 5.3917088673883829e-27 0.0000000000000000e+00  -5.1383552313040669e-27 -5.7101284767094918e-28 0.0000000000000000e+00  -1.0764510203892711e-26 -1.9930612737776091e-27 0.0000000000000000e+00  -8.3403371106532807e-28 -2.3213273565100674e-28 0.0000000000000000e+00  2.6378633705416875e-27 5.9298057537115504e-28 0.0000000000000000e+00  4.1111399202305318e-28 1.1671033166433088e-28 0.0000000000000000e+00  -6.1899353747868555e-28 -1.6626345560597752e-28 0.0000000000000000e+00  -9.3393510045342813e-29 -3.1316438116287944e-29 0.0000000000000000e+00  1.4387083074181407e-28 4.5909611856940251e-29 0.0000000000000000e+00  8.2470474532428414e-30 4.0050421357588063e-30 0.0000000000000000e+00  -3.2474471067765893e-29 -1.1988910314370601e-29 0.0000000000000000e+00  2.4277248014738035e-30 6.5999830734981926e-31 0.0000000000000000e+00  6.2615617423081057e-30 2.6797244582990827e-30 0.0000000000000000e+00  -1.7715035404094989e-30 -7.0331744783123249e-31 0.0000000000000000e+00  -9.3775663602885909e-31 -4.5873552658351697e-31 0.0000000000000000e+00  5.8842376793072749e-31 2.7402258508082176e-31 0.0000000000000000e+00  3.6661921812539282e-32 2.7010620621728994e-32 0.0000000000000000e+00  -1.3142668159022210e-31 -6.8153281964143398e-32 0.0000000000000000e+00  2.9149461198502142e-32 1.3823873705221449e-32 0.0000000000000000e+00  1.9033983443090777e-32 1.1108538326266461e-32 0.0000000000000000e+00  -1.2104497227444483e-32 -6.7814858094518306e-33 0.0000000000000000e+00  1.6953542289279222e-34 -4.8070763411844279e-35 0.0000000000000000e+00  2.1877770282180260e-33 1.3739968028298317e-33 0.0000000000000000e+00  -8.3095768569501621e-34 -5.0811864516965372e-34 0.0000000000000000e+00  -1.1536534862414427e-34 -8.6463230927434724e-35 0.0000000000000000e+00  2.0017506336819556e-34 1.3554819001606611e-34 0.0000000000000000e+00  -5.6573283640289788e-35 -3.8158545983949777e-35 0.0000000000000000e+00  -1.3049002790172767e-35 -9.8143111895883018e-36 0.0000000000000000e+00  1.4871674330216883e-35 1.0945251117023630e-35 0.0000000000000000e+00  -3.8842644423786513e-36 -2.8757813782824975e-36 0.0000000000000000e+00  -9.1588131917452810e-37 -7.2913693308792452e-37 0.0000000000000000e+00  1.0457091039334724e-36 8.3237599095780837e-37 0.0000000000000000e+00  -3.0262943011362007e-37 -2.4633478402456698e-37 0.0000000000000000e+00  -3.7553140332303246e-38 -3.1175981656583019e-38 0.0000000000000000e+00  6.5876804048651486e-38 5.6428900615018223e-38 0.0000000000000000e+00  -2.5049067624708334e-38 -2.2070026930379972e-38 0.0000000000000000e+00  8.6884244207908413e-40 8.7098657441020232e-40 0.0000000000000000e+00  3.5349262026860527e-39 3.2062651706945879e-39 0.0000000000000000e+00  -1.8411963864199181e-39 -1.7257791916776942e-39 0.0000000000000000e+00  3.9580342244073691e-40 3.8521088025818247e-40 0.0000000000000000e+00  1.9224999572546419e-40 1.8262606089828835e-40 0.0000000000000000e+00  3.6170591171108017e-40 3.9796872695998943e-40 0.0000000000000000e+00  -1.0665616650174805e-39 -1.1349723802371166e-39 0.0000000000000000e+00  2.0809985627763070e-39 2.2863843187288854e-39 0.0000000000000000e+00  -1.4020187937579269e-38 -1.5292716467796412e-38 0.0000000000000000e+00  9.9406430293790422e-38 1.1166648596879593e-37 0.0000000000000000e+00  -2.2294463520769364e-37 -2.6032895555311705e-37 0.0000000000000000e+00  2.4856508469900630e-37 3.0326399816789131e-37 0.0000000000000000e+00  -4.0994882894717300e-36 -5.0248986584532078e-36 0.0000000000000000e+00  1.3422908117043111e-35 1.6261331002991257e-35 0.0000000000000000e+00  -5.9746781965837008e-35 -7.3005591099615515e-35 0.0000000000000000e+00  1.3481187633796738e-34 1.7313832175792514e-34 0.0000000000000000e+00  -2.9638145715468668e-34 -3.9907212491198059e-34 0.0000000000000000e+00  1.4559342015385506e-33 1.9939504533400694e-33 0.0000000000000000e+00  -1.2092687476093191e-33 -1.6967189335086761e-33 0.0000000000000000e+00  6.0688335045899147e-33 7.9849376867752799e-33 0.0000000000000000e+00  4.2943046385341143e-32 6.8964157005502509e-32 0.0000000000000000e+00  -2.0507733064110343e-31 -3.2025089547125755e-31 0.0000000000000000e+00  -5.5060927155261040e-31 -9.4308256212788803e-31 0.0000000000000000e+00  1.0364042511134246e-30 1.8263972226421217e-30 0.0000000000000000e+00  -6.8526083182129591e-32 -1.2110337904670290e-31 0.0000000000000000e+00  -3.2127644257711045e-30 -5.5091154995355946e-30 0.0000000000000000e+00  9.4464429731272140e-30 1.5092643085138290e-29 0.0000000000000000e+00  1.4305709377177636e-29 2.6252907207817905e-29 0.0000000000000000e+00  -9.4287847981592578e-29 -1.7069251504956537e-28 0.0000000000000000e+00  3.0488991437625392e-29 5.8224030178460148e-29 0.0000000000000000e+00  9.1498276373668970e-29 2.0001211882794435e-28 0.0000000000000000e+00  4.2663927212542230e-29 7.3019089373502564e-29 0.0000000000000000e+00  3.5601519061514081e-28 6.9061431988825291e-28 0.0000000000000000e+00  1.4934686653728203e-28 3.3527041352359802e-28 0.0000000000000000e+00  -4.4825716470002441e-28 -9.0547723210667181e-28 0.0000000000000000e+00  -3.7054655394933168e-28 -9.7284443550705306e-28 0.0000000000000000e+00  4.1270654317225469e-28 9.5781558912798645e-28 0.0000000000000000e+00  7.6106504907437503e-28 1.8766287030279029e-27 0.0000000000000000e+00  3.8359579418754831e-28 1.1286574370058245e-27 0.0000000000000000e+00  3.6991548249946442e-29 3.7209865098250296e-28 0.0000000000000000e+00  -8.8684379429165048e-28 -2.5856206410550487e-27 0.0000000000000000e+00  -3.4535412103508426e-28 -9.4565976423624097e-28 0.0000000000000000e+00  -1.8152120140130239e-28 -4.9160966288213292e-28 0.0000000000000000e+00  -4.5121063137918487e-28 -1.7033014546134708e-27 0.0000000000000000e+00  -4.1729959183600584e-28 -1.6865563767919882e-27 0.0000000000000000e+00  -3.3446798836314759e-28 -1.9504825394584752e-27 0.0000000000000000e+00  1.1445758781839211e-28 -5.0883645414296806e-29 0.0000000000000000e+00  5.1736830203781222e-28 2.6085989778964333e-27 0.0000000000000000e+00  9.1703134029289735e-29 3.8980965252158382e-28 0.0000000000000000e+00  -3.3528817651471403e-28 -2.7826389655537223e-27 0.0000000000000000e+00  2.3353830816573465e-28 1.7867618877206738e-27 0.0000000000000000e+00  1.4683665971549183e-28 1.6398113664369327e-27 0.0000000000000000e+00  -8.9955721678788792e-29 -1.4151633664109732e-27 0.0000000000000000e+00  -1.0305103683723561e-29 4.0007986842455287e-30 0.0000000000000000e+00  -4.8042237280539039e-29 -1.4550753145784299e-27 0.0000000000000000e+00  -3.0087331619676526e-29 2.9535939093964522e-27 0.0000000000000000e+00  -1.3251143706142180e-28 2.7753070678932941e-27 0.0000000000000000e+00  1.2221941111566066e-29 -1.7244416338086022e-27 0.0000000000000000e+00  -7.0668477618618295e-29 -4.8973174404848820e-29 0.0000000000000000e+00  2.2295242584276216e-28 -2.4686760914733550e-27 0.0000000000000000e+00  -3.9656844165523197e-28 2.0843919788127915e-27 0.0000000000000000e+00  -2.6342672114955464e-28 1.0388534318814036e-27 0.0000000000000000e+00  -3.8544896594678223e-29 -6.0391798146279108e-28 0.0000000000000000e+00  -1.0606280243103485e-28 -6.8903209475723754e-29 0.0000000000000000e+00  6.1504959470075680e-28 -2.9056250218436709e-27 0.0000000000000000e+00  7.1683360741719388e-28 -3.3229264134959884e-27 0.0000000000000000e+00  1.2746747006846724e-27 -4.6964073195657842e-27 0.0000000000000000e+00  4.2818936975181518e-28 -1.3135811327932314e-27 0.0000000000000000e+00  -2.9261863133072818e-28 1.1376924275151662e-27 0.0000000000000000e+00  -8.3579686650004434e-28 2.4461689536954595e-27 0.0000000000000000e+00  -1.0031280189379381e-27 2.6884471887098473e-27 0.0000000000000000e+00  -3.0603898806998094e-28 7.1286390898322966e-28 0.0000000000000000e+00  1.4900574357260315e-28 -4.0455063807517308e-28 0.0000000000000000e+00  2.2835918851932947e-28 -5.3793788457117063e-28 0.0000000000000000e+00  9.3099842166976678e-28 -1.9420517242388846e-27 0.0000000000000000e+00  3.7955885018363189e-28 -7.5133731231193995e-28 0.0000000000000000e+00  -3.1229281470688131e-28 6.0053719774364524e-28 0.0000000000000000e+00  -9.3616172661879672e-30 3.3135411912598969e-29 0.0000000000000000e+00  3.2719857195784114e-29 -6.7286278221607686e-29 0.0000000000000000e+00  8.3604509766310737e-29 -1.5383138349290266e-28 0.0000000000000000e+00  -1.6587167669996550e-29 3.0986231133796437e-29 0.0000000000000000e+00  -2.4290899459715837e-29 4.1432196123734949e-29 0.0000000000000000e+00  2.54112