<?xml version="1.0"?>
<VTKFile type="UnstructuredGrid"  version="0.1"  >
<UnstructuredGrid>
<Piece  NumberOfPoints="11902" NumberOfCells="23402">
<Points>
<DataArray  type="Float64"  NumberOfComponents="3"  format="ascii">-5 -5 0  5 -5 0  5 5 0  -5 5 0  1.254478415282488 0.001355116686200155 0  -4.9 -5 0  -4.8 -5 0  -4.7 -5 0  -4.6 -5 0  -4.5 -5 0  -4.4 -5 0  -4.3 -5 0  -4.2 -5 0  -4.1 -5 0  -4 -5 0  -3.9 -5 0  -3.8 -5 0  -3.7 -5 0  -3.6 -5 0  -3.5 -5 0  -3.4 -5 0  -3.3 -5 0  -3.2 -5 0  -3.1 -5 0  -3 -5 0  -2.9 -5 0  -2.8 -5 0  -2.7 -5 0  -2.6 -5 0  -2.5 -5 0  -2.4 -5 0  -2.3 -5 0  -2.2 -5 0  -2.1 -5 0  -2 -5 0  -1.9 -5 0  -1.8 -5 0  -1.7 -5 0  -1.6 -5 0  -1.5 -5 0  -1.4 -5 0  -1.3 -5 0  -1.2 -5 0  -1.1 -5 0  -1 -5 0  -0.9000000000000004 -5 0  -0.7999999999999998 -5 0  -0.7000000000000002 -5 0  -0.5999999999999996 -5 0  -0.5 -5 0  -0.4000000000000004 -5 0  -0.2999999999999998 -5 0  -0.2000000000000002 -5 0  -0.09999999999999964 -5 0  0 -5 0  0.09999999999999964 -5 0  0.2000000000000002 -5 0  0.2999999999999998 -5 0  0.4000000000000004 -5 0  0.5 -5 0  0.5999999999999996 -5 0  0.7000000000000002 -5 0  0.7999999999999998 -5 0  0.9000000000000004 -5 0  1 -5 0  1.1 -5 0  1.2 -5 0  1.3 -5 0  1.4 -5 0  1.5 -5 0  1.6 -5 0  1.7 -5 0  1.8 -5 0  1.9 -5 0  2 -5 0  2.1 -5 0  2.2 -5 0  2.3 -5 0  2.4 -5 0  2.5 -5 0  2.6 -5 0  2.7 -5 0  2.8 -5 0  2.9 -5 0  3 -5 0  3.1 -5 0  3.199999999999999 -5 0  3.300000000000001 -5 0  3.4 -5 0  3.5 -5 0  3.6 -5 0  3.699999999999999 -5 0  3.800000000000001 -5 0  3.9 -5 0  4 -5 0  4.1 -5 0  4.199999999999999 -5 0  4.300000000000001 -5 0  4.4 -5 0  4.5 -5 0  4.6 -5 0  4.699999999999999 -5 0  4.800000000000001 -5 0  4.9 -5 0  5 -4.9 0  5 -4.8 0  5 -4.7 0  5 -4.6 0  5 -4.5 0  5 -4.4 0  5 -4.3 0  5 -4.2 0  5 -4.1 0  5 -4 0  5 -3.9 0  5 -3.8 0  5 -3.7 0  5 -3.6 0  5 -3.5 0  5 -3.4 0  5 -3.3 0  5 -3.2 0  5 -3.1 0  5 -3 0  5 -2.9 0  5 -2.8 0  5 -2.7 0  5 -2.6 0  5 -2.5 0  5 -2.4 0  5 -2.3 0  5 -2.2 0  5 -2.1 0  5 -2 0  5 -1.9 0  5 -1.8 0  5 -1.7 0  5 -1.6 0  5 -1.5 0  5 -1.4 0  5 -1.3 0  5 -1.2 0  5 -1.1 0  5 -1 0  5 -0.9000000000000004 0  5 -0.7999999999999998 0  5 -0.7000000000000002 0  5 -0.5999999999999996 0  5 -0.5 0  5 -0.4000000000000004 0  5 -0.2999999999999998 0  5 -0.2000000000000002 0  5 -0.09999999999999964 0  5 0 0  5 0.09999999999999964 0  5 0.2000000000000002 0  5 0.2999999999999998 0  5 0.4000000000000004 0  5 0.5 0  5 0.5999999999999996 0  5 0.7000000000000002 0  5 0.7999999999999998 0  5 0.9000000000000004 0  5 1 0  5 1.1 0  5 1.2 0  5 1.3 0  5 1.4 0  5 1.5 0  5 1.6 0  5 1.7 0  5 1.8 0  5 1.9 0  5 2 0  5 2.1 0  5 2.2 0  5 2.3 0  5 2.4 0  5 2.5 0  5 2.6 0  5 2.7 0  5 2.8 0  5 2.9 0  5 3 0  5 3.1 0  5 3.199999999999999 0  5 3.300000000000001 0  5 3.4 0  5 3.5 0  5 3.6 0  5 3.699999999999999 0  5 3.800000000000001 0  5 3.9 0  5 4 0  5 4.1 0  5 4.199999999999999 0  5 4.300000000000001 0  5 4.4 0  5 4.5 0  5 4.6 0  5 4.699999999999999 0  5 4.800000000000001 0  5 4.9 0  4.9 5 0  4.8 5 0  4.7 5 0  4.6 5 0  4.5 5 0  4.4 5 0  4.3 5 0  4.2 5 0  4.1 5 0  4 5 0  3.9 5 0  3.8 5 0  3.7 5 0  3.6 5 0  3.5 5 0  3.4 5 0  3.3 5 0  3.2 5 0  3.1 5 0  3 5 0  2.9 5 0  2.8 5 0  2.7 5 0  2.6 5 0  2.5 5 0  2.4 5 0  2.3 5 0  2.2 5 0  2.1 5 0  2 5 0  1.9 5 0  1.8 5 0  1.7 5 0  1.6 5 0  1.5 5 0  1.4 5 0  1.3 5 0  1.2 5 0  1.1 5 0  1 5 0  0.9000000000000004 5 0  0.7999999999999998 5 0  0.7000000000000002 5 0  0.5999999999999996 5 0  0.5 5 0  0.4000000000000004 5 0  0.2999999999999998 5 0  0.2000000000000002 5 0  0.09999999999999964 5 0  0 5 0  -0.09999999999999964 5 0  -0.2000000000000002 5 0  -0.2999999999999998 5 0  -0.4000000000000004 5 0  -0.5 5 0  -0.5999999999999996 5 0  -0.7000000000000002 5 0  -0.7999999999999998 5 0  -0.9000000000000004 5 0  -1 5 0  -1.1 5 0  -1.2 5 0  -1.3 5 0  -1.4 5 0  -1.5 5 0  -1.6 5 0  -1.7 5 0  -1.8 5 0  -1.9 5 0  -2 5 0  -2.1 5 0  -2.2 5 0  -2.3 5 0  -2.4 5 0  -2.5 5 0  -2.6 5 0  -2.7 5 0  -2.8 5 0  -2.9 5 0  -3 5 0  -3.1 5 0  -3.199999999999999 5 0  -3.300000000000001 5 0  -3.4 5 0  -3.5 5 0  -3.6 5 0  -3.699999999999999 5 0  -3.800000000000001 5 0  -3.9 5 0  -4 5 0  -4.1 5 0  -4.199999999999999 5 0  -4.300000000000001 5 0  -4.4 5 0  -4.5 5 0  -4.6 5 0  -4.699999999999999 5 0  -4.800000000000001 5 0  -4.9 5 0  -5 4.9 0  -5 4.8 0  -5 4.7 0  -5 4.6 0  -5 4.5 0  -5 4.4 0  -5 4.3 0  -5 4.2 0  -5 4.1 0  -5 4 0  -5 3.9 0  -5 3.8 0  -5 3.7 0  -5 3.6 0  -5 3.5 0  -5 3.4 0  -5 3.3 0  -5 3.2 0  -5 3.1 0  -5 3 0  -5 2.9 0  -5 2.8 0  -5 2.7 0  -5 2.6 0  -5 2.5 0  -5 2.4 0  -5 2.3 0  -5 2.2 0  -5 2.1 0  -5 2 0  -5 1.9 0  -5 1.8 0  -5 1.7 0  -5 1.6 0  -5 1.5 0  -5 1.4 0  -5 1.3 0  -5 1.2 0  -5 1.1 0  -5 1 0  -5 0.9000000000000004 0  -5 0.7999999999999998 0  -5 0.7000000000000002 0  -5 0.5999999999999996 0  -5 0.5 0  -5 0.4000000000000004 0  -5 0.2999999999999998 0  -5 0.2000000000000002 0  -5 0.09999999999999964 0  -5 0 0  -5 -0.09999999999999964 0  -5 -0.2000000000000002 0  -5 -0.2999999999999998 0  -5 -0.4000000000000004 0  -5 -0.5 0  -5 -0.5999999999999996 0  -5 -0.7000000000000002 0  -5 -0.7999999999999998 0  -5 -0.9000000000000004 0  -5 -1 0  -5 -1.1 0  -5 -1.2 0  -5 -1.3 0  -5 -1.4 0  -5 -1.5 0  -5 -1.6 0  -5 -1.7 0  -5 -1.8 0  -5 -1.9 0  -5 -2 0  -5 -2.1 0  -5 -2.2 0  -5 -2.3 0  -5 -2.4 0  -5 -2.5 0  -5 -2.6 0  -5 -2.7 0  -5 -2.8 0  -5 -2.9 0  -5 -3 0  -5 -3.1 0  -5 -3.199999999999999 0  -5 -3.300000000000001 0  -5 -3.4 0  -5 -3.5 0  -5 -3.6 0  -5 -3.699999999999999 0  -5 -3.800000000000001 0  -5 -3.9 0  -5 -4 0  -5 -4.1 0  -5 -4.199999999999999 0  -5 -4.300000000000001 0  -5 -4.4 0  -5 -4.5 0  -5 -4.6 0  -5 -4.699999999999999 0  -5 -4.800000000000001 0  -5 -4.9 0  1.24662505883653 0.09541839748407481 0  1.225306088755385 0.1928341169899559 0  1.191972484454693 0.2893474002613823 0  1.149188813855146 0.3783825434946425 0  1.091741471507556 0.4690999430593712 0  1.026342529136418 0.5535892481436024 0  0.9484535123328633 0.6334299389877981 0  0.8620656457287836 0.7077932556060579 0  0.770382558897255 0.7731967729848087 0  0.6681553694782483 0.8306024328963358 0  0.5570956137798532 0.882899704840737 0  0.4449613321283614 0.9269113224486561 0  0.3322690477278075 0.9593334734786686 0  0.208534248394654 0.9808715425506263 0  0.08923402832132414 0.9995571234559496 0  -0.0273067190637772 1.002772241683319 0  -0.1450607111625409 0.9892933515714426 0  -0.2712315340389019 0.9705979878141584 0  -0.3901357048567278 0.9461713563808186 0  -0.5009711351356869 0.9099777036141494 0  -0.6099457019361626 0.863560324258091 0  -0.7121030801539112 0.8090520789475324 0  -0.8066707767532016 0.7442936175093213 0  -0.8972278582697019 0.6711858606497445 0  -0.9821433042804468 0.5917140110289282 0  -1.05583221759769 0.5106195810503714 0  -1.117464247645643 0.4249743078174775 0  -1.169892867407442 0.3330313302828105 0  -1.207850040606708 0.2429041883173284 0  -1.232350384808848 0.1485399665880147 0  -1.243777242489311 0.0512553378206286 0  -1.243726225250377 -0.04915669712290115 0  -1.232300582569624 -0.1457357011657082 0  -1.207557829798779 -0.2387987762823036 0  -1.166797533248492 -0.3336203103463891 0  -1.117755843302345 -0.4251104516524055 0  -1.057385623209734 -0.5103876557266221 0  -0.9844872034370802 -0.5906811520495833 0  -0.9001933818117618 -0.6689795568702077 0  -0.8100498457075932 -0.7404283544357061 0  -0.7140941128509269 -0.8014254668140418 0  -0.609600758040967 -0.8545788700497785 0  -0.4965787760078236 -0.9039203412532444 0  -0.3837824256393549 -0.943486750453386 0  -0.2679593436884378 -0.9701834497474627 0  -0.1436575495301147 -0.9889887105891653 0  -0.02796046235773767 -1.001958877782731 0  0.08887073730306499 -0.9949010174026374 0  0.2135617889789932 -0.9776792935547249 0  0.3347035308275128 -0.9577726979906097 0  0.4490829677814993 -0.9255827328017041 0  0.5594236299376663 -0.8820550529186797 0  0.6690623929485142 -0.8306591870226315 0  0.7703644856427531 -0.7743352607040819 0  0.8621779087804946 -0.7087741018598285 0  0.9477050428416923 -0.6334636362236172 0  1.023762709342546 -0.5526947733828274 0  1.092262975891951 -0.4680633186524693 0  1.150066031241727 -0.3786221211639964 0  1.193712820134083 -0.2873343059151699 0  1.225939259600792 -0.1919547037290882 0  1.246921783384949 -0.09512898949574421 0  -2.448571547347718 4.918132441241664 0  -2.448446653890573 -4.910512457510245 0  4.910437251806789 2.447906517497666 0  4.918562102325263 -2.449366960764442 0  2.446178128507335 -4.895747142919554 0  2.440611284565181 4.899509172738927 0  -4.910464145323193 -2.447932765945036 0  -4.910461455180039 2.447936659439261 0  -1.748526041218978 4.911028720550086 0  -1.744312278425107 -4.914469256351297 0  4.920618050986786 1.744080212402189 0  4.909149597996301 -1.747842770027009 0  -4.909443608905721 -1.747576892436988 0  -4.91026601027411 1.74732161721204 0  1.745799566008631 4.904886189003618 0  1.747213827404919 -4.893032406606197 0  -1.148834889446699 4.908815369308462 0  -1.129692034728544 -4.916731179335903 0  -4.909159433259351 -1.1479034385103 0  -4.908977720038687 1.1477038084432 0  1.143829956307444 -4.91291512182559 0  1.148844811854475 4.908802081858956 0  4.909299327830493 1.146178742176458 0  4.920134743449722 -1.151963501094944 0  -0.5466655032881564 -4.910005470541008 0  -0.5464484323023379 4.918692114427905 0  -4.907890527400914 -0.5486949570557891 0  -4.907914500120999 0.5472526548351838 0  4.907209358285861 -0.5490131173801081 0  4.918872012328513 0.5457722519379967 0  0.5424474891024627 -4.896879661943524 0  0.5511770545266631 4.9155139759491 0  -4.91188780651219 -3.048289043407706 0  4.918459173446805 3.046305509768569 0  4.911395539592615 -3.048264692796488 0  -4.912735644621624 3.045380649101275 0  3.055296598649192 -4.917382598712002 0  -3.048627156006978 -4.911318137071469 0  3.052194515437718 4.913396060347694 0  -3.048072804996834 4.912207981682698 0  -4.906998074046728 -0.04990642804399863 0  0.04511957967566255 -4.91195546537848 0  0.04956722798215404 4.918984856410906 0  4.914056741062536 -0.05128856319589141 0  3.545616001964966 -4.919026702840306 0  -3.548896211045136 4
[...]
<PointData  Vectors="f_4466"> 
<DataArray  type="Float64"  Name="f_4466"  NumberOfComponents="3" format="ascii">-7.6039352523289458e-41 -1.1330842574179912e-40 0.0000000000000000e+00  8.7376310612901236e-41 -1.1424721983685001e-40 0.0000000000000000e+00  -1.7877526420188986e-40 -1.7421181343506234e-40 0.0000000000000000e+00  -1.8821288097398664e-40 1.9555255433625469e-40 0.0000000000000000e+00  1.6404436163497561e+01 1.9772255344601619e-01 0.0000000000000000e+00  2.0360802010133694e-40 2.5350705164284153e-40 0.0000000000000000e+00  8.6933845696835846e-40 8.3153168701627819e-40 0.0000000000000000e+00  -2.3784957781957640e-39 -2.4486653827965613e-39 0.0000000000000000e+00  1.6147817654670390e-38 1.8777357476912354e-38 0.0000000000000000e+00  -5.9828553419105333e-38 -6.8655825391795443e-38 0.0000000000000000e+00  2.2178113236676619e-37 2.9061513468831853e-37 0.0000000000000000e+00  -8.8243239018699807e-37 -1.2004073383838008e-36 0.0000000000000000e+00  4.1902064401272786e-36 5.7303823533400540e-36 0.0000000000000000e+00  -2.1600437873296083e-35 -2.8094634435835991e-35 0.0000000000000000e+00  9.6212102924543784e-35 1.2397929158352968e-34 0.0000000000000000e+00  -2.0962140245627517e-34 -2.4951269879419896e-34 0.0000000000000000e+00  3.7156522878142497e-34 3.9251747596281221e-34 0.0000000000000000e+00  1.7521916472616419e-33 1.9486436004408373e-33 0.0000000000000000e+00  -7.0478145624597967e-33 -8.9465628388021657e-33 0.0000000000000000e+00  1.6435067342729864e-32 2.4549234254999526e-32 0.0000000000000000e+00  -1.0425428020574120e-31 -1.4683115425239058e-31 0.0000000000000000e+00  2.8680548645770267e-31 4.0440588975899026e-31 0.0000000000000000e+00  2.2618235073272198e-31 2.3871817037327559e-31 0.0000000000000000e+00  -1.7819268287239988e-30 -2.0822480576113238e-30 0.0000000000000000e+00  -4.2810781963615285e-31 -1.1028577702209692e-30 0.0000000000000000e+00  -4.0976511568742006e-31 -2.1220966266003784e-30 0.0000000000000000e+00  3.3994465731452268e-30 7.2754326670625805e-30 0.0000000000000000e+00  -7.2964895068655477e-30 -2.7321686312038122e-29 0.0000000000000000e+00  2.7978460852991233e-29 7.7726400737045690e-29 0.0000000000000000e+00  1.4783565445997271e-29 4.7309106947647787e-29 0.0000000000000000e+00  -1.3844460624535089e-28 -3.7395846169873677e-28 0.0000000000000000e+00  -6.1438480443152177e-29 -1.6399211527269538e-28 0.0000000000000000e+00  -9.2177661883963870e-29 -2.8578465508718154e-28 0.0000000000000000e+00  1.3389872131093468e-28 4.0804308417444683e-28 0.0000000000000000e+00  3.3157344153231495e-28 1.1750562476075905e-27 0.0000000000000000e+00  8.2066536093644414e-29 5.0292504039195185e-29 0.0000000000000000e+00  1.7277333715097674e-28 4.1863321450673505e-28 0.0000000000000000e+00  -2.9358610211099515e-29 -1.6579541950037252e-28 0.0000000000000000e+00  -4.0167326767409066e-28 -1.1909287174823497e-27 0.0000000000000000e+00  -3.9732626342931029e-28 -1.1771975204405953e-27 0.0000000000000000e+00  -7.7649523168903170e-29 -3.1548807481522859e-28 0.0000000000000000e+00  2.6230034888473557e-28 9.2228671803817600e-28 0.0000000000000000e+00  1.7671141665597489e-28 4.8970100656687694e-28 0.0000000000000000e+00  -1.0914389850698382e-29 -2.8017179612379092e-28 0.0000000000000000e+00  9.7018588820703114e-29 1.8636865702194541e-28 0.0000000000000000e+00  -2.4609658143653422e-28 1.0172371679378395e-27 0.0000000000000000e+00  -1.7263530234795702e-28 1.3042859495217552e-27 0.0000000000000000e+00  1.8713788630266932e-28 -7.6833582970046691e-28 0.0000000000000000e+00  -1.4175731845582245e-28 3.6890712591818076e-27 0.0000000000000000e+00  -2.6394878264854079e-28 7.2512849336667680e-30 0.0000000000000000e+00  -4.6069027697991669e-28 -3.1285934860031692e-27 0.0000000000000000e+00  -5.7573110694627792e-28 -1.7629217278206741e-27 0.0000000000000000e+00  -3.9112591709538542e-28 -2.7882490223815486e-27 0.0000000000000000e+00  1.0098251793210356e-28 -7.1463192294465265e-27 0.0000000000000000e+00  2.2870335265853172e-28 -8.1621893752822798e-27 0.0000000000000000e+00  -4.2735023708005859e-29 -1.3690172271225194e-27 0.0000000000000000e+00  -1.0434636214750244e-28 -4.4065630190930146e-27 0.0000000000000000e+00  -1.7363064515051566e-28 -1.5744809432239553e-27 0.0000000000000000e+00  -5.1157603383172249e-29 -2.8009376765456161e-27 0.0000000000000000e+00  -1.1320999111825049e-28 1.5199520522407781e-27 0.0000000000000000e+00  9.8275508217574530e-29 -3.5825508974482617e-27 0.0000000000000000e+00  2.4220988937197142e-28 -3.1759867539949050e-27 0.0000000000000000e+00  -2.6205483574803701e-29 9.5566873746205205e-28 0.0000000000000000e+00  -3.2043897575165083e-28 5.4438678690324285e-27 0.0000000000000000e+00  -1.9850361657304549e-28 2.1198991066463825e-27 0.0000000000000000e+00  -2.0058958394185620e-28 8.8496982701875335e-28 0.0000000000000000e+00  -4.0111976210105517e-28 2.9147216854845518e-27 0.0000000000000000e+00  -2.2956416739766482e-28 1.5113417823417757e-27 0.0000000000000000e+00  2.5514333360701389e-28 -1.9633590887243353e-27 0.0000000000000000e+00  1.9919032942068555e-28 -8.2634807085762590e-28 0.0000000000000000e+00  1.5273359969110643e-29 -2.2231117473527295e-29 0.0000000000000000e+00  1.8169561103220832e-28 -4.5805010777657090e-28 0.0000000000000000e+00  1.1518987758937196e-28 -4.4256652565713540e-28 0.0000000000000000e+00  -1.1499928323611716e-28 4.4516033442999628e-28 0.0000000000000000e+00  -4.4349748223833900e-29 2.4912908892986247e-28 0.0000000000000000e+00  -3.0653775777125923e-29 1.1582091491153123e-28 0.0000000000000000e+00  2.8701942026090045e-29 -1.2151789929349260e-28 0.0000000000000000e+00  1.5316181581360936e-29 -4.1240647838959981e-29 0.0000000000000000e+00  3.4251179325279089e-29 -9.3535564463753626e-29 0.0000000000000000e+00  -1.0288369181514125e-29 1.9090437341273151e-29 0.0000000000000000e+00  -4.3652355815996735e-29 1.0720738279114108e-28 0.0000000000000000e+00  6.9958067471774865e-30 -1.6247371995384445e-29 0.0000000000000000e+00  2.8503264832699248e-30 -7.0978062836895542e-30 0.0000000000000000e+00  -1.0827738604047761e-29 2.0469066042125412e-29 0.0000000000000000e+00  -1.2940597063594304e-30 1.8360601565764810e-30 0.0000000000000000e+00  1.4236707886154286e-30 -2.3207936618923352e-30 0.0000000000000000e+00  -6.4779472673590443e-31 1.0189583857992606e-30 0.0000000000000000e+00  1.1321531077503340e-31 -1.7714647557835305e-31 0.0000000000000000e+00  -1.1168751240259109e-32 1.7824476930566794e-32 0.0000000000000000e+00  -4.2933450731833314e-33 5.4044233597771232e-33 0.0000000000000000e+00  6.8195079945777200e-33 -8.1603177094150344e-33 0.0000000000000000e+00  -3.0953660328105914e-34 4.7512487779058542e-34 0.0000000000000000e+00  -1.5518984890051372e-34 1.4061477105119508e-34 0.0000000000000000e+00  -4.9791618574698166e-36 1.8390817521374047e-35 0.0000000000000000e+00  -1.6462334700286562e-36 1.2977784993165268e-36 0.0000000000000000e+00  2.4036530155410574e-36 -2.6008265641641911e-36 0.0000000000000000e+00  -1.7786989723014271e-36 1.8649498084784667e-36 0.0000000000000000e+00  5.4046513446567990e-37 -6.1105048968225702e-37 0.0000000000000000e+00  -2.5436725485633235e-37 2.6884751038494156e-37 0.0000000000000000e+00  8.1332448254792021e-38 -8.2531436888189722e-38 0.0000000000000000e+00  -1.4752085265321919e-38 1.5150827318482080e-38 0.0000000000000000e+00  5.4005822653100935e-39 -5.4275142658469811e-39 0.0000000000000000e+00  -4.4148490832474748e-40 3.7833105268599688e-40 0.0000000000000000e+00  -1.5425203246074927e-40 2.0029313079327247e-40 0.0000000000000000e+00  6.8200400508596654e-42 -3.1277651946053784e-42 0.0000000000000000e+00  3.5502211149872824e-40 -2.9582759908409941e-40 0.0000000000000000e+00  -7.8489351012420382e-40 6.4813985552227042e-40 0.0000000000000000e+00  2.1276105543609848e-39 -2.1282486922943871e-39 0.0000000000000000e+00  3.3392062403702663e-40 7.0891160808900851e-40 0.0000000000000000e+00  -1.5151025853513361e-38 1.1391369576800281e-38 0.0000000000000000e+00  4.4784601081787721e-38 -3.8964012045204913e-38 0.0000000000000000e+00  -3.6867844333166313e-38 4.3888118450083998e-38 0.0000000000000000e+00  -1.8406604716860033e-37 1.1810081054433718e-37 0.0000000000000000e+00  7.8719756318045063e-37 -6.1387288011290558e-37 0.0000000000000000e+00  -1.0129134408742376e-36 9.3069742116162226e-37 0.0000000000000000e+00  -2.1545902763346383e-36 1.2479044174606065e-36 0.0000000000000000e+00  1.1563361869688036e-35 -8.4590683606366188e-36 0.0000000000000000e+00  -1.7683737986436422e-35 1.4346776120980028e-35 0.0000000000000000e+00  -2.7282849628566854e-35 1.6070657631869486e-35 0.0000000000000000e+00  1.6982139271960454e-34 -1.1934164693002306e-34 0.0000000000000000e+00  -2.2096330807763229e-34 1.6597047530720080e-34 0.0000000000000000e+00  -4.7019988777202084e-34 3.0201071122402476e-34 0.0000000000000000e+00  2.2571182205667334e-33 -1.5311679783519991e-33 0.0000000000000000e+00  -1.7410993631766792e-33 1.2105759727548142e-33 0.0000000000000000e+00  -9.0527362013252847e-33 5.9188114594601374e-33 0.0000000000000000e+00  2.5029051432893889e-32 -1.6118710241504763e-32 0.0000000000000000e+00  7.2630908875077996e-33 -5.2870225432625231e-33 0.0000000000000000e+00  -1.4417749839141547e-31 9.0308471615587572e-32 0.0000000000000000e+00  1.6921740745376017e-31 -9.6426498113954722e-32 0.0000000000000000e+00  5.0510124615957071e-31 -3.1678827383965495e-31 0.0000000000000000e+00  -1.3725959870462275e-30 7.7218681202698134e-31 0.0000000000000000e+00  -9.6837715670779402e-31 6.9030870684071642e-31 0.0000000000000000e+00  7.5749428520685282e-30 -4.1578506924402987e-30 0.0000000000000000e+00  -1.7645965830407415e-30 1.5818129799369200e-32 0.0000000000000000e+00  -3.4122546356671856e-29 1.8337187695448723e-29 0.0000000000000000e+00  2.7238568151161126e-29 -8.4158904857945168e-30 0.0000000000000000e+00  1.4109089573741754e-28 -7.4612684720410516e-29 0.0000000000000000e+00  -1.6150597966706086e-28 4.7267772675043340e-29 0.0000000000000000e+00  -5.9582915893846909e-28 3.0197827760859951e-28 0.0000000000000000e+00  6.6875887456286801e-28 -1.3267486633361684e-28 0.0000000000000000e+00  2.5098378895279730e-27 -1.1570413027998086e-27 0.0000000000000000e+00  -2.1656200634443269e-27 6.8545664702499691e-29 0.0000000000000000e+00  -9.9528623353931054e-27 3.4743426526412428e-27 0.0000000000000000e+00  3.9539938987563111e-27 1.4886292382860236e-27 0.0000000000000000e+00  3.3107302017531788e-26 -7.8664165078322212e-27 0.0000000000000000e+00  1.3780823245561998e-26 -9.2759923276147156e-27 0.0000000000000000e+00  -9.2727689761391162e-26 1.0274028231763904e-26 0.0000000000000000e+00  -1.2109322860072863e-25 1.5613793143763675e-26 0.0000000000000000e+00  2.1148289412498802e-25 -5.8347388074392519e-26 0.0000000000000000e+00  9.9115312681016862e-25 -2.3091826058733067e-25 0.0000000000000000e+00  1.7004735199604801e-24 -3.7700522058986554e-25 0.0000000000000000e+00  1.9624625246687677e-24 -3.8353642570137860e-25 0.0000000000000000e+00  1.8130356338328475e-24 -2.1548831744037003e-25 0.0000000000000000e+00  1.7748375396300108e-24 2.8157729382536649e-26 0.0000000000000000e+00  1.9173478421432111e-24 2.3830262869053819e-25 0.0000000000000000e+00  1.8202795983655990e-24 3.1167379326774732e-25 0.0000000000000000e+00  1.2301036708798878e-24 2.3042844752477785e-25 0.0000000000000000e+00  4.0427314338882407e-25 7.3777502818945477e-26 0.0000000000000000e+00  -1.1585957985761952e-25 -3.0623889657625742e-26 0.0000000000000000e+00  -1.8521806545732545e-25 -3.8854958922819053e-26 0.0000000000000000e+00  -3.0974122752106884e-26 2.0455949535779616e-27 0.0000000000000000e+00  5.6665218958463190e-26 2.2222690241163662e-26 0.0000000000000000e+00  3.4466216815028975e-26 1.1560034048233549e-26 0.0000000000000000e+00  -3.6180767206283104e-27 -1.5551971057862952e-27 0.0000000000000000e+00  -8.7807458221464714e-27 -2.9436437917929104e-27 0.0000000000000000e+00  -3.4025679975486413e-28 1.1220441094339951e-28 0.0000000000000000e+00  2.2159668929291218e-27 8.6425658893408453e-28 0.0000000000000000e+00  1.8283828218960969e-28 1.4326661409341898e-29 0.0000000000000000e+00  -5.4433729084362807e-28 -2.2995017164294279e-28 0.0000000000000000e+00  -3.0943164132793427e-29 2.4867366336030783e-30 0.0000000000000000e+00  1.2831625443110760e-28 5.7006235478008024e-29 0.0000000000000000e+00  -5.4444373093835241e-30 -7.0840925618276052e-30 0.0000000000000000e+00  -2.8198702896261966e-29 -1.2943739596250352e-29 0.0000000000000000e+00  4.7086082572638867e-30 3.4422119222813663e-30 0.0000000000000000e+00  5.1257530313433886e-30 2.3447992716758310e-30 0.0000000000000000e+00  -1.9845810266763987e-30 -1.2662406995814433e-30 0.0000000000000000e+00  -6.8923447126029727e-31 -2.8114271017894955e-31 0.0000000000000000e+00  5.6761468671693475e-31 3.4785435876258394e-31 0.0000000000000000e+00  -2.0185258205541503e-33 -2.5989062822564882e-32 0.0000000000000000e+00  -1.1609406732955136e-31 -6.9729996992481133e-32 0.0000000000000000e+00  3.1663370408205129e-32 2.4352437583503824e-32 0.0000000000000000e+00  1.4964244129470306e-32 8.2043407683886951e-33 0.0000000000000000e+00  -1.1108294097767761e-32 -7.6916618160797822e-33 0.0000000000000000e+00  6.1337575982673612e-34 7.1684419899942783e-34 0.0000000000000000e+00  1.8260877929817479e-33 1.2341456451420763e-33 0.0000000000000000e+00  -7.7943851508950740e-34 -5.8240421255301440e-34 0.0000000000000000e+00  -5.7950006734631517e-35 -3.0974222566729640e-35 0.0000000000000000e+00  1.6608815939409670e-34 1.2328383449537308e-34 0.0000000000000000e+00  -5.4404267657264541e-35 -4.1644975601588819e-35 0.0000000000000000e+00  -6.9836383307486621e-36 -5.7276015801721039e-36 0.0000000000000000e+00  1.1913574452739120e-35 9.5000800019034309e-36 0.0000000000000000e+00  -3.7694165467365742e-36 -2.9099430491913505e-36 0.0000000000000000e+00  -3.8432490893009135e-37 -4.1598375045027705e-37 0.0000000000000000e+00  7.7752761412291558e-37 6.6954465665691961e-37 0.0000000000000000e+00  -2.7787574118027856e-37 -2.2221171180742933e-37 0.0000000000000000e+00  1.0536244006563372e-39 -1.1362753487485175e-38 0.0000000000000000e+00  4.2779040785784343e-38 4.1215940411647930e-38 0.0000000000000000e+00  -2.0351622352751568e-38 -1.7672383443667588e-38 0.0000000000000000e+00  2.7548988955720966e-39 1.4961801583736477e-39 0.0000000000000000e+00  1.7743948597703402e-39 2.0724841846468963e-39 0.0000000000000000e+00  -1.2584636443317310e-39 -1.2312845151042237e-39 0.0000000000000000e+00  3.6182822387248149e-40 3.0766716447632137e-40 0.0000000000000000e+00  5.6833977950336042e-41 1.0179765708949505e-40 0.0000000000000000e+00  3.0337933942353918e-40 2.8261033502778521e-40 0.0000000000000000e+00  -5.6518704211723413e-40 -7.0872142895367905e-40 0.0000000000000000e+00  1.2321176197721074e-39 1.5195002555397918e-39 0.0000000000000000e+00  -7.4600480579452920e-39 -9.9663223573697321e-39 0.0000000000000000e+00  7.0426967574156214e-38 7.7515339138579927e-38 0.0000000000000000e+00  -2.0504408016360278e-37 -2.0608877163930673e-37 0.0000000000000000e+00  2.7853433531240622e-37 3.0056164074865705e-37 0.0000000000000000e+00  -3.3328779219071971e-36 -3.9879466367973013e-36 0.0000000000000000e+00  8.8360119968567750e-36 1.2285900680810670e-35 0.0000000000000000e+00  -3.1766729165088809e-35 -4.9488911923545009e-35 0.0000000000000000e+00  6.5934818723764908e-35 9.9304135601054904e-35 0.0000000000000000e+00  -4.5919068441192656e-35 -1.0783882761391476e-34 0.0000000000000000e+00  4.6474951444400899e-34 7.2843449115627917e-34 0.0000000000000000e+00  8.1637646820369035e-34 1.0355129365554573e-33 0.0000000000000000e+00  -5.3000095881988748e-34 3.7058421709748022e-34 0.0000000000000000e+00  3.4787731655432199e-32 4.6027773534532039e-32 0.0000000000000000e+00  -1.2131029602811990e-31 -1.6545966113293049e-31 0.0000000000000000e+00  -5.5382580128534556e-31 -7.7951867035264881e-31 0.0000000000000000e+00  1.3964473146132521e-30 1.9991929730362041e-30 0.0000000000000000e+00  -1.1002425141085477e-30 -1.7125109011926929e-30 0.0000000000000000e+00  -3.1642387214100252e-30 -6.2532956859876002e-30 0.0000000000000000e+00  1.0744899540468513e-29 2.5144542471250876e-29 0.0000000000000000e+00  1.2224251606705609e-29 2.8870241894004270e-29 0.0000000000000000e+00  -6.8544983718210621e-29 -1.7470856855936995e-28 0.0000000000000000e+00  1.9158210884699637e-29 4.3083532075650893e-29 0.0000000000000000e+00  8.7805948896400916e-29 1.8686154999318956e-28 0.0000000000000000e+00  1.3577440198734710e-29 6.7942259477168426e-29 0.0000000000000000e+00  1.4361722255914427e-28 5.1485801425685131e-28 0.0000000000000000e+00  7.0947465379015779e-29 2.2358718462744361e-28 0.0000000000000000e+00  -1.2269345112196271e-28 -3.4997100864471795e-28 0.0000000000000000e+00  -3.3980916028158735e-28 -1.2528513545475499e-27 0.0000000000000000e+00  2.0450331707597728e-28 7.6308781582481296e-28 0.0000000000000000e+00  3.0811608301644407e-28 1.0254786423847931e-27 0.0000000000000000e+00  2.8196381052202440e-28 1.3056294730909470e-27 0.0000000000000000e+00  2.7597530701024160e-28 1.3079530159211063e-27 0.0000000000000000e+00  -3.5033722620085693e-28 -1.4048356454970721e-27 0.0000000000000000e+00  4.6811520518670479e-30 3.7157085604856176e-28 0.0000000000000000e+00  6.8048409008288779e-29 3.9229080325443977e-28 0.0000000000000000e+00  -1.4408802880687299e-28 -8.3780071653636350e-28 0.0000000000000000e+00  -9.1185398113525214e-29 -8.8787633844768402e-28 0.0000000000000000e+00  -2.9326727661558826e-28 -3.4665181752091738e-27 0.0000000000000000e+00  -2.9143851010779694e-28 -2.7554067257227958e-27 0.0000000000000000e+00  -1.8469799445640471e-28 -4.1332822472048248e-28 0.0000000000000000e+00  -1.4367843313964664e-28 -1.6017372643716562e-27 0.0000000000000000e+00  9.5491713632938063e-29 -2.2633402470515392e-27 0.0000000000000000e+00  -2.2065557689355144e-28 -5.3617359802356170e-28 0.0000000000000000e+00  -2.0766664188242398e-28 -6.8293246875233986e-28 0.0000000000000000e+00  1.3491652576888907e-28 -2.1071616006630088e-27 0.0000000000000000e+00  1.4912417021501453e-29 -1.3340841945233048e-27 0.0000000000000000e+00  2.4105589352274470e-28 -2.2928516576609477e-27 0.0000000000000000e+00  -2.9922065006309573e-28 6.9162181079024736e-28 0.0000000000000000e+00  -2.8875912803951457e-28 6.5682505614682345e-28 0.0000000000000000e+00  3.8564228708152999e-28 -2.1502306086989005e-27 0.0000000000000000e+00  1.6964581428743039e-28 -9.8127467667904489e-28 0.0000000000000000e+00  3.4097845669163754e-28 -2.0640147202285312e-27 0.0000000000000000e+00  8.9232321928873218e-29 -1.7772668565073141e-28 0.0000000000000000e+00  7.1022747640987023e-29 -4.4423973087872828e-28 0.0000000000000000e+00  3.5168470569765944e-28 -1.8224760315884271e-27 0.0000000000000000e+00  1.8897348157822954e-28 -1.0828441319399146e-27 0.0000000000000000e+00  3.6474101814624867e-28 -2.2714189443229706e-27 0.0000000000000000e+00  5.3781301735305966e-28 -3.4093977563305884e-27 0.0000000000000000e+00  5.9004560263623089e-28 -3.7966965999368011e-27 0.0000000000000000e+00  1.4908839559367904e-28 -8.0903878069352565e-28 0.0000000000000000e+00  -2.5043257016721570e-28 1.6369123969706139e-27 0.0000000000000000e+00  -3.4934987534468882e-28 1.8801435358491008e-27 0.0000000000000000e+00  -3.7836352478533644e-28 1.8454488501426646e-27 0.0000000000000000e+00  -6.9095408210523429e-29 3.2244821834527709e-28 0.0000000000000000e+00  1.0490873083786527e-28 -4.8666799791574744e-28 0.0000000000000000e+00  4.8215884411874157e-29 -2.3508631649469648e-28 0.0000000000000000e+00  2.2443216093469798e-28 -9.3783298775113569e-28 0.0000000000000000e+00  9.3127334964791822e-29 -3.8263981189364645e-28 0.0000000000000000e+00  -9.5090486749592846e-29 3.6306837560667687e-28 0.0000000000000000e+00  2.3339444585469176e-30 -2.0633483007750739e-29 0.0000000000000000e+00  1.2711728895279212e-29 -3.5956568634201667e-29 0.0000000000000000e+00  2.3036164382266839e-29 -6.9134759255100958e-29 0.0000000000000000e+00  -6.0185000443872432e-30 1.5923528188590066e-29 0.0000000000000000e+00  -9.6709165507948966e-30 2.4685235945931884e-29 0.0000000000000000e+00  2.5477754