<?xml version="1.0"?>
<VTKFile type="UnstructuredGrid"  version="0.1"  >
<UnstructuredGrid>
<Piece  NumberOfPoints="11902" NumberOfCells="23402">
<Points>
<DataArray  type="Float64"  NumberOfComponents="3"  format="ascii">-5 -5 0  5 -5 0  5 5 0  -5 5 0  1.081589080587751 0.0005410072067761849 0  -4.9 -5 0  -4.8 -5 0  -4.7 -5 0  -4.6 -5 0  -4.5 -5 0  -4.4 -5 0  -4.3 -5 0  -4.2 -5 0  -4.1 -5 0  -4 -5 0  -3.9 -5 0  -3.8 -5 0  -3.7 -5 0  -3.6 -5 0  -3.5 -5 0  -3.4 -5 0  -3.3 -5 0  -3.2 -5 0  -3.1 -5 0  -3 -5 0  -2.9 -5 0  -2.8 -5 0  -2.7 -5 0  -2.6 -5 0  -2.5 -5 0  -2.4 -5 0  -2.3 -5 0  -2.2 -5 0  -2.1 -5 0  -2 -5 0  -1.9 -5 0  -1.8 -5 0  -1.7 -5 0  -1.6 -5 0  -1.5 -5 0  -1.4 -5 0  -1.3 -5 0  -1.2 -5 0  -1.1 -5 0  -1 -5 0  -0.9000000000000004 -5 0  -0.7999999999999998 -5 0  -0.7000000000000002 -5 0  -0.5999999999999996 -5 0  -0.5 -5 0  -0.4000000000000004 -5 0  -0.2999999999999998 -5 0  -0.2000000000000002 -5 0  -0.09999999999999964 -5 0  0 -5 0  0.09999999999999964 -5 0  0.2000000000000002 -5 0  0.2999999999999998 -5 0  0.4000000000000004 -5 0  0.5 -5 0  0.5999999999999996 -5 0  0.7000000000000002 -5 0  0.7999999999999998 -5 0  0.9000000000000004 -5 0  1 -5 0  1.1 -5 0  1.2 -5 0  1.3 -5 0  1.4 -5 0  1.5 -5 0  1.6 -5 0  1.7 -5 0  1.8 -5 0  1.9 -5 0  2 -5 0  2.1 -5 0  2.2 -5 0  2.3 -5 0  2.4 -5 0  2.5 -5 0  2.6 -5 0  2.7 -5 0  2.8 -5 0  2.9 -5 0  3 -5 0  3.1 -5 0  3.199999999999999 -5 0  3.300000000000001 -5 0  3.4 -5 0  3.5 -5 0  3.6 -5 0  3.699999999999999 -5 0  3.800000000000001 -5 0  3.9 -5 0  4 -5 0  4.1 -5 0  4.199999999999999 -5 0  4.300000000000001 -5 0  4.4 -5 0  4.5 -5 0  4.6 -5 0  4.699999999999999 -5 0  4.800000000000001 -5 0  4.9 -5 0  5 -4.9 0  5 -4.8 0  5 -4.7 0  5 -4.6 0  5 -4.5 0  5 -4.4 0  5 -4.3 0  5 -4.2 0  5 -4.1 0  5 -4 0  5 -3.9 0  5 -3.8 0  5 -3.7 0  5 -3.6 0  5 -3.5 0  5 -3.4 0  5 -3.3 0  5 -3.2 0  5 -3.1 0  5 -3 0  5 -2.9 0  5 -2.8 0  5 -2.7 0  5 -2.6 0  5 -2.5 0  5 -2.4 0  5 -2.3 0  5 -2.2 0  5 -2.1 0  5 -2 0  5 -1.9 0  5 -1.8 0  5 -1.7 0  5 -1.6 0  5 -1.5 0  5 -1.4 0  5 -1.3 0  5 -1.2 0  5 -1.1 0  5 -1 0  5 -0.9000000000000004 0  5 -0.7999999999999998 0  5 -0.7000000000000002 0  5 -0.5999999999999996 0  5 -0.5 0  5 -0.4000000000000004 0  5 -0.2999999999999998 0  5 -0.2000000000000002 0  5 -0.09999999999999964 0  5 0 0  5 0.09999999999999964 0  5 0.2000000000000002 0  5 0.2999999999999998 0  5 0.4000000000000004 0  5 0.5 0  5 0.5999999999999996 0  5 0.7000000000000002 0  5 0.7999999999999998 0  5 0.9000000000000004 0  5 1 0  5 1.1 0  5 1.2 0  5 1.3 0  5 1.4 0  5 1.5 0  5 1.6 0  5 1.7 0  5 1.8 0  5 1.9 0  5 2 0  5 2.1 0  5 2.2 0  5 2.3 0  5 2.4 0  5 2.5 0  5 2.6 0  5 2.7 0  5 2.8 0  5 2.9 0  5 3 0  5 3.1 0  5 3.199999999999999 0  5 3.300000000000001 0  5 3.4 0  5 3.5 0  5 3.6 0  5 3.699999999999999 0  5 3.800000000000001 0  5 3.9 0  5 4 0  5 4.1 0  5 4.199999999999999 0  5 4.300000000000001 0  5 4.4 0  5 4.5 0  5 4.6 0  5 4.699999999999999 0  5 4.800000000000001 0  5 4.9 0  4.9 5 0  4.8 5 0  4.7 5 0  4.6 5 0  4.5 5 0  4.4 5 0  4.3 5 0  4.2 5 0  4.1 5 0  4 5 0  3.9 5 0  3.8 5 0  3.7 5 0  3.6 5 0  3.5 5 0  3.4 5 0  3.3 5 0  3.2 5 0  3.1 5 0  3 5 0  2.9 5 0  2.8 5 0  2.7 5 0  2.6 5 0  2.5 5 0  2.4 5 0  2.3 5 0  2.2 5 0  2.1 5 0  2 5 0  1.9 5 0  1.8 5 0  1.7 5 0  1.6 5 0  1.5 5 0  1.4 5 0  1.3 5 0  1.2 5 0  1.1 5 0  1 5 0  0.9000000000000004 5 0  0.7999999999999998 5 0  0.7000000000000002 5 0  0.5999999999999996 5 0  0.5 5 0  0.4000000000000004 5 0  0.2999999999999998 5 0  0.2000000000000002 5 0  0.09999999999999964 5 0  0 5 0  -0.09999999999999964 5 0  -0.2000000000000002 5 0  -0.2999999999999998 5 0  -0.4000000000000004 5 0  -0.5 5 0  -0.5999999999999996 5 0  -0.7000000000000002 5 0  -0.7999999999999998 5 0  -0.9000000000000004 5 0  -1 5 0  -1.1 5 0  -1.2 5 0  -1.3 5 0  -1.4 5 0  -1.5 5 0  -1.6 5 0  -1.7 5 0  -1.8 5 0  -1.9 5 0  -2 5 0  -2.1 5 0  -2.2 5 0  -2.3 5 0  -2.4 5 0  -2.5 5 0  -2.6 5 0  -2.7 5 0  -2.8 5 0  -2.9 5 0  -3 5 0  -3.1 5 0  -3.199999999999999 5 0  -3.300000000000001 5 0  -3.4 5 0  -3.5 5 0  -3.6 5 0  -3.699999999999999 5 0  -3.800000000000001 5 0  -3.9 5 0  -4 5 0  -4.1 5 0  -4.199999999999999 5 0  -4.300000000000001 5 0  -4.4 5 0  -4.5 5 0  -4.6 5 0  -4.699999999999999 5 0  -4.800000000000001 5 0  -4.9 5 0  -5 4.9 0  -5 4.8 0  -5 4.7 0  -5 4.6 0  -5 4.5 0  -5 4.4 0  -5 4.3 0  -5 4.2 0  -5 4.1 0  -5 4 0  -5 3.9 0  -5 3.8 0  -5 3.7 0  -5 3.6 0  -5 3.5 0  -5 3.4 0  -5 3.3 0  -5 3.2 0  -5 3.1 0  -5 3 0  -5 2.9 0  -5 2.8 0  -5 2.7 0  -5 2.6 0  -5 2.5 0  -5 2.4 0  -5 2.3 0  -5 2.2 0  -5 2.1 0  -5 2 0  -5 1.9 0  -5 1.8 0  -5 1.7 0  -5 1.6 0  -5 1.5 0  -5 1.4 0  -5 1.3 0  -5 1.2 0  -5 1.1 0  -5 1 0  -5 0.9000000000000004 0  -5 0.7999999999999998 0  -5 0.7000000000000002 0  -5 0.5999999999999996 0  -5 0.5 0  -5 0.4000000000000004 0  -5 0.2999999999999998 0  -5 0.2000000000000002 0  -5 0.09999999999999964 0  -5 0 0  -5 -0.09999999999999964 0  -5 -0.2000000000000002 0  -5 -0.2999999999999998 0  -5 -0.4000000000000004 0  -5 -0.5 0  -5 -0.5999999999999996 0  -5 -0.7000000000000002 0  -5 -0.7999999999999998 0  -5 -0.9000000000000004 0  -5 -1 0  -5 -1.1 0  -5 -1.2 0  -5 -1.3 0  -5 -1.4 0  -5 -1.5 0  -5 -1.6 0  -5 -1.7 0  -5 -1.8 0  -5 -1.9 0  -5 -2 0  -5 -2.1 0  -5 -2.2 0  -5 -2.3 0  -5 -2.4 0  -5 -2.5 0  -5 -2.6 0  -5 -2.7 0  -5 -2.8 0  -5 -2.9 0  -5 -3 0  -5 -3.1 0  -5 -3.199999999999999 0  -5 -3.300000000000001 0  -5 -3.4 0  -5 -3.5 0  -5 -3.6 0  -5 -3.699999999999999 0  -5 -3.800000000000001 0  -5 -3.9 0  -5 -4 0  -5 -4.1 0  -5 -4.199999999999999 0  -5 -4.300000000000001 0  -5 -4.4 0  -5 -4.5 0  -5 -4.6 0  -5 -4.699999999999999 0  -5 -4.800000000000001 0  -5 -4.9 0  1.076318463455974 0.1003777645342095 0  1.060096461661735 0.1996756891541193 0  1.032809934124808 0.2972656079213454 0  0.99624610494418 0.3910152542500169 0  0.9495591461136957 0.4818289014123763 0  0.8937719446152655 0.5675369436728573 0  0.8286571452034248 0.6473510690245671 0  0.7547975266078573 0.7205811022877083 0  0.6740649092665613 0.7869497918717184 0  0.5866421514840032 0.8457331129890554 0  0.4930447799248592 0.8957291360249166 0  0.3944587615255259 0.936957443904143 0  0.2928518909115929 0.9692151167107929 0  0.1876842132411437 0.9912801490205854 0  0.08124829558618646 1.003940509759102 0  -0.02629916955579279 1.006495077834653 0  -0.1335943107801789 0.9986976266548774 0  -0.2396546290002374 0.9816136309761845 0  -0.3433039302604526 0.9546505667935667 0  -0.4434198206733456 0.9179115730304018 0  -0.5389923045404318 0.8724415526713803 0  -0.6293855120703582 0.8179777620111114 0  -0.7135395488206407 0.7555556837684392 0  -0.7906679248452199 0.6857594486557119 0  -0.8601074777582085 0.6084685644427295 0  -0.9206911889577691 0.5253589304870971 0  -0.9726313827226689 0.4374026339187276 0  -1.014470468362857 0.3447010854188857 0  -1.046064465244107 0.2489011670350608 0  -1.067514782603512 0.1506645641104819 0  -1.078394847084956 0.05062961179386343 0  -1.078415379177024 -0.04996009604050652 0  -1.067558081209535 -0.149889989941494 0  -1.047011397092799 -0.2480920863375043 0  -1.014452976769562 -0.3442763272562188 0  -0.9727997426249552 -0.4365872804141236 0  -0.9210341846026729 -0.5246938612176285 0  -0.8605178591090475 -0.6075966496612927 0  -0.7910427585150053 -0.6844376642964828 0  -0.7135865278761535 -0.7540927688616224 0  -0.6290633594244697 -0.8160983340252979 0  -0.5392439514874321 -0.8708737804075619 0  -0.4426548759061371 -0.9163719057054289 0  -0.3424721152221376 -0.9534138127850217 0  -0.2386490902313432 -0.9805937664810526 0  -0.1328006391809946 -0.9979771022018773 0  -0.02575751496531258 -1.006185563763139 0  0.08147189773837132 -1.003334816665732 0  0.1884294299990235 -0.9904455025938866 0  0.2931632394842193 -0.9683090252078743 0  0.3956846621591883 -0.936112908885281 0  0.4934715368112751 -0.89497366744996 0  0.5869511025386098 -0.8450529228881302 0  0.6742674789509612 -0.7871655633407856 0  0.754966141736316 -0.7207945494466567 0  0.8284182064603384 -0.6470197377191178 0  0.8933033682618565 -0.5669596667874626 0  0.9497429884043684 -0.4814643278624081 0  0.9970497654054252 -0.3910599624758206 0  1.033499972136582 -0.2969259484658106 0  1.060150146999597 -0.1993339147023835 0  1.076355749700325 -0.1002160253479934 0  -2.449401960838303 4.919667493054151 0  -2.449350682022276 -4.91218627799875 0  4.912150407104533 2.449112253371145 0  4.920116765697781 -2.450463408686264 0  2.447230066041894 -4.897713718368052 0  2.441628956255124 4.901411568665123 0  -4.912163105732037 -2.449125259540182 0  -4.912164726674543 2.449128921385979 0  -1.749383263807194 4.913237233074045 0  -1.745132103885059 -4.916589004596861 0  4.922781352736263 1.745170783888669 0  4.911619497011015 -1.749093044553184 0  -4.911886107178303 -1.748808463753549 0  -4.91269110558851 1.748540153378422 0  1.746709716808059 4.907259547907731 0  1.748233500874012 -4.895696642254616 0  -1.149516517776033 4.911487851883474 0  -1.130304576765531 -4.919173950089566 0  -4.912215920046769 -1.148916346247141 0  -4.912044336092499 1.1487152654151 0  1.144466944493864 -4.915472389178371 0  1.149518257357753 4.911482538579653 0  4.912381331851033 1.147199518399069 0  4.922842250927286 -1.152866575529529 0  -0.5470202170433424 -4.912906160558952 0  -0.5467688282064791 4.921320885287817 0  -4.911440524877507 -0.5492578636761137 0  -4.911466472326783 0.5478093909139616 0  4.91081886707081 -0.5495868185853172 0  4.922029678173518 0.54626902067667 0  0.5428358846034038 -4.900212062178079 0  0.5515032047111524 4.918247921738955 0  -4.913034270192831 -3.049274932435574 0  4.919529351870783 3.047228160892447 0  4.912555090951159 -3.049266699631593 0  -4.913876732404038 3.04635865436626 0  3.056038048900923 -4.918508397415524 0  -3.049424055010945 -4.912521399892171 0  3.052974670313717 4.914579212363641 0  -3.048865024557079 4.913402095484533 0  -4.910732790582983 -0.04996260172825924 0  0.04514139007913995 -4.914877932260948 0  0.04959174956408265 4.921681382911227 0  4.917539964482541 -0.05134121794656642 0  3.546203947556352 -4.919815247450006 0  -3.54953
[...]
<PointData  Vectors="f_826"> 
<DataArray  type="Float64"  Name="f_826"  NumberOfComponents="3" format="ascii">-1.6426395668932325e-40 -1.6827815627642655e-40 0.0000000000000000e+00  2.1276389261435635e-40 -2.1265806831837264e-40 0.0000000000000000e+00  -2.4981609921176954e-40 -2.5441203520548407e-40 0.0000000000000000e+00  -3.1622497720155482e-40 3.3377026269985277e-40 0.0000000000000000e+00  1.3158180645633896e+01 -6.5033336390319740e-01 0.0000000000000000e+00  3.6483624178440724e-40 3.7383186625009764e-40 0.0000000000000000e+00  8.2153516961493138e-40 9.2565750125144686e-40 0.0000000000000000e+00  -1.8229397286735629e-39 -2.1624649961086661e-39 0.0000000000000000e+00  1.8842794153596069e-38 2.1128907821481667e-38 0.0000000000000000e+00  -6.0706022669488165e-38 -6.5870855259343400e-38 0.0000000000000000e+00  2.3576583983562451e-37 2.5010453682078695e-37 0.0000000000000000e+00  -8.6209488365758938e-37 -9.3004531065101036e-37 0.0000000000000000e+00  5.0532291129451410e-36 6.0850497622730820e-36 0.0000000000000000e+00  -3.0584713225573589e-35 -3.9409835626031721e-35 0.0000000000000000e+00  1.2304194446553503e-34 1.6121914391971507e-34 0.0000000000000000e+00  -2.5848040648036862e-34 -3.5484729760100300e-34 0.0000000000000000e+00  4.9880825644737981e-34 7.1836912582825330e-34 0.0000000000000000e+00  1.8024776906695082e-33 2.6507576336056578e-33 0.0000000000000000e+00  -8.2689331819552891e-33 -1.2161224295767679e-32 0.0000000000000000e+00  2.4341658568056333e-32 3.6278836522158013e-32 0.0000000000000000e+00  -1.3595703790187343e-31 -2.0928537915242367e-31 0.0000000000000000e+00  3.5662549740914935e-31 5.5321204401442377e-31 0.0000000000000000e+00  1.8814089574444810e-31 3.5625568622603001e-31 0.0000000000000000e+00  -1.6087543788341925e-30 -2.8913497421803332e-30 0.0000000000000000e+00  -8.7144538932214298e-31 -1.3569335884858046e-30 0.0000000000000000e+00  -2.3123432094440003e-30 -3.6591947950304776e-30 0.0000000000000000e+00  5.5341847601583654e-30 9.7350257466153677e-30 0.0000000000000000e+00  -1.4241158463985763e-29 -2.2050714870764666e-29 0.0000000000000000e+00  4.6619707375479208e-29 8.0748875358507987e-29 0.0000000000000000e+00  2.8159629450324466e-29 5.2205179185354312e-29 0.0000000000000000e+00  -2.3079198157189982e-28 -4.4541338335182217e-28 0.0000000000000000e+00  -7.5020304473880714e-29 -1.5321114570352146e-28 0.0000000000000000e+00  -1.2289395970510887e-28 -2.4292752293920645e-28 0.0000000000000000e+00  2.2090833468715384e-28 4.5416167956003159e-28 0.0000000000000000e+00  6.7300653732683472e-28 1.4782229375690385e-27 0.0000000000000000e+00  -8.5768077180978447e-29 -1.2428012739912422e-28 0.0000000000000000e+00  1.2885722185696408e-28 3.8968882615454280e-28 0.0000000000000000e+00  -1.1483715511559136e-28 -2.6451068309798557e-28 0.0000000000000000e+00  -4.7496811981572325e-28 -1.3913897193417009e-27 0.0000000000000000e+00  -4.2915112451390381e-28 -1.4027623404902845e-27 0.0000000000000000e+00  -3.7993178437108928e-29 -1.9177168751180817e-28 0.0000000000000000e+00  4.6789449625547461e-28 1.6855912106532684e-27 0.0000000000000000e+00  2.4738316870630741e-28 1.0330742764550711e-27 0.0000000000000000e+00  -6.3996742756520378e-29 -1.9792641574944619e-28 0.0000000000000000e+00  7.5912960202891236e-29 4.2091338572227059e-28 0.0000000000000000e+00  3.6285024023582336e-28 1.1331308151329440e-27 0.0000000000000000e+00  4.5745024481866018e-28 1.8974678811225314e-27 0.0000000000000000e+00  -2.4613143915875322e-28 -1.0655056064912032e-27 0.0000000000000000e+00  9.2459443479802700e-28 6.1306772495239445e-27 0.0000000000000000e+00  1.5320521998186587e-29 -5.1246278185647821e-29 0.0000000000000000e+00  -4.3719917975295688e-28 -5.3527357929513338e-27 0.0000000000000000e+00  -6.3661443887624758e-29 -3.1735274645940551e-27 0.0000000000000000e+00  -1.6264986524403276e-28 -4.5031119819912867e-27 0.0000000000000000e+00  -4.1708854449851327e-28 -1.1092333027344607e-26 0.0000000000000000e+00  -2.3300840970616225e-28 -1.2711475185898095e-26 0.0000000000000000e+00  1.8859879045000852e-29 -2.2138138158835022e-27 0.0000000000000000e+00  1.8461577474171877e-28 -7.0107656305851972e-27 0.0000000000000000e+00  2.2560753050549152e-28 -2.6024711375066955e-27 0.0000000000000000e+00  4.5726274624831018e-28 -4.5772136270071472e-27 0.0000000000000000e+00  -2.5772892058242937e-28 1.9557652695979679e-27 0.0000000000000000e+00  7.8020585921939445e-28 -6.1983072282723159e-27 0.0000000000000000e+00  8.5397113364747244e-28 -5.6151876208971755e-27 0.0000000000000000e+00  -1.9274716289149762e-28 1.0741075896293410e-27 0.0000000000000000e+00  -1.7402377197006500e-27 8.1609784448827793e-27 0.0000000000000000e+00  -7.6231724179040471e-28 3.2341244001699288e-27 0.0000000000000000e+00  -4.0207469263298449e-28 1.9440936882746411e-27 0.0000000000000000e+00  -1.2387225378524878e-27 4.6572123998082762e-27 0.0000000000000000e+00  -7.3341858595316744e-28 2.4574510404474441e-27 0.0000000000000000e+00  8.6648849088793311e-28 -2.7187737187267761e-27 0.0000000000000000e+00  4.2259275259473688e-28 -1.2760264719766132e-27 0.0000000000000000e+00  8.8351947298111682e-29 -2.9888654154211358e-28 0.0000000000000000e+00  3.3439588687967609e-28 -9.8738361562472767e-28 0.0000000000000000e+00  3.0799594175750970e-28 -7.7242888893941433e-28 0.0000000000000000e+00  -2.6081529290483634e-28 6.3358918465394911e-28 0.0000000000000000e+00  -2.2038163804579444e-28 4.8825553500256518e-28 0.0000000000000000e+00  -1.5681639431951332e-28 3.3351085276931648e-28 0.0000000000000000e+00  1.8248718840066102e-29 -4.1474009245654948e-29 0.0000000000000000e+00  1.1345228364558359e-28 -2.3026530934286019e-28 0.0000000000000000e+00  1.6016020667585562e-28 -3.0010373864371234e-28 0.0000000000000000e+00  -4.9959184662043601e-30 1.5473647039895271e-29 0.0000000000000000e+00  -1.0914358963619819e-28 1.9306393629589675e-28 0.0000000000000000e+00  1.7826588411629986e-29 -3.2019160829043892e-29 0.0000000000000000e+00  5.9674095351104175e-30 -9.4698812116077521e-30 0.0000000000000000e+00  -1.4976641951216753e-29 2.5922420483684702e-29 0.0000000000000000e+00  -1.0374371065906714e-30 1.7735561569372662e-30 0.0000000000000000e+00  1.6497658232633993e-30 -2.7645428279289224e-30 0.0000000000000000e+00  -8.5930768957208445e-31 1.4156114720070912e-30 0.0000000000000000e+00  1.0703365987802275e-31 -1.7287620478091082e-31 0.0000000000000000e+00  -1.3087670211527953e-32 1.9939028784024458e-32 0.0000000000000000e+00  -3.5606925587772055e-34 7.5033105829362442e-34 0.0000000000000000e+00  6.9563547621286461e-33 -1.0418602015354419e-32 0.0000000000000000e+00  4.1163361069525122e-34 -5.1600070054415451e-34 0.0000000000000000e+00  -4.7051255151312586e-34 6.5920030160323878e-34 0.0000000000000000e+00  5.2718455361157335e-35 -7.8642702118240069e-35 0.0000000000000000e+00  -2.1373703963451881e-35 2.8330442946413748e-35 0.0000000000000000e+00  4.8490347486719866e-36 -6.1972706526303393e-36 0.0000000000000000e+00  -1.5471551633756337e-36 1.9426994671391656e-36 0.0000000000000000e+00  5.0930093923987392e-37 -6.0879301230774416e-37 0.0000000000000000e+00  -2.5380815793251957e-37 2.9988174129797052e-37 0.0000000000000000e+00  8.5871822664318693e-38 -1.0032936900122455e-37 0.0000000000000000e+00  -1.7882833778407171e-38 2.0230652613188465e-38 0.0000000000000000e+00  7.2691324243435483e-39 -8.0558242680668183e-39 0.0000000000000000e+00  -4.2432696965305810e-40 4.9480233549405088e-40 0.0000000000000000e+00  -3.6284200093413944e-40 3.6818729975459984e-40 0.0000000000000000e+00  -1.5175013682645405e-41 8.0594898186244392e-42 0.0000000000000000e+00  4.0054213221458480e-40 -4.0466835790726611e-40 0.0000000000000000e+00  -9.3304365427354891e-40 8.9929507400850065e-40 0.0000000000000000e+00  3.6771503866313506e-39 -3.4051471374538213e-39 0.0000000000000000e+00  -2.6071219425961283e-39 2.2764135687931786e-39 0.0000000000000000e+00  -1.5682378223557625e-38 1.4088783189433493e-38 0.0000000000000000e+00  6.4083856455466089e-38 -5.5543353372977953e-38 0.0000000000000000e+00  -9.1146254815648031e-38 7.6411671036202173e-38 0.0000000000000000e+00  -1.4046904400144260e-37 1.1728571584122314e-37 0.0000000000000000e+00  9.7207510965872945e-37 -7.8203913666844797e-37 0.0000000000000000e+00  -1.7534788536583064e-36 1.3749746303557797e-36 0.0000000000000000e+00  -1.2862272199475399e-36 9.6819891618364969e-37 0.0000000000000000e+00  1.3384139739189153e-35 -9.9141031210716604e-36 0.0000000000000000e+00  -2.6580573977846201e-35 1.9184994487482115e-35 0.0000000000000000e+00  -1.7107381673614601e-35 1.1561127827624460e-35 0.0000000000000000e+00  1.9405280250371124e-34 -1.3097636679992285e-34 0.0000000000000000e+00  -3.1881700668058101e-34 2.1247215179157953e-34 0.0000000000000000e+00  -4.0655216543569587e-34 2.5057019931897921e-34 0.0000000000000000e+00  2.6338190116087555e-33 -1.6105712515859503e-33 0.0000000000000000e+00  -2.6876574219583914e-33 1.6433322880680681e-33 0.0000000000000000e+00  -9.3671767417407264e-33 5.2230472784677356e-33 0.0000000000000000e+00  3.0229574760349914e-32 -1.6806186336544257e-32 0.0000000000000000e+00  1.6228223145502925e-33 2.2693480009143550e-34 0.0000000000000000e+00  -1.6195073316222395e-31 8.1098856368434122e-32 0.0000000000000000e+00  2.1935202303083525e-31 -1.1014374832555347e-31 0.0000000000000000e+00  5.3124017398480272e-31 -2.3460943377246724e-31 0.0000000000000000e+00  -1.6089723556344742e-30 7.2065746941853532e-31 0.0000000000000000e+00  -8.7008274801384456e-31 2.9853358644480520e-31 0.0000000000000000e+00  8.4406605239696617e-30 -3.3666239511077609e-30 0.0000000000000000e+00  -2.6537457869506731e-30 1.3527632386820011e-30 0.0000000000000000e+00  -3.6688630529652477e-29 1.2838865854119931e-29 0.0000000000000000e+00  3.0619066486259401e-29 -1.1823300264758493e-29 0.0000000000000000e+00  1.4724974305267262e-28 -4.4864692846180058e-29 0.0000000000000000e+00  -1.6621009609291531e-28 5.5671882263660285e-29 0.0000000000000000e+00  -6.0470175629518007e-28 1.5879161675060413e-28 0.0000000000000000e+00  6.3385027630942498e-28 -1.9810913499121740e-28 0.0000000000000000e+00  2.4909839015680331e-27 -5.6343308264343496e-28 0.0000000000000000e+00  -1.8589755337659816e-27 5.4105758913392874e-28 0.0000000000000000e+00  -9.5096504750769378e-27 1.8263861305070316e-27 0.0000000000000000e+00  2.2866142901654398e-27 -8.2454966861450559e-28 0.0000000000000000e+00  2.9386115746513727e-26 -4.8853621334918952e-27 0.0000000000000000e+00  1.4431110222793481e-26 -1.1525131059917991e-27 0.0000000000000000e+00  -8.3620347543533904e-26 1.2008054969852569e-26 0.0000000000000000e+00  -1.2669303521455352e-25 1.4437797056134800e-26 0.0000000000000000e+00  1.4590076159615696e-25 -1.1788461379197301e-26 0.0000000000000000e+00  8.4503072590202838e-25 -4.4946411257391547e-26 0.0000000000000000e+00  1.5439312448733518e-24 -4.3336888695146470e-26 0.0000000000000000e+00  1.8843507714996746e-24 -1.5367259716108039e-26 0.0000000000000000e+00  1.8433243172756625e-24 2.0975140505958267e-27 0.0000000000000000e+00  1.8672244962204948e-24 -3.9181436569108794e-27 0.0000000000000000e+00  2.0053975887311392e-24 -2.9652111148105325e-28 0.0000000000000000e+00  1.8630762028784760e-24 2.5699066549532146e-26 0.0000000000000000e+00  1.2185412995889857e-24 4.2033856035258706e-26 0.0000000000000000e+00  3.5582091680881826e-25 2.3407529111674618e-26 0.0000000000000000e+00  -1.7042755258316133e-25 -8.9696889909321989e-27 0.0000000000000000e+00  -2.1921437303447019e-25 -2.0385044554997333e-26 0.0000000000000000e+00  -3.9163428954965052e-26 -6.1462502365381285e-27 0.0000000000000000e+00  6.0479530504901390e-26 7.0308806306808770e-27 0.0000000000000000e+00  3.6988793363897432e-26 5.7348280644057415e-27 0.0000000000000000e+00  -5.2116789856135262e-27 -6.9089985057285289e-28 0.0000000000000000e+00  -1.0889921235026227e-26 -2.1056030911138900e-27 0.0000000000000000e+00  -7.8414547799115597e-28 -2.1738042910692495e-28 0.0000000000000000e+00  2.6945609418531430e-27 6.2523775663861636e-28 0.0000000000000000e+00  4.0069963161304748e-28 1.1402854780368523e-28 0.0000000000000000e+00  -6.3590658857515526e-28 -1.7461928595606204e-28 0.0000000000000000e+00  -9.0976784958718966e-29 -3.0292831805678828e-29 0.0000000000000000e+00  1.4776171767811201e-28 4.7789853475702935e-29 0.0000000000000000e+00  7.3713526334441904e-30 3.5127965974748317e-30 0.0000000000000000e+00  -3.3209473330609120e-29 -1.2338494811284256e-29 0.0000000000000000e+00  2.6921389350845795e-30 8.2113826970636157e-31 0.0000000000000000e+00  6.3640766902619978e-30 2.7200711850098290e-30 0.0000000000000000e+00  -1.8423246290382127e-30 -7.4653310017432118e-31 0.0000000000000000e+00  -9.4532288052700717e-31 -4.5828530802587888e-31 0.0000000000000000e+00  6.0374713251328286e-31 2.8267410472514070e-31 0.0000000000000000e+00  3.4734484894457112e-32 2.4834309821340380e-32 0.0000000000000000e+00  -1.3394632003520803e-31 -6.9381962956806783e-32 0.0000000000000000e+00  3.0087741673328722e-32 1.4547787596612819e-32 0.0000000000000000e+00  1.9304038946204734e-32 1.1167909527620271e-32 0.0000000000000000e+00  -1.2359007622624168e-32 -6.9346298240604097e-33 0.0000000000000000e+00  1.8636164600185337e-34 -2.0670211861393328e-35 0.0000000000000000e+00  2.2294601427893157e-33 1.3935655539305965e-33 0.0000000000000000e+00  -8.4764417910068432e-34 -5.1910583073162818e-34 0.0000000000000000e+00  -1.1776211447921356e-34 -8.6808034311318372e-35 0.0000000000000000e+00  2.0415682052053787e-34 1.3770117936745777e-34 0.0000000000000000e+00  -5.7612551095393009e-35 -3.8809416687124674e-35 0.0000000000000000e+00  -1.3357502890891513e-35 -9.9707575854371334e-36 0.0000000000000000e+00  1.5168868573965660e-35 1.1113265857721824e-35 0.0000000000000000e+00  -3.9519608084601369e-36 -2.9121391751580266e-36 0.0000000000000000e+00  -9.3850784300823550e-37 -7.4408373677319298e-37 0.0000000000000000e+00  1.0666660127900073e-36 8.4447959022825758e-37 0.0000000000000000e+00  -3.0797126996403439e-37 -2.4873638129721065e-37 0.0000000000000000e+00  -3.8607724034981485e-38 -3.2191457696214627e-38 0.0000000000000000e+00  6.7207716426998940e-38 5.7249784200576251e-38 0.0000000000000000e+00  -2.5504748494566447e-38 -2.2267792774527578e-38 0.0000000000000000e+00  8.6225019642575218e-40 8.1889385950500380e-40 0.0000000000000000e+00  3.6100018370240344e-39 3.2627740927047411e-39 0.0000000000000000e+00  -1.8764506997044662e-39 -1.7437138823922852e-39 0.0000000000000000e+00  4.0232647218712794e-40 3.8573596213286967e-40 0.0000000000000000e+00  1.9695874857839492e-40 1.8766754829005833e-40 0.0000000000000000e+00  3.6922233610856177e-40 3.9888465632315917e-40 0.0000000000000000e+00  -1.0926775900155379e-39 -1.1553589819838832e-39 0.0000000000000000e+00  2.1398642231992048e-39 2.3331311179781856e-39 0.0000000000000000e+00  -1.4484419336177599e-38 -1.5713098813752705e-38 0.0000000000000000e+00  1.0277093452297540e-37 1.1382042452356435e-37 0.0000000000000000e+00  -2.3327274340162636e-37 -2.6636172365884713e-37 0.0000000000000000e+00  2.6530881141383761e-37 3.1642518070217152e-37 0.0000000000000000e+00  -4.2621345359361875e-36 -5.1512803124299322e-36 0.0000000000000000e+00  1.3779960364233961e-35 1.6615315481452235e-35 0.0000000000000000e+00  -6.0700952879331593e-35 -7.4068815149649791e-35 0.0000000000000000e+00  1.3569871211148968e-34 1.7294074896937711e-34 0.0000000000000000e+00  -2.8999951896283486e-34 -3.8720103908459934e-34 0.0000000000000000e+00  1.4603547718223728e-33 1.9725960815226232e-33 0.0000000000000000e+00  -1.1714473182669839e-33 -1.5971645131661475e-33 0.0000000000000000e+00  6.0615675496520218e-33 7.9188892751825131e-33 0.0000000000000000e+00  4.3799911186968756e-32 6.8727145410258035e-32 0.0000000000000000e+00  -2.0856030859806628e-31 -3.1906650945185201e-31 0.0000000000000000e+00  -5.6370476850666519e-31 -9.4167631500094855e-31 0.0000000000000000e+00  1.0663512628628832e-30 1.8282843123486453e-30 0.0000000000000000e+00  -7.6399342879105367e-32 -1.3008302159451071e-31 0.0000000000000000e+00  -3.3342505514326310e-30 -5.6849523021883035e-30 0.0000000000000000e+00  9.8494906285578711e-30 1.6022396524817913e-29 0.0000000000000000e+00  1.4974430544138286e-29 2.7475799160593658e-29 0.0000000000000000e+00  -9.8411489580011986e-29 -1.7881302989957303e-28 0.0000000000000000e+00  3.1879146386704910e-29 6.0263000425807433e-29 0.0000000000000000e+00  9.9046909266002689e-29 2.1051896202330847e-28 0.0000000000000000e+00  4.1816306788623438e-29 7.4554995681557387e-29 0.0000000000000000e+00  3.5528446041834040e-28 7.0462226293360401e-28 0.0000000000000000e+00  1.5025780491960062e-28 3.4119049931256752e-28 0.0000000000000000e+00  -4.3976399908901964e-28 -9.0497815674581789e-28 0.0000000000000000e+00  -3.9795309450288401e-28 -1.0392407699062650e-27 0.0000000000000000e+00  4.2118006964053364e-28 9.9306810566469785e-28 0.0000000000000000e+00  7.7300728631936717e-28 1.9322299924618432e-27 0.0000000000000000e+00  3.9500759170265153e-28 1.1757790525441160e-27 0.0000000000000000e+00  5.9391593607010603e-29 4.2599902996628100e-28 0.0000000000000000e+00  -8.8998955815599911e-28 -2.6388429014826220e-27 0.0000000000000000e+00  -3.3760401961771845e-28 -9.3948034812428863e-28 0.0000000000000000e+00  -1.6534799991096802e-28 -4.5355804459369186e-28 0.0000000000000000e+00  -4.4254712439593698e-28 -1.7004415176665873e-27 0.0000000000000000e+00  -3.9879334119143672e-28 -1.6498845743408689e-27 0.0000000000000000e+00  -3.3402433626093327e-28 -1.9920459945369873e-27 0.0000000000000000e+00  7.9749785525480489e-29 -1.9986655134523392e-28 0.0000000000000000e+00  4.5538772344117748e-28 2.3436818044430336e-27 0.0000000000000000e+00  7.2305813700308880e-29 2.6595188205152210e-28 0.0000000000000000e+00  -3.0340276555294995e-28 -2.6451129412641897e-27 0.0000000000000000e+00  1.9396468616211014e-28 1.5254292597620726e-27 0.0000000000000000e+00  1.1936223161348537e-28 1.3798810715911555e-27 0.0000000000000000e+00  -7.9013583858389326e-29 -1.4137985203745525e-27 0.0000000000000000e+00  -1.0209790562741751e-29 -1.1103856379973576e-28 0.0000000000000000e+00  -3.4544487445569240e-29 -1.4796620119499575e-27 0.0000000000000000e+00  -3.5996086713158253e-29 2.6752645975450092e-27 0.0000000000000000e+00  -1.2544679526867141e-28 2.5071503209167215e-27 0.0000000000000000e+00  2.9173962782429785e-29 -1.7073631989821226e-27 0.0000000000000000e+00  -5.3979945640760320e-29 -1.1502620385464147e-28 0.0000000000000000e+00  2.2746034660426648e-28 -2.4314787428639487e-27 0.0000000000000000e+00  -3.6047385385172397e-28 1.9397768449640608e-27 0.0000000000000000e+00  -2.3127358779023851e-28 9.1681882761930468e-28 0.0000000000000000e+00  -1.1272670045606340e-29 -6.6406215487606843e-28 0.0000000000000000e+00  -7.7953808952467977e-29 -1.4773691637679687e-28 0.0000000000000000e+00  6.0707508515614277e-28 -2.8918464339822436e-27 0.0000000000000000e+00  7.3376559403210114e-28 -3.3986835249637614e-27 0.0000000000000000e+00  1.2745632884870115e-27 -4.7589446944603044e-27 0.0000000000000000e+00  4.2383128968674481e-28 -1.3230165011596795e-27 0.0000000000000000e+00  -3.1129011803197839e-28 1.2046241010430358e-27 0.0000000000000000e+00  -8.4772505081754450e-28 2.5136313551407335e-27 0.0000000000000000e+00  -1.0133656190574715e-27 2.7554018465446625e-27 0.0000000000000000e+00  -3.0096218087835719e-28 7.1450228584896199e-28 0.0000000000000000e+00  1.6014667608272255e-28 -4.3532221964352090e-28 0.0000000000000000e+00  2.2423894001862514e-28 -5.3786748884041552e-28 0.0000000000000000e+00  9.1646419116076315e-28 -1.9527474920285843e-27 0.0000000000000000e+00  3.7644105569139863e-28 -7.5953031457996176e-28 0.0000000000000000e+00  -3.0983570810376500e-28 6.1024606649899661e-28 0.0000000000000000e+00  -1.0544800595207466e-29 3.2144707189682643e-29 0.0000000000000000e+00  3.3246956311119356e-29 -6.8572630017270871e-29 0.0000000000000000e+00  8.4020746829186436e-29 -1.5575142488382267e-28 0.0000000000000000e+00  -1.6856626488542426e-29 3.1591977345943131e-29 0.0000000000000000e+00  -2.4692222899620443e-29 4.2505767724932584e-29 0.0000000000000000e+00  2.4969