<?xml version="1.0"?>
<VTKFile type="UnstructuredGrid"  version="0.1"  >
<UnstructuredGrid>
<Piece  NumberOfPoints="11902" NumberOfCells="23402">
<Points>
<DataArray  type="Float64"  NumberOfComponents="3"  format="ascii">-5 -5 0  5 -5 0  5 5 0  -5 5 0  1.265375219643148 0.001271856390478365 0  -4.9 -5 0  -4.8 -5 0  -4.7 -5 0  -4.6 -5 0  -4.5 -5 0  -4.4 -5 0  -4.3 -5 0  -4.2 -5 0  -4.1 -5 0  -4 -5 0  -3.9 -5 0  -3.8 -5 0  -3.7 -5 0  -3.6 -5 0  -3.5 -5 0  -3.4 -5 0  -3.3 -5 0  -3.2 -5 0  -3.1 -5 0  -3 -5 0  -2.9 -5 0  -2.8 -5 0  -2.7 -5 0  -2.6 -5 0  -2.5 -5 0  -2.4 -5 0  -2.3 -5 0  -2.2 -5 0  -2.1 -5 0  -2 -5 0  -1.9 -5 0  -1.8 -5 0  -1.7 -5 0  -1.6 -5 0  -1.5 -5 0  -1.4 -5 0  -1.3 -5 0  -1.2 -5 0  -1.1 -5 0  -1 -5 0  -0.9000000000000004 -5 0  -0.7999999999999998 -5 0  -0.7000000000000002 -5 0  -0.5999999999999996 -5 0  -0.5 -5 0  -0.4000000000000004 -5 0  -0.2999999999999998 -5 0  -0.2000000000000002 -5 0  -0.09999999999999964 -5 0  0 -5 0  0.09999999999999964 -5 0  0.2000000000000002 -5 0  0.2999999999999998 -5 0  0.4000000000000004 -5 0  0.5 -5 0  0.5999999999999996 -5 0  0.7000000000000002 -5 0  0.7999999999999998 -5 0  0.9000000000000004 -5 0  1 -5 0  1.1 -5 0  1.2 -5 0  1.3 -5 0  1.4 -5 0  1.5 -5 0  1.6 -5 0  1.7 -5 0  1.8 -5 0  1.9 -5 0  2 -5 0  2.1 -5 0  2.2 -5 0  2.3 -5 0  2.4 -5 0  2.5 -5 0  2.6 -5 0  2.7 -5 0  2.8 -5 0  2.9 -5 0  3 -5 0  3.1 -5 0  3.199999999999999 -5 0  3.300000000000001 -5 0  3.4 -5 0  3.5 -5 0  3.6 -5 0  3.699999999999999 -5 0  3.800000000000001 -5 0  3.9 -5 0  4 -5 0  4.1 -5 0  4.199999999999999 -5 0  4.300000000000001 -5 0  4.4 -5 0  4.5 -5 0  4.6 -5 0  4.699999999999999 -5 0  4.800000000000001 -5 0  4.9 -5 0  5 -4.9 0  5 -4.8 0  5 -4.7 0  5 -4.6 0  5 -4.5 0  5 -4.4 0  5 -4.3 0  5 -4.2 0  5 -4.1 0  5 -4 0  5 -3.9 0  5 -3.8 0  5 -3.7 0  5 -3.6 0  5 -3.5 0  5 -3.4 0  5 -3.3 0  5 -3.2 0  5 -3.1 0  5 -3 0  5 -2.9 0  5 -2.8 0  5 -2.7 0  5 -2.6 0  5 -2.5 0  5 -2.4 0  5 -2.3 0  5 -2.2 0  5 -2.1 0  5 -2 0  5 -1.9 0  5 -1.8 0  5 -1.7 0  5 -1.6 0  5 -1.5 0  5 -1.4 0  5 -1.3 0  5 -1.2 0  5 -1.1 0  5 -1 0  5 -0.9000000000000004 0  5 -0.7999999999999998 0  5 -0.7000000000000002 0  5 -0.5999999999999996 0  5 -0.5 0  5 -0.4000000000000004 0  5 -0.2999999999999998 0  5 -0.2000000000000002 0  5 -0.09999999999999964 0  5 0 0  5 0.09999999999999964 0  5 0.2000000000000002 0  5 0.2999999999999998 0  5 0.4000000000000004 0  5 0.5 0  5 0.5999999999999996 0  5 0.7000000000000002 0  5 0.7999999999999998 0  5 0.9000000000000004 0  5 1 0  5 1.1 0  5 1.2 0  5 1.3 0  5 1.4 0  5 1.5 0  5 1.6 0  5 1.7 0  5 1.8 0  5 1.9 0  5 2 0  5 2.1 0  5 2.2 0  5 2.3 0  5 2.4 0  5 2.5 0  5 2.6 0  5 2.7 0  5 2.8 0  5 2.9 0  5 3 0  5 3.1 0  5 3.199999999999999 0  5 3.300000000000001 0  5 3.4 0  5 3.5 0  5 3.6 0  5 3.699999999999999 0  5 3.800000000000001 0  5 3.9 0  5 4 0  5 4.1 0  5 4.199999999999999 0  5 4.300000000000001 0  5 4.4 0  5 4.5 0  5 4.6 0  5 4.699999999999999 0  5 4.800000000000001 0  5 4.9 0  4.9 5 0  4.8 5 0  4.7 5 0  4.6 5 0  4.5 5 0  4.4 5 0  4.3 5 0  4.2 5 0  4.1 5 0  4 5 0  3.9 5 0  3.8 5 0  3.7 5 0  3.6 5 0  3.5 5 0  3.4 5 0  3.3 5 0  3.2 5 0  3.1 5 0  3 5 0  2.9 5 0  2.8 5 0  2.7 5 0  2.6 5 0  2.5 5 0  2.4 5 0  2.3 5 0  2.2 5 0  2.1 5 0  2 5 0  1.9 5 0  1.8 5 0  1.7 5 0  1.6 5 0  1.5 5 0  1.4 5 0  1.3 5 0  1.2 5 0  1.1 5 0  1 5 0  0.9000000000000004 5 0  0.7999999999999998 5 0  0.7000000000000002 5 0  0.5999999999999996 5 0  0.5 5 0  0.4000000000000004 5 0  0.2999999999999998 5 0  0.2000000000000002 5 0  0.09999999999999964 5 0  0 5 0  -0.09999999999999964 5 0  -0.2000000000000002 5 0  -0.2999999999999998 5 0  -0.4000000000000004 5 0  -0.5 5 0  -0.5999999999999996 5 0  -0.7000000000000002 5 0  -0.7999999999999998 5 0  -0.9000000000000004 5 0  -1 5 0  -1.1 5 0  -1.2 5 0  -1.3 5 0  -1.4 5 0  -1.5 5 0  -1.6 5 0  -1.7 5 0  -1.8 5 0  -1.9 5 0  -2 5 0  -2.1 5 0  -2.2 5 0  -2.3 5 0  -2.4 5 0  -2.5 5 0  -2.6 5 0  -2.7 5 0  -2.8 5 0  -2.9 5 0  -3 5 0  -3.1 5 0  -3.199999999999999 5 0  -3.300000000000001 5 0  -3.4 5 0  -3.5 5 0  -3.6 5 0  -3.699999999999999 5 0  -3.800000000000001 5 0  -3.9 5 0  -4 5 0  -4.1 5 0  -4.199999999999999 5 0  -4.300000000000001 5 0  -4.4 5 0  -4.5 5 0  -4.6 5 0  -4.699999999999999 5 0  -4.800000000000001 5 0  -4.9 5 0  -5 4.9 0  -5 4.8 0  -5 4.7 0  -5 4.6 0  -5 4.5 0  -5 4.4 0  -5 4.3 0  -5 4.2 0  -5 4.1 0  -5 4 0  -5 3.9 0  -5 3.8 0  -5 3.7 0  -5 3.6 0  -5 3.5 0  -5 3.4 0  -5 3.3 0  -5 3.2 0  -5 3.1 0  -5 3 0  -5 2.9 0  -5 2.8 0  -5 2.7 0  -5 2.6 0  -5 2.5 0  -5 2.4 0  -5 2.3 0  -5 2.2 0  -5 2.1 0  -5 2 0  -5 1.9 0  -5 1.8 0  -5 1.7 0  -5 1.6 0  -5 1.5 0  -5 1.4 0  -5 1.3 0  -5 1.2 0  -5 1.1 0  -5 1 0  -5 0.9000000000000004 0  -5 0.7999999999999998 0  -5 0.7000000000000002 0  -5 0.5999999999999996 0  -5 0.5 0  -5 0.4000000000000004 0  -5 0.2999999999999998 0  -5 0.2000000000000002 0  -5 0.09999999999999964 0  -5 0 0  -5 -0.09999999999999964 0  -5 -0.2000000000000002 0  -5 -0.2999999999999998 0  -5 -0.4000000000000004 0  -5 -0.5 0  -5 -0.5999999999999996 0  -5 -0.7000000000000002 0  -5 -0.7999999999999998 0  -5 -0.9000000000000004 0  -5 -1 0  -5 -1.1 0  -5 -1.2 0  -5 -1.3 0  -5 -1.4 0  -5 -1.5 0  -5 -1.6 0  -5 -1.7 0  -5 -1.8 0  -5 -1.9 0  -5 -2 0  -5 -2.1 0  -5 -2.2 0  -5 -2.3 0  -5 -2.4 0  -5 -2.5 0  -5 -2.6 0  -5 -2.7 0  -5 -2.8 0  -5 -2.9 0  -5 -3 0  -5 -3.1 0  -5 -3.199999999999999 0  -5 -3.300000000000001 0  -5 -3.4 0  -5 -3.5 0  -5 -3.6 0  -5 -3.699999999999999 0  -5 -3.800000000000001 0  -5 -3.9 0  -5 -4 0  -5 -4.1 0  -5 -4.199999999999999 0  -5 -4.300000000000001 0  -5 -4.4 0  -5 -4.5 0  -5 -4.6 0  -5 -4.699999999999999 0  -5 -4.800000000000001 0  -5 -4.9 0  1.257486607394642 0.09230466670189834 0  1.235311882079014 0.1900114255487476 0  1.201307633361044 0.2869617763615991 0  1.158645435142917 0.3755785258860867 0  1.09979426291772 0.4668104861384199 0  1.032836466598327 0.549999740222459 0  0.9543993586489057 0.6306257305208924 0  0.8671814553056305 0.7054442942636141 0  0.7753616140611773 0.770488749296017 0  0.6738226193443376 0.8279770083329484 0  0.5599891708105438 0.8802291187608914 0  0.4459845247953952 0.9253235840071584 0  0.3361140297006582 0.9566990752069717 0  0.2088127594923182 0.9796978522306072 0  0.08696460366770578 0.997780397664466 0  -0.0260725366793455 1.001425452651436 0  -0.1437351802543236 0.9879703922970299 0  -0.2746824694865001 0.9677337104027099 0  -0.3952350673590261 0.9434069643454789 0  -0.5041829633831701 0.9086469291135069 0  -0.6134698793487819 0.8623022013408106 0  -0.7153417418033494 0.8070022004808909 0  -0.8096009035491615 0.7428676173763079 0  -0.9013147131376532 0.6691360942521845 0  -0.9881282446593826 0.5886607628283027 0  -1.063123442291741 0.5067173864803981 0  -1.125536554006066 0.4226975737657677 0  -1.181563456682495 0.3279270205878629 0  -1.218657767155334 0.2418545233324758 0  -1.242853460263082 0.1484686347035837 0  -1.252901949905217 0.05293143764750852 0  -1.2528284378186 -0.05062979818186297 0  -1.242666021819409 -0.1454282929325603 0  -1.21830129717642 -0.2354325770769811 0  -1.17577821169574 -0.3311250569864043 0  -1.125832149494102 -0.4238761727437435 0  -1.065487765487778 -0.5064286537857632 0  -0.9907404664456591 -0.587673907309042 0  -0.9045230698186137 -0.6670981694382967 0  -0.813885754494249 -0.7381079908746887 0  -0.7188960931604399 -0.7985030615902633 0  -0.6144846958243951 -0.8520239440908076 0  -0.497838504822242 -0.9018377956567868 0  -0.3856895800070148 -0.9416863551932269 0  -0.2713797519257083 -0.9676014227429662 0  -0.1418965550593085 -0.988073716655445 0  -0.02742194732836507 -1.0006472312578 0  0.08499023119779033 -0.9932823615937997 0  0.2158159145279265 -0.975199784071465 0  0.3392484626942522 -0.9547198067826738 0  0.4502766393737209 -0.9239735275692084 0  0.5629039906550494 -0.8794192687138811 0  0.6752049253500795 -0.827736754913268 0  0.7749966269863152 -0.7717801587072154 0  0.8658451179466299 -0.7074412635379721 0  0.9513229909564139 -0.6317377928716993 0  1.030548570609485 -0.5483969643330888 0  1.101874709752685 -0.464651742433291 0  1.159610694210149 -0.3757051932599541 0  1.203179772917996 -0.2850497127538327 0  1.236057820362877 -0.1894745479696244 0  1.257899357301772 -0.09256608902002614 0  -2.448509953846617 4.918023228860529 0  -2.448379115098479 -4.910393021379971 0  4.91031324905433 2.447822354206538 0  4.918449591125085 -2.449290795235878 0  2.446099852847754 -4.895607175884862 0  2.44053530419931 4.899373483304918 0  -4.910340551606033 -2.447849611916888 0  -4.910337875908267 2.447853843968151 0  -1.748461985106688 4.910870031854142 0  -1.74425038791287 -4.914316555196951 0  4.920461822314272 1.744004104545487 0  4.908971210980345 -1.747756064691802 0  -4.909266293318858 -1.74749109840043 0  -4.910090299039997 1.747237095510369 0  1.745730674165002 4.904715348360102 0  1.747137103421677 -4.89284089326222 0  -1.148783822134804 4.908621851860172 0  -1.129645419695843 -4.91655390354236 0  -4.908937853873025 -1.147832885507021 0  -4.908755695131051 1.147633725953262 0  1.143781595740351 -4.912729850792839 0  1.148793124216551 4.908607760567048 0  4.909077039002322 1.146107436539595 0  4.919939451473187 -1.151900983648049 0  -0.5466383777048029 -4.909793975541584 0  -0.5464246913671414 4.918500716564651 0  -4.907633407642562 -0.5486556814805974 0  -4.907657400394024 0.5472141640501679 0  4.906949189020178 -0.5489735894677351 0  4.918644428415617 0.5457373922349592 0  0.5424178081408122 -4.896636871761102 0  0.551151458206818 4.915314814077079 0  -4.911804255860949 -3.048220222252869 0  4.918381552695358 3.046241067117361 0  4.911311465471189 -3.048194993531583 0  -4.912652755323117 3.045312630847992 0  3.055241913285622 -4.917303111228734 0  -3.048568112841206 -4.911232925368989 0  3.052136852356325 4.913312305376047 0  -3.048014448190837 4.912123684466475 0  -4.906727696003256 -0.04990235135971084 0  0.04511790179524087 -4.911742120270334 0  0.04956461332215886 4.918788144271433 0  4.913805731159727 -0.05128524685344007 0  3.545572895075123 -4.918971327021469 0  -3.548849352915924 4.911
[...]
<PointData  Vectors="f_6962"> 
<DataArray  type="Float64"  Name="f_6962"  NumberOfComponents="3" format="ascii">1.3577270913292694e-40 1.0223204872326129e-40 0.0000000000000000e+00  -1.1260460037328200e-40 8.8414643102479709e-41 0.0000000000000000e+00  -8.4822325873223662e-42 1.4653924326637660e-41 0.0000000000000000e+00  9.9080705731869493e-41 -9.4738095068919027e-41 0.0000000000000000e+00  1.0776903563001122e+01 -3.1151688272563370e-03 0.0000000000000000e+00  -2.4500242783702681e-40 -1.8929804674293656e-40 0.0000000000000000e+00  3.9923462618126636e-40 2.5364469387463646e-40 0.0000000000000000e+00  -1.3073625080257065e-39 -9.0590193070937117e-40 0.0000000000000000e+00  -4.6450606172376950e-39 -3.8082071120280480e-39 0.0000000000000000e+00  4.3934437701569957e-39 3.0082208414748301e-39 0.0000000000000000e+00  -7.0413122831219190e-38 -4.1077993833291072e-38 0.0000000000000000e+00  5.0576893713240238e-38 1.3534469368774152e-39 0.0000000000000000e+00  -8.9567692169521645e-37 -9.5993320180527590e-37 0.0000000000000000e+00  9.3349232488116346e-36 1.0668087158756203e-35 0.0000000000000000e+00  -3.3620541281732144e-35 -3.9282683574162681e-35 0.0000000000000000e+00  7.6418078789865641e-35 9.4969365317048778e-35 0.0000000000000000e+00  -1.7639937235662841e-34 -2.3340731578234132e-34 0.0000000000000000e+00  -7.3185014310555133e-34 -7.6342590705823531e-34 0.0000000000000000e+00  2.3751862782359627e-33 2.8934062665991844e-33 0.0000000000000000e+00  -3.7522462982563041e-33 -6.8767059908365754e-33 0.0000000000000000e+00  2.9205807913825356e-32 4.3755272875547300e-32 0.0000000000000000e+00  -8.2478453476016642e-32 -1.1879968150206676e-31 0.0000000000000000e+00  -7.2524030749531294e-32 -5.5937355087511537e-32 0.0000000000000000e+00  5.5235066165094986e-31 5.0483233319528395e-31 0.0000000000000000e+00  9.0684495641664683e-32 3.9206689055708511e-31 0.0000000000000000e+00  -2.3730808753788951e-32 7.8611255481386527e-31 0.0000000000000000e+00  -8.4567448659667021e-31 -2.0965409239568683e-30 0.0000000000000000e+00  1.3496544747172612e-30 8.7944508833352946e-30 0.0000000000000000e+00  -6.3696079258539185e-30 -2.3452495303425880e-29 0.0000000000000000e+00  -4.2831815744612139e-30 -1.6841735128716062e-29 0.0000000000000000e+00  4.0096812538383822e-29 1.2064185848262848e-28 0.0000000000000000e+00  1.1365314853708668e-29 4.1861247451854235e-29 0.0000000000000000e+00  -2.6078392577046946e-30 -1.4439557008951730e-29 0.0000000000000000e+00  -2.1043207918857226e-29 -4.6780376419263766e-29 0.0000000000000000e+00  -5.0763372495817820e-29 3.2337416761548902e-29 0.0000000000000000e+00  -2.7271499037666889e-29 -2.8565653992453069e-28 0.0000000000000000e+00  -3.5354044642384290e-29 -2.3964247662881311e-28 0.0000000000000000e+00  -2.5918280155070532e-30 -6.1740976112420058e-29 0.0000000000000000e+00  5.6285199391300887e-29 4.4017105284151317e-28 0.0000000000000000e+00  8.0112201016415867e-29 6.4554619756528731e-28 0.0000000000000000e+00  9.6114367547884879e-29 5.8190735511206160e-28 0.0000000000000000e+00  5.3605735371430661e-29 -1.5002580299406255e-28 0.0000000000000000e+00  5.8730651537575198e-29 -1.8287046995163731e-29 0.0000000000000000e+00  7.4750761059864595e-29 3.8500724426332048e-28 0.0000000000000000e+00  2.1469646337421818e-29 -6.7884067315697909e-29 0.0000000000000000e+00  -1.7116087858506985e-28 -9.0316860944319901e-28 0.0000000000000000e+00  -8.4892148155422159e-29 -6.6333075103910056e-28 0.0000000000000000e+00  7.7587410743718595e-29 5.5589602857634250e-28 0.0000000000000000e+00  5.7952363226478132e-30 -8.1401455696425006e-28 0.0000000000000000e+00  -8.2087428094559274e-29 -2.3612852838802713e-28 0.0000000000000000e+00  -2.0387638985493235e-28 6.0579960228686272e-29 0.0000000000000000e+00  -2.2674593283763258e-28 -1.1284338441053162e-28 0.0000000000000000e+00  -1.4781423195342400e-28 -1.5456272754355861e-28 0.0000000000000000e+00  -6.3675228128331297e-30 1.6835619587957905e-28 0.0000000000000000e+00  1.0892954686150622e-29 2.3961671476504688e-28 0.0000000000000000e+00  -5.6950117019865212e-29 4.6625816807933997e-29 0.0000000000000000e+00  -1.0903290723872880e-28 -1.0539009153595615e-28 0.0000000000000000e+00  -1.2908250868103393e-28 -3.2699515350389969e-28 0.0000000000000000e+00  -1.0576941514766828e-28 -2.1612835587080987e-28 0.0000000000000000e+00  -1.3242714795732054e-28 -1.3396984242354308e-28 0.0000000000000000e+00  -1.7314534395562094e-28 -5.1241344270831023e-28 0.0000000000000000e+00  -1.5954182949563753e-28 -5.6163117631030464e-28 0.0000000000000000e+00  -8.6220102250250109e-29 1.8353701426281245e-29 0.0000000000000000e+00  -5.5335660152165865e-29 5.3112305747143768e-28 0.0000000000000000e+00  -5.7054877100520794e-30 2.7821320622024949e-28 0.0000000000000000e+00  9.0726073336312077e-29 1.8373737241610787e-28 0.0000000000000000e+00  5.2602683783889413e-29 4.8015806381749822e-28 0.0000000000000000e+00  3.2589762817250666e-29 2.1006807892209110e-28 0.0000000000000000e+00  1.5379498683786620e-29 -3.6834196471469313e-28 0.0000000000000000e+00  -3.6026735074893298e-29 -2.4048778255982738e-28 0.0000000000000000e+00  -2.7541265408890069e-29 1.2301884645865399e-28 0.0000000000000000e+00  -7.9214258880428505e-29 6.2102666771656905e-29 0.0000000000000000e+00  -3.5995739210964352e-29 3.6593531889776589e-29 0.0000000000000000e+00  2.4600752777091655e-29 8.6418259217762502e-30 0.0000000000000000e+00  3.1285950261187582e-29 -2.3013617482997877e-28 0.0000000000000000e+00  1.6759777563973565e-29 -7.6790327743354656e-29 0.0000000000000000e+00  -8.2302856207821075e-32 -1.2946486861113965e-29 0.0000000000000000e+00  -1.2198149936047738e-29 6.7036605179877029e-29 0.0000000000000000e+00  -1.6782910139969100e-29 8.5100658499123370e-29 0.0000000000000000e+00  3.1074009565756146e-30 -3.5292698792826193e-30 0.0000000000000000e+00  1.3802972888069362e-29 -4.8729322467197822e-29 0.0000000000000000e+00  -2.3960094653517285e-30 8.1788347476175500e-30 0.0000000000000000e+00  -7.2199507025312145e-31 2.3159908696754241e-30 0.0000000000000000e+00  3.3769559457366084e-30 -6.5310607364997716e-30 0.0000000000000000e+00  4.4059165651736895e-31 -5.1325142701329270e-31 0.0000000000000000e+00  -4.5759445678893690e-31 7.1149058634472831e-31 0.0000000000000000e+00  1.8237396483811941e-31 -3.0634449175753967e-31 0.0000000000000000e+00  -5.1903789875987001e-32 6.5280166560395489e-32 0.0000000000000000e+00  4.9056420535013419e-33 -6.5904865715428102e-33 0.0000000000000000e+00  3.3527206643006743e-33 -2.9273928276565216e-33 0.0000000000000000e+00  -4.5013874990807237e-33 4.5660355215561113e-33 0.0000000000000000e+00  1.7303250282001780e-34 -1.0833259601106907e-34 0.0000000000000000e+00  1.4889725134902297e-34 -1.7906465955026158e-34 0.0000000000000000e+00  -1.0293067654653186e-35 2.0518848172606281e-35 0.0000000000000000e+00  1.5617437330989140e-35 -1.6510072509928006e-35 0.0000000000000000e+00  -2.3739469553295653e-36 2.4622239333470505e-36 0.0000000000000000e+00  -2.1018724136280248e-37 1.8597869279624578e-37 0.0000000000000000e+00  1.9388358851479711e-38 -2.1930294097613117e-38 0.0000000000000000e+00  -1.8323698126522862e-38 1.8666999282416744e-38 0.0000000000000000e+00  5.3090644638612614e-39 -5.8094723556932183e-39 0.0000000000000000e+00  2.1064328571855783e-39 -1.2611013429633344e-39 0.0000000000000000e+00  -5.3561233523642653e-40 3.9548990473294343e-40 0.0000000000000000e+00  -1.5390988951576224e-40 1.4086328797976827e-40 0.0000000000000000e+00  1.6704676006138249e-40 -1.3911677784983857e-40 0.0000000000000000e+00  3.4561344163511923e-41 -2.5986120262184444e-41 0.0000000000000000e+00  1.6800908175019209e-40 -1.0807362729537407e-40 0.0000000000000000e+00  -3.0258545550516512e-40 1.8148392173144510e-40 0.0000000000000000e+00  1.2291039363721002e-41 1.6462310912203817e-40 0.0000000000000000e+00  1.6320317374277640e-39 -1.4142320859268391e-39 0.0000000000000000e+00  -5.1566264061936517e-39 3.3467374089053834e-39 0.0000000000000000e+00  6.7094638377119297e-39 -2.2179294527355039e-39 0.0000000000000000e+00  9.1275895673470175e-39 -1.2199474363737945e-38 0.0000000000000000e+00  -6.5784312662358183e-38 4.8417469207160100e-38 0.0000000000000000e+00  1.4273150667970217e-37 -7.5483817692956457e-38 0.0000000000000000e+00  -1.1818392037901619e-38 -6.2511702188965403e-38 0.0000000000000000e+00  -7.6966691608530529e-37 5.7599633775624441e-37 0.0000000000000000e+00  1.9932519589488597e-36 -1.1573038531941030e-36 0.0000000000000000e+00  -8.8522101749639338e-37 8.2446556497063636e-38 0.0000000000000000e+00  -9.5904403493454946e-36 6.2681719491226477e-36 0.0000000000000000e+00  2.7858940286312055e-35 -1.6221450217979598e-35 0.0000000000000000e+00  -7.3991164983686793e-36 4.7767557964978100e-36 0.0000000000000000e+00  -1.4116291717207062e-34 7.6252018261233256e-35 0.0000000000000000e+00  3.5291420371910583e-34 -2.0517930330189330e-34 0.0000000000000000e+00  1.1606861603393011e-34 4.9795157787001859e-36 0.0000000000000000e+00  -2.2880027989184635e-33 1.1540089252686216e-33 0.0000000000000000e+00  3.4668832661206217e-33 -2.1737397253315148e-33 0.0000000000000000e+00  6.8430956224785971e-33 -2.6360164801037900e-33 0.0000000000000000e+00  -3.1471219248064162e-32 1.6637626004861241e-32 0.0000000000000000e+00  1.0558875171838383e-32 -9.7331728522006265e-33 0.0000000000000000e+00  1.4931269791911582e-31 -7.4230297065505091e-32 0.0000000000000000e+00  -2.3451839556044434e-31 1.2614652983721705e-31 0.0000000000000000e+00  -4.5182228143341690e-31 2.3654791970778418e-31 0.0000000000000000e+00  1.5841864832251243e-30 -7.7903448912125735e-31 0.0000000000000000e+00  5.9263004142243988e-31 -5.4843724941084161e-31 0.0000000000000000e+00  -7.3618477208927439e-30 3.4958229203742999e-30 0.0000000000000000e+00  2.7622415969424537e-30 8.7258578430897276e-31 0.0000000000000000e+00  2.7503455636274946e-29 -1.2273974298106282e-29 0.0000000000000000e+00  -2.8195347319590909e-29 5.6700274609466819e-31 0.0000000000000000e+00  -9.3667288879879361e-29 3.1027133487142077e-29 0.0000000000000000e+00  1.8090989917697299e-28 -3.7422372414771853e-29 0.0000000000000000e+00  3.4167889364391505e-28 -5.0444430824125852e-29 0.0000000000000000e+00  -9.8089295741770358e-28 4.0066089273652523e-28 0.0000000000000000e+00  -2.4803792252506240e-27 7.9830622786387482e-28 0.0000000000000000e+00  3.1628899047815061e-27 -1.7050129835198527e-27 0.0000000000000000e+00  1.3409227076274409e-26 -5.7855430577784534e-27 0.0000000000000000e+00  1.4646272860422100e-26 -6.8515255243169507e-27 0.0000000000000000e+00  -1.2148203620414709e-26 1.3695381832698071e-27 0.0000000000000000e+00  -5.8752340818183433e-26 1.6347813651833635e-26 0.0000000000000000e+00  -9.3798067662684205e-26 3.0616947322915604e-26 0.0000000000000000e+00  -1.2034562928560892e-25 4.7010879957841364e-26 0.0000000000000000e+00  -1.6691755378194629e-25 6.2010197954081846e-26 0.0000000000000000e+00  -2.8302472522830813e-25 6.6872876933973890e-26 0.0000000000000000e+00  -4.1512328044205290e-25 4.0495923144225366e-26 0.0000000000000000e+00  -4.9226102668760440e-25 -1.0321799495728568e-26 0.0000000000000000e+00  -4.5294509453862788e-25 -5.6599225508719622e-26 0.0000000000000000e+00  -3.2765943285466620e-25 -7.1000307069526960e-26 0.0000000000000000e+00  -1.9941959751675219e-25 -5.9201656756319602e-26 0.0000000000000000e+00  -1.1447107141804195e-25 -4.1009666229335435e-26 0.0000000000000000e+00  -6.4094089055118343e-26 -2.5554565512953423e-26 0.0000000000000000e+00  -2.2081191411111695e-26 -9.0302741352390070e-27 0.0000000000000000e+00  1.0698803434877239e-26 5.9269149394677616e-27 0.0000000000000000e+00  2.2092458693223083e-26 1.1612427902641319e-26 0.0000000000000000e+00  1.3648681831601996e-26 7.4858162645343750e-27 0.0000000000000000e+00  1.8762543595176210e-27 1.4275772191591822e-27 0.0000000000000000e+00  -2.2857298950997666e-27 -9.7176756741287411e-28 0.0000000000000000e+00  -1.0969093533073347e-27 -6.2416771884640346e-28 0.0000000000000000e+00  2.6390570037728694e-28 2.4862589797451478e-29 0.0000000000000000e+00  2.2909014480518847e-28 9.9811510906865243e-29 0.0000000000000000e+00  -4.5076907059353664e-29 5.6797846115965455e-30 0.0000000000000000e+00  -3.8621248822464923e-29 -1.1550448031776953e-29 0.0000000000000000e+00  1.3077957183023446e-29 2.3061288002407946e-31 0.0000000000000000e+00  4.6849017923325178e-30 6.8783043459122208e-31 0.0000000000000000e+00  -3.8649267618670970e-30 -5.3886269165395561e-31 0.0000000000000000e+00  1.5333660596591917e-32 1.8721595574682578e-31 0.0000000000000000e+00  8.1138173873029219e-31 1.3919994903865578e-31 0.0000000000000000e+00  -2.4052942249762091e-31 -1.0009191043930816e-31 0.0000000000000000e+00  -1.0874517952311973e-31 -1.6903685196865895e-32 0.0000000000000000e+00  8.0239133435598037e-32 2.8073515398345166e-32 0.0000000000000000e+00  -1.8983368188168176e-33 -2.6219124151262306e-33 0.0000000000000000e+00  -1.5045468379594108e-32 -5.4616479567759182e-33 0.0000000000000000e+00  4.6288996793206340e-33 1.8285503634872917e-33 0.0000000000000000e+00  1.4518255473883627e-33 6.4307277940932472e-34 0.0000000000000000e+00  -1.2665650790856144e-33 -5.2428981563072864e-34 0.0000000000000000e+00  1.2684534446082469e-34 2.3197774279650688e-35 0.0000000000000000e+00  1.6103133285322800e-34 8.3289755214753581e-35 0.0000000000000000e+00  -7.0618450637313549e-35 -3.0054809471106012e-35 0.0000000000000000e+00  -4.2782984247632655e-36 -4.5637245019061503e-36 0.0000000000000000e+00  1.2776613092043472e-35 6.4316985086445367e-36 0.0000000000000000e+00  -3.4590083396241288e-36 -1.5416800904879672e-36 0.0000000000000000e+00  -8.7753130884967560e-37 -3.6943034251060106e-37 0.0000000000000000e+00  8.6806829535367387e-37 3.4383243927749093e-37 0.0000000000000000e+00  -1.8969631838825978e-37 -8.4567877711524741e-38 0.0000000000000000e+00  -6.7009338323518212e-38 -5.5682105740489225e-39 0.0000000000000000e+00  6.1067015247788010e-38 1.0580931059346358e-38 0.0000000000000000e+00  -1.7666684132924787e-38 -4.6934654486278561e-39 0.0000000000000000e+00  -9.6411179788194560e-40 2.1225605910988938e-39 0.0000000000000000e+00  3.1908090959303973e-39 -8.6607534044843224e-40 0.0000000000000000e+00  -1.6374400545385932e-39 7.2177664652618515e-41 0.0000000000000000e+00  4.4463548566466193e-40 2.4497792586734728e-40 0.0000000000000000e+00  -1.7984890913442620e-41 -1.9661553966500568e-40 0.0000000000000000e+00  -6.6688203488240967e-41 6.8076157742151725e-41 0.0000000000000000e+00  3.4201867356216381e-41 -1.1344309116691198e-41 0.0000000000000000e+00  -3.4279918280894400e-41 -2.7508731252628818e-41 0.0000000000000000e+00  2.1942003781086572e-41 -1.8925054055436111e-41 0.0000000000000000e+00  1.3408311623904244e-40 1.2988022566981045e-40 0.0000000000000000e+00  -4.7925296768548406e-40 -4.2020178250776032e-40 0.0000000000000000e+00  6.0905258226659306e-39 4.8855243097390358e-39 0.0000000000000000e+00  -3.8370181159458059e-38 -3.5262275812634979e-38 0.0000000000000000e+00  1.5970232181099710e-37 1.4877247904236176e-37 0.0000000000000000e+00  -3.2743609208350236e-37 -2.9962905556248110e-37 0.0000000000000000e+00  2.0631342003264483e-36 1.9812775656228063e-36 0.0000000000000000e+00  -1.8603658039438170e-36 -2.2475109119595901e-36 0.0000000000000000e+00  -9.0841092835910090e-36 -5.4687708743921546e-36 0.0000000000000000e+00  5.7639377953212187e-35 4.4097460051919274e-35 0.0000000000000000e+00  -3.2098242061407218e-34 -2.7458438933100613e-34 0.0000000000000000e+00  4.6405351275572927e-34 4.1609681476963561e-34 0.0000000000000000e+00  -4.1661542003669262e-34 -5.3603430702164572e-34 0.0000000000000000e+00  2.6832964019026237e-33 1.7043127843576756e-33 0.0000000000000000e+00  4.1160047075439123e-33 4.8710678053442088e-33 0.0000000000000000e+00  -2.7615116325631631e-32 -1.8619059795356857e-32 0.0000000000000000e+00  -9.4749855834602326e-32 -1.4700204775743939e-31 0.0000000000000000e+00  2.3961148945121956e-31 4.7204267358871419e-31 0.0000000000000000e+00  -3.8249091994525652e-31 -8.7557008303831848e-31 0.0000000000000000e+00  -2.9001772006876120e-31 -3.8100189602477971e-31 0.0000000000000000e+00  2.0649358044822147e-30 2.9861060577217815e-30 0.0000000000000000e+00  1.8848393025338374e-32 1.8962468250370425e-31 0.0000000000000000e+00  3.9005818770149272e-30 1.1852064715479891e-29 0.0000000000000000e+00  -5.7328944973113346e-30 -7.7939653270952027e-30 0.0000000000000000e+00  -1.2375616414013599e-29 1.5908235067647857e-29 0.0000000000000000e+00  -2.5434115319521869e-30 -4.3668980314965475e-29 0.0000000000000000e+00  -2.6905914857825297e-29 -2.1405387190130130e-28 0.0000000000000000e+00  -1.5173528506645809e-29 -7.5216628113118707e-29 0.0000000000000000e+00  2.9828955114509233e-29 1.6263272898466210e-28 0.0000000000000000e+00  4.5112177567424374e-29 2.3773287672120769e-28 0.0000000000000000e+00  -1.0079625068147447e-29 -1.5773512829243161e-28 0.0000000000000000e+00  9.6440670205492668e-30 -3.5590556841422507e-28 0.0000000000000000e+00  -2.9877627270595732e-29 -6.8668965473057581e-29 0.0000000000000000e+00  -1.0552969774677191e-28 -7.1138230429298742e-29 0.0000000000000000e+00  -9.3919844326391171e-29 1.6255022966639046e-28 0.0000000000000000e+00  -1.1746065091315845e-28 1.0412775860699504e-28 0.0000000000000000e+00  -9.9484400846361855e-29 -8.7373834606121642e-29 0.0000000000000000e+00  -8.3221018729437539e-29 -7.9339319563771533e-29 0.0000000000000000e+00  -7.8766202881201969e-29 -2.2874581180753986e-28 0.0000000000000000e+00  1.4472352058026942e-28 -5.1607191757124467e-28 0.0000000000000000e+00  2.3590632311337032e-28 -1.1186278273227049e-28 0.0000000000000000e+00  2.0972356339954707e-28 5.6193340804794353e-28 0.0000000000000000e+00  1.5468489543989839e-28 -6.0724481070178504e-29 0.0000000000000000e+00  2.0471013888250832e-29 -8.9901217002247511e-28 0.0000000000000000e+00  7.7141776767428778e-29 4.2992290996365569e-28 0.0000000000000000e+00  7.6877740618391874e-29 3.8542753779539642e-28 0.0000000000000000e+00  6.7291580635771857e-29 -6.5689412993159345e-28 0.0000000000000000e+00  4.9361095717876478e-29 -2.0592453151627380e-28 0.0000000000000000e+00  8.4512869014710583e-29 -6.0812671954892204e-28 0.0000000000000000e+00  -5.5168785533234691e-29 4.8128292142400793e-28 0.0000000000000000e+00  -5.7839286360453370e-29 4.9455388902129334e-28 0.0000000000000000e+00  6.8807385815107122e-29 -6.0967106217115545e-28 0.0000000000000000e+00  1.7801331813342220e-29 -2.1746850334350236e-28 0.0000000000000000e+00  5.6908266281740809e-29 -3.5115539116495280e-28 0.0000000000000000e+00  -7.6718059008297803e-30 -1.4854321857579266e-28 0.0000000000000000e+00  -1.5515914234259354e-29 -5.9057699940359483e-29 0.0000000000000000e+00  5.0746087926999660e-29 -3.3333947199242572e-28 0.0000000000000000e+00  9.9242693511999429e-30 -1.4376704395555708e-28 0.0000000000000000e+00  5.0187707090832335e-29 -1.8713907049289209e-28 0.0000000000000000e+00  5.2473720914035338e-29 -2.5576455634993814e-28 0.0000000000000000e+00  4.5286390537248589e-29 -1.6660576027629109e-28 0.0000000000000000e+00  -5.5137324802072184e-30 3.8635917936599131e-29 0.0000000000000000e+00  -4.4394606633978599e-29 2.0605713379697722e-28 0.0000000000000000e+00  -9.6431871740455775e-30 4.0294113309984256e-31 0.0000000000000000e+00  5.1224242721617545e-30 -1.0365015595040665e-28 0.0000000000000000e+00  1.2585477532595151e-29 -7.7925686462364874e-29 0.0000000000000000e+00  1.8417253258651249e-29 -5.5438859715559968e-29 0.0000000000000000e+00  -1.1937728023452282e-29 6.7504689841565713e-29 0.0000000000000000e+00  -3.2648567852786492e-29 2.3895193104356107e-28 0.0000000000000000e+00  -1.4703565683832513e-29 9.2129686817400399e-29 0.0000000000000000e+00  6.9760181335957521e-31 -5.2955352031565278e-29 0.0000000000000000e+00  8.6974230931862318e-30 -1.7831190594699075e-29 0.0000000000000000e+00  -2.2246681052991337e-30 9.3287051258818672e-30 0.0000000000000000e+00  -5.6662675242906656e-30 2.3671820493172719e-29 0.0000000000000000e+00  2.2434898883382848e-30 -6.3296791519368374e-30 0.0000000000000000e+00  2.9797386607853408e-30 -8.4744542005449964e-30 0.00000000000