<?xml version="1.0"?>
<VTKFile type="UnstructuredGrid"  version="0.1"  >
<UnstructuredGrid>
<Piece  NumberOfPoints="11902" NumberOfCells="23402">
<Points>
<DataArray  type="Float64"  NumberOfComponents="3"  format="ascii">-5 -5 0  5 -5 0  5 5 0  -5 5 0  1.245827661808744 0.001373760913371051 0  -4.9 -5 0  -4.8 -5 0  -4.7 -5 0  -4.6 -5 0  -4.5 -5 0  -4.4 -5 0  -4.3 -5 0  -4.2 -5 0  -4.1 -5 0  -4 -5 0  -3.9 -5 0  -3.8 -5 0  -3.7 -5 0  -3.6 -5 0  -3.5 -5 0  -3.4 -5 0  -3.3 -5 0  -3.2 -5 0  -3.1 -5 0  -3 -5 0  -2.9 -5 0  -2.8 -5 0  -2.7 -5 0  -2.6 -5 0  -2.5 -5 0  -2.4 -5 0  -2.3 -5 0  -2.2 -5 0  -2.1 -5 0  -2 -5 0  -1.9 -5 0  -1.8 -5 0  -1.7 -5 0  -1.6 -5 0  -1.5 -5 0  -1.4 -5 0  -1.3 -5 0  -1.2 -5 0  -1.1 -5 0  -1 -5 0  -0.9000000000000004 -5 0  -0.7999999999999998 -5 0  -0.7000000000000002 -5 0  -0.5999999999999996 -5 0  -0.5 -5 0  -0.4000000000000004 -5 0  -0.2999999999999998 -5 0  -0.2000000000000002 -5 0  -0.09999999999999964 -5 0  0 -5 0  0.09999999999999964 -5 0  0.2000000000000002 -5 0  0.2999999999999998 -5 0  0.4000000000000004 -5 0  0.5 -5 0  0.5999999999999996 -5 0  0.7000000000000002 -5 0  0.7999999999999998 -5 0  0.9000000000000004 -5 0  1 -5 0  1.1 -5 0  1.2 -5 0  1.3 -5 0  1.4 -5 0  1.5 -5 0  1.6 -5 0  1.7 -5 0  1.8 -5 0  1.9 -5 0  2 -5 0  2.1 -5 0  2.2 -5 0  2.3 -5 0  2.4 -5 0  2.5 -5 0  2.6 -5 0  2.7 -5 0  2.8 -5 0  2.9 -5 0  3 -5 0  3.1 -5 0  3.199999999999999 -5 0  3.300000000000001 -5 0  3.4 -5 0  3.5 -5 0  3.6 -5 0  3.699999999999999 -5 0  3.800000000000001 -5 0  3.9 -5 0  4 -5 0  4.1 -5 0  4.199999999999999 -5 0  4.300000000000001 -5 0  4.4 -5 0  4.5 -5 0  4.6 -5 0  4.699999999999999 -5 0  4.800000000000001 -5 0  4.9 -5 0  5 -4.9 0  5 -4.8 0  5 -4.7 0  5 -4.6 0  5 -4.5 0  5 -4.4 0  5 -4.3 0  5 -4.2 0  5 -4.1 0  5 -4 0  5 -3.9 0  5 -3.8 0  5 -3.7 0  5 -3.6 0  5 -3.5 0  5 -3.4 0  5 -3.3 0  5 -3.2 0  5 -3.1 0  5 -3 0  5 -2.9 0  5 -2.8 0  5 -2.7 0  5 -2.6 0  5 -2.5 0  5 -2.4 0  5 -2.3 0  5 -2.2 0  5 -2.1 0  5 -2 0  5 -1.9 0  5 -1.8 0  5 -1.7 0  5 -1.6 0  5 -1.5 0  5 -1.4 0  5 -1.3 0  5 -1.2 0  5 -1.1 0  5 -1 0  5 -0.9000000000000004 0  5 -0.7999999999999998 0  5 -0.7000000000000002 0  5 -0.5999999999999996 0  5 -0.5 0  5 -0.4000000000000004 0  5 -0.2999999999999998 0  5 -0.2000000000000002 0  5 -0.09999999999999964 0  5 0 0  5 0.09999999999999964 0  5 0.2000000000000002 0  5 0.2999999999999998 0  5 0.4000000000000004 0  5 0.5 0  5 0.5999999999999996 0  5 0.7000000000000002 0  5 0.7999999999999998 0  5 0.9000000000000004 0  5 1 0  5 1.1 0  5 1.2 0  5 1.3 0  5 1.4 0  5 1.5 0  5 1.6 0  5 1.7 0  5 1.8 0  5 1.9 0  5 2 0  5 2.1 0  5 2.2 0  5 2.3 0  5 2.4 0  5 2.5 0  5 2.6 0  5 2.7 0  5 2.8 0  5 2.9 0  5 3 0  5 3.1 0  5 3.199999999999999 0  5 3.300000000000001 0  5 3.4 0  5 3.5 0  5 3.6 0  5 3.699999999999999 0  5 3.800000000000001 0  5 3.9 0  5 4 0  5 4.1 0  5 4.199999999999999 0  5 4.300000000000001 0  5 4.4 0  5 4.5 0  5 4.6 0  5 4.699999999999999 0  5 4.800000000000001 0  5 4.9 0  4.9 5 0  4.8 5 0  4.7 5 0  4.6 5 0  4.5 5 0  4.4 5 0  4.3 5 0  4.2 5 0  4.1 5 0  4 5 0  3.9 5 0  3.8 5 0  3.7 5 0  3.6 5 0  3.5 5 0  3.4 5 0  3.3 5 0  3.2 5 0  3.1 5 0  3 5 0  2.9 5 0  2.8 5 0  2.7 5 0  2.6 5 0  2.5 5 0  2.4 5 0  2.3 5 0  2.2 5 0  2.1 5 0  2 5 0  1.9 5 0  1.8 5 0  1.7 5 0  1.6 5 0  1.5 5 0  1.4 5 0  1.3 5 0  1.2 5 0  1.1 5 0  1 5 0  0.9000000000000004 5 0  0.7999999999999998 5 0  0.7000000000000002 5 0  0.5999999999999996 5 0  0.5 5 0  0.4000000000000004 5 0  0.2999999999999998 5 0  0.2000000000000002 5 0  0.09999999999999964 5 0  0 5 0  -0.09999999999999964 5 0  -0.2000000000000002 5 0  -0.2999999999999998 5 0  -0.4000000000000004 5 0  -0.5 5 0  -0.5999999999999996 5 0  -0.7000000000000002 5 0  -0.7999999999999998 5 0  -0.9000000000000004 5 0  -1 5 0  -1.1 5 0  -1.2 5 0  -1.3 5 0  -1.4 5 0  -1.5 5 0  -1.6 5 0  -1.7 5 0  -1.8 5 0  -1.9 5 0  -2 5 0  -2.1 5 0  -2.2 5 0  -2.3 5 0  -2.4 5 0  -2.5 5 0  -2.6 5 0  -2.7 5 0  -2.8 5 0  -2.9 5 0  -3 5 0  -3.1 5 0  -3.199999999999999 5 0  -3.300000000000001 5 0  -3.4 5 0  -3.5 5 0  -3.6 5 0  -3.699999999999999 5 0  -3.800000000000001 5 0  -3.9 5 0  -4 5 0  -4.1 5 0  -4.199999999999999 5 0  -4.300000000000001 5 0  -4.4 5 0  -4.5 5 0  -4.6 5 0  -4.699999999999999 5 0  -4.800000000000001 5 0  -4.9 5 0  -5 4.9 0  -5 4.8 0  -5 4.7 0  -5 4.6 0  -5 4.5 0  -5 4.4 0  -5 4.3 0  -5 4.2 0  -5 4.1 0  -5 4 0  -5 3.9 0  -5 3.8 0  -5 3.7 0  -5 3.6 0  -5 3.5 0  -5 3.4 0  -5 3.3 0  -5 3.2 0  -5 3.1 0  -5 3 0  -5 2.9 0  -5 2.8 0  -5 2.7 0  -5 2.6 0  -5 2.5 0  -5 2.4 0  -5 2.3 0  -5 2.2 0  -5 2.1 0  -5 2 0  -5 1.9 0  -5 1.8 0  -5 1.7 0  -5 1.6 0  -5 1.5 0  -5 1.4 0  -5 1.3 0  -5 1.2 0  -5 1.1 0  -5 1 0  -5 0.9000000000000004 0  -5 0.7999999999999998 0  -5 0.7000000000000002 0  -5 0.5999999999999996 0  -5 0.5 0  -5 0.4000000000000004 0  -5 0.2999999999999998 0  -5 0.2000000000000002 0  -5 0.09999999999999964 0  -5 0 0  -5 -0.09999999999999964 0  -5 -0.2000000000000002 0  -5 -0.2999999999999998 0  -5 -0.4000000000000004 0  -5 -0.5 0  -5 -0.5999999999999996 0  -5 -0.7000000000000002 0  -5 -0.7999999999999998 0  -5 -0.9000000000000004 0  -5 -1 0  -5 -1.1 0  -5 -1.2 0  -5 -1.3 0  -5 -1.4 0  -5 -1.5 0  -5 -1.6 0  -5 -1.7 0  -5 -1.8 0  -5 -1.9 0  -5 -2 0  -5 -2.1 0  -5 -2.2 0  -5 -2.3 0  -5 -2.4 0  -5 -2.5 0  -5 -2.6 0  -5 -2.7 0  -5 -2.8 0  -5 -2.9 0  -5 -3 0  -5 -3.1 0  -5 -3.199999999999999 0  -5 -3.300000000000001 0  -5 -3.4 0  -5 -3.5 0  -5 -3.6 0  -5 -3.699999999999999 0  -5 -3.800000000000001 0  -5 -3.9 0  -5 -4 0  -5 -4.1 0  -5 -4.199999999999999 0  -5 -4.300000000000001 0  -5 -4.4 0  -5 -4.5 0  -5 -4.6 0  -5 -4.699999999999999 0  -5 -4.800000000000001 0  -5 -4.9 0  1.238509390821085 0.09639673596900257 0  1.217798222896749 0.1936614241672621 0  1.184682545305441 0.2902613264816141 0  1.142140186288474 0.3798371669863954 0  1.085616919667829 0.4703966076831082 0  1.02072653126082 0.5551102273340262 0  0.9437039284374602 0.6348641885133264 0  0.8580146536519004 0.7087633792731445 0  0.7664916016290224 0.7741255604263253 0  0.6647591588467652 0.8317395247530818 0  0.5549601075853027 0.8839406790784899 0  0.4433048470865907 0.9272897068894091 0  0.3304270749740452 0.9600021464711398 0  0.2080034197432756 0.9816478624725971 0  0.08940724982367604 0.9996481971065656 0  -0.02752292949947293 1.002724140286254 0  -0.1452371350488336 0.9899135767658516 0  -0.2698076464865909 0.9715110083229055 0  -0.388032178857082 0.9467054707091002 0  -0.498881997998866 0.9103873366309132 0  -0.6071431724180234 0.8640676085379777 0  -0.7091525397651787 0.8096331266765668 0  -0.8034739968408507 0.7452240188873633 0  -0.8932835359611495 0.6727087748934855 0  -0.9770859259037744 0.5936086782790521 0  -1.049723575812954 0.5123321382772046 0  -1.111071832047747 0.42631068309542 0  -1.162289411689545 0.3346834237757885 0  -1.199968179648325 0.2433571905815345 0  -1.22446650155044 0.1486892397174912 0  -1.23634586748074 0.05090943708920507 0  -1.236298728064238 -0.04879942341793801 0  -1.224368019519378 -0.14595995877266 0  -1.199802845018636 -0.239925139987692 0  -1.160111185100952 -0.3348874949493837 0  -1.111300740408652 -0.4260288648979457 0  -1.051117093628438 -0.5119586797037349 0  -0.9792838345647794 -0.5925331022284429 0  -0.8960939001986988 -0.6703827187068141 0  -0.8065561103652509 -0.7413836427978199 0  -0.7106724010571284 -0.8023468808479466 0  -0.6067865914413945 -0.8557524368180928 0  -0.494897774599669 -0.9046992432597508 0  -0.3823503664399827 -0.943824597582037 0  -0.2664968710470694 -0.970915041726178 0  -0.1438936811855174 -0.9894562326630929 0  -0.02796349714579815 -1.001869982237669 0  0.08948049648930703 -0.9952597589009309 0  0.2125860223674005 -0.9786891844908444 0  0.3327541664636939 -0.9584213090369772 0  0.4473696324586123 -0.925947491983993 0  0.5571889187239065 -0.883048570921991 0  0.665635436060979 -0.8317372052603812 0  0.7665214302115857 -0.7752922817305063 0  0.858103164359209 -0.7097089895045958 0  0.9430749720585794 -0.6347451451329188 0  1.018348656292146 -0.5543631831757238 0  1.085797161734369 -0.4694607747103948 0  1.143062014955168 -0.3799711591174294 0  1.186372701972853 -0.2882992123539047 0  1.218351401803395 -0.1927728859262501 0  1.238717613891243 -0.09603463155252488 0  -2.448603124083908 4.918190084119283 0  -2.448481076243965 -4.910575365560545 0  4.910501518155787 2.447951246027424 0  4.918620446669863 -2.449407631598087 0  2.446218188794107 -4.895820972983439 0  2.440650001448911 4.899580576001709 0  -4.910527972442793 -2.447977058175428 0  -4.910525381678529 2.447980939033836 0  -1.748558856034034 4.911112160388492 0  -1.744343701523746 -4.91454941751839 0  4.9206992700781 1.744120720721856 0  4.909242361001496 -1.747889198544726 0  -4.909535440983843 -1.747622682293518 0  -4.910357117443313 1.747366938881791 0  1.745834438827842 4.90497582133897 0  1.747252949857095 -4.893133063268553 0  -1.148861113396783 4.908916811969471 0  -1.129715624877301 -4.916823997747136 0  -4.909274446316984 -1.147941130574238 0  -4.909093051641992 1.14774148761469 0  1.143854551287526 -4.913012213822172 0  1.148870763671813 4.908903798068883 0  4.909415151999367 1.146216707282073 0  4.920236512459956 -1.151997071632014 0  -0.5466791841553272 -4.910116023633038 0  -0.546460792244392 4.918792218502111 0  -4.908024202020887 -0.5487159041476333 0  -4.908048212985456 0.5472734355695498 0  4.907345133003147 -0.5490344553635426 0  4.918990777012494 0.5457907534296724 0  0.5424625775613816 -4.897006626485793 0  0.5511896839509988 4.915618069289374 0  -4.911930858302708 -3.04832563687284 0  4.918499300152075 3.046339708723563 0  4.911439041515887 -3.048301834436581 0  -4.912778447149575 3.045416938264666 0  3.055324668870044 -4.917424644572292 0  -3.048657336770124 -4.911363135059856 0  3.052224026111994 4.913440239938258 0  -3.048102768410532 4.912252603498899 0  -4.907138727522358 -0.04990848622152066 0  0.04512047718005246 -4.912066943355894 0  0.04956820132874337 4.919087639479454 0  4.914187794350664 -0.05129050967342327 0  3.545638172226074 -4.919056048035411 0  -3.548920301662629 4.91
[...]
<PointData  Vectors="f_3842"> 
<DataArray  type="Float64"  Name="f_3842"  NumberOfComponents="3" format="ascii">-8.8485820934165586e-41 -1.2138077295172788e-40 0.0000000000000000e+00  9.5163894907998325e-41 -1.2327762284385626e-40 0.0000000000000000e+00  -1.8323707183370231e-40 -1.7566591786982301e-40 0.0000000000000000e+00  -1.9516477414885225e-40 1.9723171847400112e-40 0.0000000000000000e+00  1.6320248784271612e+01 1.0715967612248696e-01 0.0000000000000000e+00  2.2477603358853959e-40 2.6933615100393238e-40 0.0000000000000000e+00  7.5338576246968142e-40 7.2075600151444342e-40 0.0000000000000000e+00  -1.8952207033299568e-39 -1.9795847863576175e-39 0.0000000000000000e+00  1.4822848566060848e-38 1.7367341157308073e-38 0.0000000000000000e+00  -5.1606907795609502e-38 -6.0008014422745594e-38 0.0000000000000000e+00  1.8852141954855455e-37 2.5016670914529083e-37 0.0000000000000000e+00  -7.0773405198808537e-37 -9.8675892014230323e-37 0.0000000000000000e+00  3.7782565667982631e-36 5.1436487904204022e-36 0.0000000000000000e+00  -2.1945714758020993e-35 -2.7927277262320875e-35 0.0000000000000000e+00  9.3894658707338495e-35 1.2008020020159321e-34 0.0000000000000000e+00  -2.0900780195730647e-34 -2.5141111522333768e-34 0.0000000000000000e+00  4.0586854252325739e-34 4.4652621527910871e-34 0.0000000000000000e+00  1.6703182095093201e-33 1.9062782248196907e-33 0.0000000000000000e+00  -6.8577389724867247e-33 -8.8042527123478802e-33 0.0000000000000000e+00  1.7121358965290941e-32 2.5163283983645927e-32 0.0000000000000000e+00  -1.0509434928262145e-31 -1.4799533529016403e-31 0.0000000000000000e+00  2.8380062089915983e-31 4.0104929579619591e-31 0.0000000000000000e+00  2.1258342547168781e-31 2.4119446330755838e-31 0.0000000000000000e+00  -1.6736898880653500e-30 -2.0532798320160067e-30 0.0000000000000000e+00  -4.7483559377726147e-31 -1.0985342918487278e-30 0.0000000000000000e+00  -6.2573650115946930e-31 -1.9786553224833680e-30 0.0000000000000000e+00  3.5193072030016695e-30 7.2241214176460284e-30 0.0000000000000000e+00  -8.1427573291620485e-30 -2.8905143702315962e-29 0.0000000000000000e+00  2.9566424364661213e-29 8.0170755235217893e-29 0.0000000000000000e+00  1.6562646258257858e-29 4.8092742752230130e-29 0.0000000000000000e+00  -1.4878621242614881e-28 -3.8127797831869605e-28 0.0000000000000000e+00  -5.9835053482185205e-29 -1.7118065590991156e-28 0.0000000000000000e+00  -8.9718119122895419e-29 -3.7066661162034522e-28 0.0000000000000000e+00  1.4382147952706020e-28 4.9286722927091780e-28 0.0000000000000000e+00  3.8021612988019085e-28 1.5082063855272230e-27 0.0000000000000000e+00  5.2939285727121577e-29 -7.5796077264185571e-29 0.0000000000000000e+00  1.7102171294486582e-28 4.5444323125986877e-28 0.0000000000000000e+00  -4.8870549529336311e-29 -2.7270401254365311e-28 0.0000000000000000e+00  -4.5264017776230325e-28 -1.5414331491932798e-27 0.0000000000000000e+00  -4.4526320892395163e-28 -1.4552263667428751e-27 0.0000000000000000e+00  -3.7667976868427028e-29 -5.3223386600181906e-29 0.0000000000000000e+00  4.0568599848286315e-28 1.6268937957468205e-27 0.0000000000000000e+00  2.7041537143512895e-28 9.4591899915511772e-28 0.0000000000000000e+00  1.1639420424893531e-29 -1.3243465093341049e-28 0.0000000000000000e+00  1.3839503276379244e-28 3.7256483426622376e-28 0.0000000000000000e+00  -2.6910658751682500e-28 8.4997725160178203e-28 0.0000000000000000e+00  -1.3954952768355668e-28 1.4823546235386754e-27 0.0000000000000000e+00  1.6005506775107747e-28 -8.7103832385580835e-28 0.0000000000000000e+00  6.6559456273395938e-30 4.8256158004490623e-27 0.0000000000000000e+00  -2.7008531810939251e-28 -4.7408784907350809e-29 0.0000000000000000e+00  -5.6947663076644675e-28 -4.2247451640206139e-27 0.0000000000000000e+00  -6.3164502080043704e-28 -2.4256514545173228e-27 0.0000000000000000e+00  -4.0161029480956134e-28 -3.5753734389747623e-27 0.0000000000000000e+00  7.8811859734104886e-29 -9.0629040877632788e-27 0.0000000000000000e+00  2.2515684859547950e-28 -1.0379321800482286e-26 0.0000000000000000e+00  -4.5158634222763683e-29 -1.7859453328329062e-27 0.0000000000000000e+00  -4.9101125269912143e-29 -5.6533144008489633e-27 0.0000000000000000e+00  -8.8103525940275609e-29 -2.0955040733646187e-27 0.0000000000000000e+00  4.2842556020842758e-29 -3.6712405679884443e-27 0.0000000000000000e+00  -1.1324604842736536e-28 1.7178390916910942e-27 0.0000000000000000e+00  2.9287289087501218e-28 -4.9317998784495485e-27 0.0000000000000000e+00  4.5065800826728456e-28 -4.5195537645500894e-27 0.0000000000000000e+00  -2.6769617050979513e-29 1.0044604307137069e-27 0.0000000000000000e+00  -5.5022311761104786e-28 6.8741280057510952e-27 0.0000000000000000e+00  -3.0069406822940997e-28 2.7570374511722871e-27 0.0000000000000000e+00  -2.9903880295967920e-28 1.4919680832995137e-27 0.0000000000000000e+00  -5.7489264658809590e-28 3.9967021376030633e-27 0.0000000000000000e+00  -3.3454695039474127e-28 2.1085973467787609e-27 0.0000000000000000e+00  3.3226411020966838e-28 -2.4946739891576065e-27 0.0000000000000000e+00  2.4499109824136434e-28 -1.1848849363830216e-27 0.0000000000000000e+00  5.3635671930697635e-29 -1.3954783939300537e-28 0.0000000000000000e+00  2.6358397937322530e-28 -8.3125941189573061e-28 0.0000000000000000e+00  1.6608534746797067e-28 -6.4988727189045249e-28 0.0000000000000000e+00  -1.4623393640429266e-28 5.7840626248568531e-28 0.0000000000000000e+00  -8.3654394601031823e-29 2.6170260390321888e-28 0.0000000000000000e+00  -6.3666527554294043e-29 2.3716378651988508e-28 0.0000000000000000e+00  1.9483877799594040e-29 -6.2366169108280456e-29 0.0000000000000000e+00  4.2611639379145167e-29 -1.4625840296741943e-28 0.0000000000000000e+00  6.6026762829638209e-29 -2.0589736231105725e-28 0.0000000000000000e+00  -8.9900665268414515e-30 1.4652754289796182e-29 0.0000000000000000e+00  -5.7590799745834562e-29 1.5063036371517846e-28 0.0000000000000000e+00  9.3585082092675927e-30 -2.3932021297933013e-29 0.0000000000000000e+00  3.3755463928677887e-30 -8.3234069500698177e-30 0.0000000000000000e+00  -1.1456395316551398e-29 2.1761691365757942e-29 0.0000000000000000e+00  -1.2271840070971047e-30 1.5778884842521809e-30 0.0000000000000000e+00  1.4453645498042512e-30 -2.3059755310532990e-30 0.0000000000000000e+00  -6.8722535421698651e-31 1.0666752667201910e-30 0.0000000000000000e+00  1.0596670618284045e-31 -1.6683458161732114e-31 0.0000000000000000e+00  -1.0968431411382304e-32 1.7469950439694295e-32 0.0000000000000000e+00  -3.0295577341411753e-33 3.8722850629099751e-33 0.0000000000000000e+00  6.4919845520589214e-33 -8.0231609440560898e-33 0.0000000000000000e+00  -1.0747837284216552e-34 2.1506490245395130e-34 0.0000000000000000e+00  -2.2534013242930260e-34 2.4187522295175500e-34 0.0000000000000000e+00  1.2780745969233764e-35 -4.0889984762601760e-36 0.0000000000000000e+00  -4.9534573769186806e-36 6.0951680156716202e-36 0.0000000000000000e+00  2.7093607026413335e-36 -3.1094318751112845e-36 0.0000000000000000e+00  -1.7333235597979142e-36 1.8217754492278568e-36 0.0000000000000000e+00  5.1813514847099801e-37 -5.8663205418657960e-37 0.0000000000000000e+00  -2.5074911858614156e-37 2.6534243283986540e-37 0.0000000000000000e+00  8.1565982363517480e-38 -8.3067905817662092e-38 0.0000000000000000e+00  -1.4770817280363419e-38 1.5444124324747070e-38 0.0000000000000000e+00  5.6563809317582234e-39 -5.6894013124829008e-39 0.0000000000000000e+00  -4.5940218073939967e-40 3.9339688737537306e-40 0.0000000000000000e+00  -1.7052340303454492e-40 2.1624719929133196e-40 0.0000000000000000e+00  8.2425223367936405e-42 -2.4967942852006189e-42 0.0000000000000000e+00  3.7993547942561588e-40 -3.1078753780074568e-40 0.0000000000000000e+00  -8.3882133628975909e-40 6.8243312472111314e-40 0.0000000000000000e+00  2.4470693717906598e-39 -2.3001539650547040e-39 0.0000000000000000e+00  -2.4081487195314408e-40 9.4847788002908483e-40 0.0000000000000000e+00  -1.5278151310925709e-38 1.1664302851651288e-38 0.0000000000000000e+00  4.8813177100003367e-38 -4.1187356077693850e-38 0.0000000000000000e+00  -4.9195206398334588e-38 4.9119296450551813e-38 0.0000000000000000e+00  -1.6958816359394356e-37 1.1491434829280516e-37 0.0000000000000000e+00  8.1455663922177390e-37 -6.3282737096426149e-37 0.0000000000000000e+00  -1.1773292782389118e-36 1.0019168635475561e-36 0.0000000000000000e+00  -1.8480189182244533e-36 1.1509803829779490e-36 0.0000000000000000e+00  1.1632829182520342e-35 -8.5658435395775296e-36 0.0000000000000000e+00  -1.9449047253333953e-35 1.5121363825430620e-35 0.0000000000000000e+00  -2.3334380676863140e-35 1.4616099885179461e-35 0.0000000000000000e+00  1.6940283848650144e-34 -1.1961856352081884e-34 0.0000000000000000e+00  -2.3848009890957369e-34 1.7397995459800588e-34 0.0000000000000000e+00  -4.3401662470238120e-34 2.8526733288883396e-34 0.0000000000000000e+00  2.2666036891982214e-33 -1.5333361935250412e-33 0.0000000000000000e+00  -1.9112511666383976e-33 1.3023182602319609e-33 0.0000000000000000e+00  -8.8397274011195093e-33 5.7454495099956238e-33 0.0000000000000000e+00  2.5480150591915025e-32 -1.6301886403939913e-32 0.0000000000000000e+00  6.0212595700467071e-33 -4.1114003886355685e-33 0.0000000000000000e+00  -1.4530903189967838e-31 8.9425257843331651e-32 0.0000000000000000e+00  1.7573899857589514e-31 -1.0130933434507072e-31 0.0000000000000000e+00  5.0921050615059740e-31 -3.0682229155627202e-31 0.0000000000000000e+00  -1.4097772659797649e-30 7.8572072319049935e-31 0.0000000000000000e+00  -9.7807434460662558e-31 6.3123548562053732e-31 0.0000000000000000e+00  7.7988556516266994e-30 -4.1771404930272078e-30 0.0000000000000000e+00  -1.8128942475770543e-30 3.1209587735052751e-31 0.0000000000000000e+00  -3.5305959521655380e-29 1.8244682117861341e-29 0.0000000000000000e+00  2.7764629836621450e-29 -9.7381687211417103e-30 0.0000000000000000e+00  1.4678012033625963e-28 -7.3617989190252578e-29 0.0000000000000000e+00  -1.6344545232473480e-28 5.2841143327723082e-29 0.0000000000000000e+00  -6.2190091375669862e-28 2.9680320842108275e-28 0.0000000000000000e+00  6.6283314051694262e-28 -1.5714116717190745e-28 0.0000000000000000e+00  2.6212900824731094e-27 -1.1425373793239027e-27 0.0000000000000000e+00  -2.0495200448374637e-27 1.6548376677384317e-28 0.0000000000000000e+00  -1.0232606267590164e-26 3.5042965943712200e-27 0.0000000000000000e+00  3.0373830717233153e-27 1.3088584319714026e-27 0.0000000000000000e+00  3.2772684461085258e-26 -7.9348909315062817e-27 0.0000000000000000e+00  1.6102103862591949e-26 -8.7939468798579688e-27 0.0000000000000000e+00  -8.9631703637999872e-26 1.1782075303476114e-26 0.0000000000000000e+00  -1.3050884726231436e-25 2.0923087768524133e-26 0.0000000000000000e+00  1.6881357548143013e-25 -4.1967984478007280e-26 0.0000000000000000e+00  9.0240310675061790e-25 -1.9240922889600333e-25 0.0000000000000000e+00  1.5953649903831810e-24 -3.1962043722538481e-25 0.0000000000000000e+00  1.8825966877363428e-24 -3.2544436505762036e-25 0.0000000000000000e+00  1.7769821175185745e-24 -1.8307299381966346e-25 0.0000000000000000e+00  1.7587238732588961e-24 2.2857918953393558e-26 0.0000000000000000e+00  1.8901233739593534e-24 2.0355812580991407e-25 0.0000000000000000e+00  1.7798230536294907e-24 2.7074913846609474e-25 0.0000000000000000e+00  1.1946691003610373e-24 2.0295457150450684e-25 0.0000000000000000e+00  3.8500022153873051e-25 6.4385015193764741e-26 0.0000000000000000e+00  -1.2461867998491921e-25 -3.0575111675803492e-26 0.0000000000000000e+00  -1.9008051961888570e-25 -3.8212226609098927e-26 0.0000000000000000e+00  -3.3069823197249439e-26 7.2579046936142438e-28 0.0000000000000000e+00  5.6950276244066501e-26 2.0653621327287844e-26 0.0000000000000000e+00  3.4921890344164527e-26 1.0836540451326313e-26 0.0000000000000000e+00  -4.1746357576537990e-27 -1.8446784121593623e-27 0.0000000000000000e+00  -9.4658473868201721e-27 -3.1470666302576692e-27 0.0000000000000000e+00  -4.2792354518885902e-28 5.4922742039096880e-29 0.0000000000000000e+00  2.4177927603870755e-27 9.2424196339447561e-28 0.0000000000000000e+00  2.4601564904068245e-28 5.0783732195727979e-29 0.0000000000000000e+00  -5.9068928503236184e-28 -2.4413491286087257e-28 0.0000000000000000e+00  -5.0096231220112209e-29 -1.0226267532673790e-29 0.0000000000000000e+00  1.3839143556825342e-28 6.0484690312191106e-29 0.0000000000000000e+00  -1.2987589089951014e-30 -3.5412967110247845e-30 0.0000000000000000e+00  -3.0434523873956661e-29 -1.3916530184011230e-29 0.0000000000000000e+00  4.0271403983185775e-30 2.6613583190401178e-30 0.0000000000000000e+00  5.5932422868225338e-30 2.6328245808039450e-30 0.0000000000000000e+00  -1.9119940661902996e-30 -1.1296869214355306e-30 0.0000000000000000e+00  -7.7851966865321184e-31 -3.5735509357814363e-31 0.0000000000000000e+00  5.6615048301767553e-31 3.3210270492356286e-31 0.0000000000000000e+00  1.3545565424200685e-32 -8.0365224059160471e-33 0.0000000000000000e+00  -1.1788587956223142e-31 -6.9930127003095590e-32 0.0000000000000000e+00  2.8940503822204947e-32 2.0781162474747507e-32 0.0000000000000000e+00  1.5899794009667537e-32 9.1613011683241917e-33 0.0000000000000000e+00  -1.0785923168646152e-32 -7.2721826645910719e-33 0.0000000000000000e+00  3.5325191745983474e-34 4.3418616160840804e-34 0.0000000000000000e+00  1.8404477375090644e-33 1.2468872246646607e-33 0.0000000000000000e+00  -7.3096877531115822e-34 -5.3525243217109276e-34 0.0000000000000000e+00  -7.8923814371706062e-35 -4.9671830537037749e-35 0.0000000000000000e+00  1.6450584429432663e-34 1.2165430553592327e-34 0.0000000000000000e+00  -4.9742941191026171e-35 -3.7916347995408494e-35 0.0000000000000000e+00  -8.7090963110085614e-36 -6.9233540301911887e-36 0.0000000000000000e+00  1.1810707304930252e-35 9.3677666074781114e-36 0.0000000000000000e+00  -3.4161857172269055e-36 -2.6625121691617871e-36 0.0000000000000000e+00  -5.3296269477062769e-37 -5.0305641079609376e-37 0.0000000000000000e+00  7.8826699350422614e-37 6.6991067260933179e-37 0.0000000000000000e+00  -2.5767003223730951e-37 -2.0865223726489672e-37 0.0000000000000000e+00  -1.1054668408965989e-38 -1.8028922072864790e-38 0.0000000000000000e+00  4.5509930960028333e-38 4.2349499365674307e-38 0.0000000000000000e+00  -1.9773870959846905e-38 -1.7187883232282920e-38 0.0000000000000000e+00  1.9819825600553039e-39 1.0522948749168280e-39 0.0000000000000000e+00  2.0853578195804413e-39 2.2289922871422728e-39 0.0000000000000000e+00  -1.3025792982755877e-39 -1.2458409676556618e-39 0.0000000000000000e+00  3.4008769718509155e-40 2.9215750650913469e-40 0.0000000000000000e+00  8.3194907789931982e-41 1.1698896675189031e-40 0.0000000000000000e+00  3.0090973317134743e-40 2.7998077559989503e-40 0.0000000000000000e+00  -6.4238237759107035e-40 -7.5650244186580077e-40 0.0000000000000000e+00  1.3521158194875614e-39 1.5926041468467316e-39 0.0000000000000000e+00  -8.6414069840420234e-39 -1.0669996100413068e-38 0.0000000000000000e+00  7.5492129097888814e-38 8.0225012988931248e-38 0.0000000000000000e+00  -2.1085345422723040e-37 -2.0578244490331775e-37 0.0000000000000000e+00  2.7492220962175128e-37 2.8506942196089821e-37 0.0000000000000000e+00  -3.3672073401983174e-36 -3.9343265189431342e-36 0.0000000000000000e+00  8.8602494497199119e-36 1.2133769822916009e-35 0.0000000000000000e+00  -3.2558866445193536e-35 -5.0045509050641696e-35 0.0000000000000000e+00  7.0355713583427343e-35 1.0501704762645813e-34 0.0000000000000000e+00  -7.6560102004580468e-35 -1.5248531679610815e-34 0.0000000000000000e+00  6.1412301996437759e-34 9.3279172315246353e-34 0.0000000000000000e+00  2.8878400195881390e-34 3.1353968852106962e-34 0.0000000000000000e+00  8.1305167755182154e-34 2.2586897358593242e-33 0.0000000000000000e+00  3.3763297011697562e-32 4.5270844211612411e-32 0.0000000000000000e+00  -1.2965655769960689e-31 -1.8126111582846370e-31 0.0000000000000000e+00  -5.1242068057846940e-31 -7.2102092540045549e-31 0.0000000000000000e+00  1.2172553907904727e-30 1.7177726111226127e-30 0.0000000000000000e+00  -7.8733075341119413e-31 -1.1430660236379009e-30 0.0000000000000000e+00  -2.9409649964614209e-30 -5.8065204754056800e-30 0.0000000000000000e+00  9.5816259681794577e-30 2.2303359565598840e-29 0.0000000000000000e+00  1.1851243323322653e-29 2.7851430895157020e-29 0.0000000000000000e+00  -6.9673078287318466e-29 -1.7429331402725630e-28 0.0000000000000000e+00  2.0562033158765343e-29 4.6909433446642969e-29 0.0000000000000000e+00  8.8440562406796243e-29 1.8266943225781945e-28 0.0000000000000000e+00  1.5716654002993359e-29 7.6712513958899234e-29 0.0000000000000000e+00  1.5600588085380799e-28 5.9915153910680184e-28 0.0000000000000000e+00  7.4753451979877818e-29 2.5952612276988832e-28 0.0000000000000000e+00  -1.3361002021263484e-28 -5.0498009238573669e-28 0.0000000000000000e+00  -3.5408845196961783e-28 -1.3419793438028726e-27 0.0000000000000000e+00  2.2018897776332858e-28 9.7988176932312323e-28 0.0000000000000000e+00  3.2934917906470045e-28 1.6280326547334040e-27 0.0000000000000000e+00  3.0419961167407845e-28 1.4052623045401735e-27 0.0000000000000000e+00  2.7827505350181481e-28 9.5661467945792823e-28 0.0000000000000000e+00  -3.8775918538652880e-28 -2.4152963477388677e-27 0.0000000000000000e+00  -5.3301640769444297e-32 -4.3192133190839870e-28 0.0000000000000000e+00  5.6244193739292899e-29 -1.2432648101819568e-28 0.0000000000000000e+00  -1.7473074350681868e-28 -1.5293866936849819e-27 0.0000000000000000e+00  -1.3779933495022658e-28 -1.4878547013086899e-27 0.0000000000000000e+00  -4.0076131226612541e-28 -2.8026595467305609e-27 0.0000000000000000e+00  -3.2794935530464418e-28 -1.3338135147413152e-27 0.0000000000000000e+00  -1.0578992326877690e-28 1.3005063130656763e-27 0.0000000000000000e+00  -1.6559972353249688e-28 -4.9233176201427748e-28 0.0000000000000000e+00  -5.1110388033985650e-29 -2.5159855431133942e-27 0.0000000000000000e+00  -1.5754461186113455e-28 5.7605574625927554e-28 0.0000000000000000e+00  -1.5294779626871114e-28 4.3810650250774945e-28 0.0000000000000000e+00  3.4034046131542673e-29 -1.6981279079857517e-27 0.0000000000000000e+00  -1.5298712362599309e-29 -6.6945696473457338e-28 0.0000000000000000e+00  1.5909105976243122e-28 -1.7771342263387966e-27 0.0000000000000000e+00  -2.2911103899712802e-28 1.5822737584156418e-27 0.0000000000000000e+00  -2.1858564626294312e-28 1.4828076287359536e-27 0.0000000000000000e+00  3.3125736617391875e-28 -1.8477183010953346e-27 0.0000000000000000e+00  1.6443774543471819e-28 -5.3673204852633990e-28 0.0000000000000000e+00  3.3763919283695996e-28 -2.2066715693120573e-27 0.0000000000000000e+00  1.0942572478557560e-28 8.3665360149642925e-28 0.0000000000000000e+00  9.8391835140827387e-29 1.7660766212015026e-28 0.0000000000000000e+00  4.1853211911005913e-28 -1.3150862882007016e-27 0.0000000000000000e+00  2.4061954726457476e-28 -6.9298510206021439e-28 0.0000000000000000e+00  4.4508092646785604e-28 -2.6666537374963401e-27 0.0000000000000000e+00  7.1055697566125700e-28 -3.6950626988491430e-27 0.0000000000000000e+00  7.9654967047822481e-28 -4.6542420177178970e-27 0.0000000000000000e+00  1.8691436827701081e-28 -1.1245877792711606e-27 0.0000000000000000e+00  -3.6980404449307266e-28 1.6823709709576147e-27 0.0000000000000000e+00  -4.9060148083121144e-28 2.5139306470854802e-27 0.0000000000000000e+00  -5.2536712370343608e-28 2.6117336273027381e-27 0.0000000000000000e+00  -9.8029330227479788e-29 5.3233417452152440e-28 0.0000000000000000e+00  1.4130212726100413e-28 -6.0309748432679162e-28 0.0000000000000000e+00  7.6884851127398394e-29 -3.8213416013395418e-28 0.0000000000000000e+00  3.3041249201004393e-28 -1.4847563571674189e-27 0.0000000000000000e+00  1.4954832310703428e-28 -6.0834477712448523e-28 0.0000000000000000e+00  -1.2848827531501045e-28 5.2364470566267272e-28 0.0000000000000000e+00  -1.0509494589777279e-29 2.7275748342981930e-31 0.0000000000000000e+00  1.8974119779154864e-29 -5.4409192735649327e-29 0.0000000000000000e+00  3.9566707839439079e-29 -1.1658458359946988e-28 0.0000000000000000e+00  -9.3225698769764006e-30 2.4298215358847540e-29 0.0000000000000000e+00  -1.3866997570625581e-29 3.5358362110794699e-29 0.0000000000000000e+00  7.0069952