<?xml version="1.0"?>
<VTKFile type="UnstructuredGrid"  version="0.1"  >
<UnstructuredGrid>
<Piece  NumberOfPoints="11902" NumberOfCells="23402">
<Points>
<DataArray  type="Float64"  NumberOfComponents="3"  format="ascii">-5 -5 0  5 -5 0  5 5 0  -5 5 0  1.260526592285129 0.001332695134854523 0  -4.9 -5 0  -4.8 -5 0  -4.7 -5 0  -4.6 -5 0  -4.5 -5 0  -4.4 -5 0  -4.3 -5 0  -4.2 -5 0  -4.1 -5 0  -4 -5 0  -3.9 -5 0  -3.8 -5 0  -3.7 -5 0  -3.6 -5 0  -3.5 -5 0  -3.4 -5 0  -3.3 -5 0  -3.2 -5 0  -3.1 -5 0  -3 -5 0  -2.9 -5 0  -2.8 -5 0  -2.7 -5 0  -2.6 -5 0  -2.5 -5 0  -2.4 -5 0  -2.3 -5 0  -2.2 -5 0  -2.1 -5 0  -2 -5 0  -1.9 -5 0  -1.8 -5 0  -1.7 -5 0  -1.6 -5 0  -1.5 -5 0  -1.4 -5 0  -1.3 -5 0  -1.2 -5 0  -1.1 -5 0  -1 -5 0  -0.9000000000000004 -5 0  -0.7999999999999998 -5 0  -0.7000000000000002 -5 0  -0.5999999999999996 -5 0  -0.5 -5 0  -0.4000000000000004 -5 0  -0.2999999999999998 -5 0  -0.2000000000000002 -5 0  -0.09999999999999964 -5 0  0 -5 0  0.09999999999999964 -5 0  0.2000000000000002 -5 0  0.2999999999999998 -5 0  0.4000000000000004 -5 0  0.5 -5 0  0.5999999999999996 -5 0  0.7000000000000002 -5 0  0.7999999999999998 -5 0  0.9000000000000004 -5 0  1 -5 0  1.1 -5 0  1.2 -5 0  1.3 -5 0  1.4 -5 0  1.5 -5 0  1.6 -5 0  1.7 -5 0  1.8 -5 0  1.9 -5 0  2 -5 0  2.1 -5 0  2.2 -5 0  2.3 -5 0  2.4 -5 0  2.5 -5 0  2.6 -5 0  2.7 -5 0  2.8 -5 0  2.9 -5 0  3 -5 0  3.1 -5 0  3.199999999999999 -5 0  3.300000000000001 -5 0  3.4 -5 0  3.5 -5 0  3.6 -5 0  3.699999999999999 -5 0  3.800000000000001 -5 0  3.9 -5 0  4 -5 0  4.1 -5 0  4.199999999999999 -5 0  4.300000000000001 -5 0  4.4 -5 0  4.5 -5 0  4.6 -5 0  4.699999999999999 -5 0  4.800000000000001 -5 0  4.9 -5 0  5 -4.9 0  5 -4.8 0  5 -4.7 0  5 -4.6 0  5 -4.5 0  5 -4.4 0  5 -4.3 0  5 -4.2 0  5 -4.1 0  5 -4 0  5 -3.9 0  5 -3.8 0  5 -3.7 0  5 -3.6 0  5 -3.5 0  5 -3.4 0  5 -3.3 0  5 -3.2 0  5 -3.1 0  5 -3 0  5 -2.9 0  5 -2.8 0  5 -2.7 0  5 -2.6 0  5 -2.5 0  5 -2.4 0  5 -2.3 0  5 -2.2 0  5 -2.1 0  5 -2 0  5 -1.9 0  5 -1.8 0  5 -1.7 0  5 -1.6 0  5 -1.5 0  5 -1.4 0  5 -1.3 0  5 -1.2 0  5 -1.1 0  5 -1 0  5 -0.9000000000000004 0  5 -0.7999999999999998 0  5 -0.7000000000000002 0  5 -0.5999999999999996 0  5 -0.5 0  5 -0.4000000000000004 0  5 -0.2999999999999998 0  5 -0.2000000000000002 0  5 -0.09999999999999964 0  5 0 0  5 0.09999999999999964 0  5 0.2000000000000002 0  5 0.2999999999999998 0  5 0.4000000000000004 0  5 0.5 0  5 0.5999999999999996 0  5 0.7000000000000002 0  5 0.7999999999999998 0  5 0.9000000000000004 0  5 1 0  5 1.1 0  5 1.2 0  5 1.3 0  5 1.4 0  5 1.5 0  5 1.6 0  5 1.7 0  5 1.8 0  5 1.9 0  5 2 0  5 2.1 0  5 2.2 0  5 2.3 0  5 2.4 0  5 2.5 0  5 2.6 0  5 2.7 0  5 2.8 0  5 2.9 0  5 3 0  5 3.1 0  5 3.199999999999999 0  5 3.300000000000001 0  5 3.4 0  5 3.5 0  5 3.6 0  5 3.699999999999999 0  5 3.800000000000001 0  5 3.9 0  5 4 0  5 4.1 0  5 4.199999999999999 0  5 4.300000000000001 0  5 4.4 0  5 4.5 0  5 4.6 0  5 4.699999999999999 0  5 4.800000000000001 0  5 4.9 0  4.9 5 0  4.8 5 0  4.7 5 0  4.6 5 0  4.5 5 0  4.4 5 0  4.3 5 0  4.2 5 0  4.1 5 0  4 5 0  3.9 5 0  3.8 5 0  3.7 5 0  3.6 5 0  3.5 5 0  3.4 5 0  3.3 5 0  3.2 5 0  3.1 5 0  3 5 0  2.9 5 0  2.8 5 0  2.7 5 0  2.6 5 0  2.5 5 0  2.4 5 0  2.3 5 0  2.2 5 0  2.1 5 0  2 5 0  1.9 5 0  1.8 5 0  1.7 5 0  1.6 5 0  1.5 5 0  1.4 5 0  1.3 5 0  1.2 5 0  1.1 5 0  1 5 0  0.9000000000000004 5 0  0.7999999999999998 5 0  0.7000000000000002 5 0  0.5999999999999996 5 0  0.5 5 0  0.4000000000000004 5 0  0.2999999999999998 5 0  0.2000000000000002 5 0  0.09999999999999964 5 0  0 5 0  -0.09999999999999964 5 0  -0.2000000000000002 5 0  -0.2999999999999998 5 0  -0.4000000000000004 5 0  -0.5 5 0  -0.5999999999999996 5 0  -0.7000000000000002 5 0  -0.7999999999999998 5 0  -0.9000000000000004 5 0  -1 5 0  -1.1 5 0  -1.2 5 0  -1.3 5 0  -1.4 5 0  -1.5 5 0  -1.6 5 0  -1.7 5 0  -1.8 5 0  -1.9 5 0  -2 5 0  -2.1 5 0  -2.2 5 0  -2.3 5 0  -2.4 5 0  -2.5 5 0  -2.6 5 0  -2.7 5 0  -2.8 5 0  -2.9 5 0  -3 5 0  -3.1 5 0  -3.199999999999999 5 0  -3.300000000000001 5 0  -3.4 5 0  -3.5 5 0  -3.6 5 0  -3.699999999999999 5 0  -3.800000000000001 5 0  -3.9 5 0  -4 5 0  -4.1 5 0  -4.199999999999999 5 0  -4.300000000000001 5 0  -4.4 5 0  -4.5 5 0  -4.6 5 0  -4.699999999999999 5 0  -4.800000000000001 5 0  -4.9 5 0  -5 4.9 0  -5 4.8 0  -5 4.7 0  -5 4.6 0  -5 4.5 0  -5 4.4 0  -5 4.3 0  -5 4.2 0  -5 4.1 0  -5 4 0  -5 3.9 0  -5 3.8 0  -5 3.7 0  -5 3.6 0  -5 3.5 0  -5 3.4 0  -5 3.3 0  -5 3.2 0  -5 3.1 0  -5 3 0  -5 2.9 0  -5 2.8 0  -5 2.7 0  -5 2.6 0  -5 2.5 0  -5 2.4 0  -5 2.3 0  -5 2.2 0  -5 2.1 0  -5 2 0  -5 1.9 0  -5 1.8 0  -5 1.7 0  -5 1.6 0  -5 1.5 0  -5 1.4 0  -5 1.3 0  -5 1.2 0  -5 1.1 0  -5 1 0  -5 0.9000000000000004 0  -5 0.7999999999999998 0  -5 0.7000000000000002 0  -5 0.5999999999999996 0  -5 0.5 0  -5 0.4000000000000004 0  -5 0.2999999999999998 0  -5 0.2000000000000002 0  -5 0.09999999999999964 0  -5 0 0  -5 -0.09999999999999964 0  -5 -0.2000000000000002 0  -5 -0.2999999999999998 0  -5 -0.4000000000000004 0  -5 -0.5 0  -5 -0.5999999999999996 0  -5 -0.7000000000000002 0  -5 -0.7999999999999998 0  -5 -0.9000000000000004 0  -5 -1 0  -5 -1.1 0  -5 -1.2 0  -5 -1.3 0  -5 -1.4 0  -5 -1.5 0  -5 -1.6 0  -5 -1.7 0  -5 -1.8 0  -5 -1.9 0  -5 -2 0  -5 -2.1 0  -5 -2.2 0  -5 -2.3 0  -5 -2.4 0  -5 -2.5 0  -5 -2.6 0  -5 -2.7 0  -5 -2.8 0  -5 -2.9 0  -5 -3 0  -5 -3.1 0  -5 -3.199999999999999 0  -5 -3.300000000000001 0  -5 -3.4 0  -5 -3.5 0  -5 -3.6 0  -5 -3.699999999999999 0  -5 -3.800000000000001 0  -5 -3.9 0  -5 -4 0  -5 -4.1 0  -5 -4.199999999999999 0  -5 -4.300000000000001 0  -5 -4.4 0  -5 -4.5 0  -5 -4.6 0  -5 -4.699999999999999 0  -5 -4.800000000000001 0  -5 -4.9 0  1.252351398883237 0.09448670935838475 0  1.230527341541586 0.1921419269305485 0  1.197058966955409 0.2886589881659161 0  1.154217740143862 0.3772321224888038 0  1.096120051433176 0.4681135619715879 0  1.030193793942894 0.5522558164995482 0  0.9517415892473065 0.6323417782422479 0  0.8647943624491474 0.7070832188359858 0  0.772983469676687 0.7725102469159829 0  0.6706417603503912 0.829883769756267 0  0.5584666519900203 0.8821384836819447 0  0.4457624097640838 0.9267188009799149 0  0.3336234326124681 0.9587948221778235 0  0.2087439344689903 0.9804877535015883 0  0.08871752537003658 0.9994165972091799 0  -0.02694346466462376 1.002758539080761 0  -0.1446306497680005 0.9889739351803266 0  -0.2723899837703707 0.9698484119596912 0  -0.3918145962018533 0.9456757325984748 0  -0.5023099004808109 0.9098137548499109 0  -0.6118294619136939 0.8633395485775535 0  -0.7139632931701861 0.8086093501228144 0  -0.8086394433859053 0.7437596972412406 0  -0.8998199969181437 0.6701631053186942 0  -0.9856184882737067 0.5903083473563026 0  -1.060082437158768 0.509138895923818 0  -1.121931588139005 0.423970262964097 0  -1.175567841108148 0.3314353724872635 0  -1.213455271936109 0.2426951678537292 0  -1.237922733133552 0.1485897867095292 0  -1.248807088120422 0.05178906920652412 0  -1.248764347976334 -0.04961711348648802 0  -1.237902949067542 -0.1456621581951386 0  -1.213087599666024 -0.2378094139994192 0  -1.171501840858793 -0.3326336861729006 0  -1.122282618305263 -0.4245285066373337 0  -1.061845273234673 -0.5090011640737706 0  -0.9880839468762921 -0.5892995210674827 0  -0.9029182086747506 -0.6680629019381572 0  -0.8123082736363363 -0.7397215421420026 0  -0.7164417094449377 -0.8007217561330544 0  -0.6117087777067023 -0.8538393424746084 0  -0.4974986511887872 -0.9033984298941423 0  -0.3846786774821704 -0.9432568007627891 0  -0.2690702906097717 -0.9695881012493078 0  -0.1430933209610993 -0.9888540901468595 0  -0.02783304857950058 -1.001979674396405 0  0.08789199836798652 -0.994664449370334 0  0.2144255408518973 -0.9769652001760664 0  0.3362709738958243 -0.9571752775555482 0  0.4499215592713651 -0.9253964978906829 0  0.5609159894862347 -0.8813691794932242 0  0.6716665437406286 -0.8299059996772038 0  0.772929271840418 -0.773622030423311 0  0.8647736162768908 -0.7081981315890625 0  0.950633670616664 -0.6325487365238849 0  1.02759908326514 -0.5511763927477933 0  1.097036089931362 -0.4669638505296075 0  1.155027826695482 -0.3776276567583526 0  1.198800053039232 -0.2867105942860185 0  1.231219137791541 -0.1913085139628944 0  1.252728256442285 -0.09427988257461124 0  -2.44854698053267 4.918088109662911 0  -2.448419801263151 -4.910464016636328 0  4.910387543133369 2.447872218026284 0  4.918517014147318 -2.449335857408626 0  2.446146974540009 -4.895690360164601 0  2.440581060745637 4.899454196874781 0  -4.910414743300738 -2.447898805189581 0  -4.910412007294463 2.447902796012583 0  -1.748500484365648 4.91096444149222 0  -1.744287698243717 -4.914407443162402 0  4.92055533041392 1.744049160936267 0  4.909078000630483 -1.747807311080648 0  -4.909372635061638 -1.747541800517661 0  -4.910195626440508 1.747287001998026 0  1.745772246206235 4.904817084499913 0  1.74718335364789 -4.892954860500877 0  -1.14881447424793 4.908737116410492 0  -1.129673528888151 -4.916659527052137 0  -4.90907064083884 -1.147874549167999 0  -4.908888705703493 1.14767507156109 0  1.143810785796438 -4.912840219017348 0  1.148824397035357 4.908723577590148 0  4.909209986717051 1.146149632510704 0  4.920056267335351 -1.151937900909832 0  -0.5466547228479066 -4.90992007013897 0  -0.5464388629678266 4.918614817877812 0  -4.907787405508132 -0.5486788683320299 0  -4.907811362002469 0.5472368536293598 0  4.907104722918977 -0.5489968994500926 0  4.918780474162244 0.5457580304868731 0  0.5424357561574099 -4.896781613509726 0  0.5511670385372851 4.915433579866146 0  -4.91185444465581 -3.04826097042731 0  4.918428094916804 3.04627927235113 0  4.911361887613673 -3.048236261908188 0  -4.912702503492651 3.045352870988194 0  3.055274800306594 -4.917350303898739 0  -3.048603657080911 -4.911283525101587 0  3.052171533062619 4.913362081404965 0  -3.048049520830734 4.912173708541245 0  -4.90688959781912 -0.04990477180654749 0  0.04511894682705531 -4.911869341213321 0  0.0495663428388524 4.918905459325914 0  4.913955759899227 -0.05128716340079655 0  3.54559880196089 -4.919004182729593 0  -3.548877507159741 4.9
[...]
<PointData  Vectors="f_5194"> 
<DataArray  type="Float64"  Name="f_5194"  NumberOfComponents="3" format="ascii">-2.3675648913083549e-41 -7.3029661372394909e-41 0.0000000000000000e+00  3.9892460586250778e-41 -7.0928837103838485e-41 0.0000000000000000e+00  -1.1487553730532555e-40 -1.1535206757569319e-40 0.0000000000000000e+00  -1.2941606376038759e-40 1.4234470995330439e-40 0.0000000000000000e+00  1.1562460980661870e+01 2.1040459422931181e-02 0.0000000000000000e+00  9.3904554922043320e-41 1.6986450391449742e-40 0.0000000000000000e+00  6.1281773404371748e-40 5.1724251199912365e-40 0.0000000000000000e+00  -1.6798980875646232e-39 -1.3976856505764655e-39 0.0000000000000000e+00  9.5361753405828666e-39 1.1412112163452594e-38 0.0000000000000000e+00  -3.6303949571617472e-38 -3.9915524048247214e-38 0.0000000000000000e+00  1.0609657742553737e-37 1.4732460042962211e-37 0.0000000000000000e+00  -4.0893541113791497e-37 -5.4859546896427297e-37 0.0000000000000000e+00  1.8602673192600212e-36 2.7006052398692757e-36 0.0000000000000000e+00  -1.0243730072037689e-35 -1.4945046634191755e-35 0.0000000000000000e+00  4.7372445946123846e-35 6.3388324674909041e-35 0.0000000000000000e+00  -1.1797147004972290e-34 -1.3356937745267257e-34 0.0000000000000000e+00  2.4789553936814639e-34 2.5408012188725791e-34 0.0000000000000000e+00  1.0449417062882169e-33 1.0707711593586412e-33 0.0000000000000000e+00  -3.2686041211080445e-33 -3.8841311863223172e-33 0.0000000000000000e+00  3.9919745777826481e-33 6.8573690063686043e-33 0.0000000000000000e+00  -3.5888653454662871e-32 -5.1228780522241864e-32 0.0000000000000000e+00  1.1095681849749354e-31 1.5686367022015993e-31 0.0000000000000000e+00  -3.0406765739767174e-32 -1.0537064231740162e-31 0.0000000000000000e+00  -4.6990651935236947e-32 2.6247619885775730e-31 0.0000000000000000e+00  -6.2935048879201029e-31 -1.1530100859086983e-30 0.0000000000000000e+00  -3.2677426416907492e-30 -6.7099203726962057e-30 0.0000000000000000e+00  2.7483724333817629e-30 5.1541755673731269e-30 0.0000000000000000e+00  4.4375611500644030e-30 1.1715023948007195e-29 0.0000000000000000e+00  5.9599229087453382e-30 6.5636163058124155e-30 0.0000000000000000e+00  -2.4560422714852701e-30 -1.1989789525768822e-29 0.0000000000000000e+00  -1.5969060741067708e-29 6.2022161547386116e-30 0.0000000000000000e+00  -2.9883159690093674e-29 -6.4880641219619989e-29 0.0000000000000000e+00  -9.0369062474335486e-29 -3.1513575449462353e-28 0.0000000000000000e+00  5.7087884749304773e-29 2.0292522563650705e-28 0.0000000000000000e+00  1.2939063462914993e-28 6.8087163327049291e-28 0.0000000000000000e+00  3.0889343959772103e-29 -1.9686476315313452e-28 0.0000000000000000e+00  6.3361428331609141e-29 4.5145553067238094e-29 0.0000000000000000e+00  -7.8427684134064784e-30 -1.3828885515533443e-28 0.0000000000000000e+00  -1.6028045061146727e-28 -3.6927109809371345e-28 0.0000000000000000e+00  -1.3979856570204359e-28 -1.1298820212969369e-28 0.0000000000000000e+00  1.0482832653142682e-28 5.4881260223270174e-28 0.0000000000000000e+00  3.0809195692000701e-28 7.7051413583709928e-28 0.0000000000000000e+00  2.7807284236712905e-28 6.0437319733605691e-28 0.0000000000000000e+00  1.5223364395253539e-28 3.9540550632713097e-28 0.0000000000000000e+00  1.3304197476868983e-28 1.5360823558195138e-28 0.0000000000000000e+00  -6.2461335202714923e-28 -6.0327180702610824e-28 0.0000000000000000e+00  -3.5921215814630257e-28 2.4993592798903644e-28 0.0000000000000000e+00  3.3942594614977398e-28 9.4575668902816813e-29 0.0000000000000000e+00  -1.3282663287076198e-28 2.6647056945391246e-27 0.0000000000000000e+00  -3.8835567391504037e-28 -4.5070345249232098e-28 0.0000000000000000e+00  -7.8512535780100644e-28 -3.4258810343115970e-27 0.0000000000000000e+00  -8.6518997675252099e-28 -2.2260636700270030e-27 0.0000000000000000e+00  -5.7265008852204646e-28 -2.9914136900867981e-27 0.0000000000000000e+00  -8.5837122625472347e-29 -6.7176528594713420e-27 0.0000000000000000e+00  3.8118426577567875e-29 -7.5645923220673493e-27 0.0000000000000000e+00  -9.7652292690417864e-29 -1.3044986125431943e-27 0.0000000000000000e+00  -2.1950900634695573e-28 -4.2338294672589199e-27 0.0000000000000000e+00  -1.6786109803751268e-28 -1.5730737477100754e-27 0.0000000000000000e+00  -1.0217091059819087e-28 -2.7248570736469464e-27 0.0000000000000000e+00  -4.6681432247441719e-29 1.3354127339721550e-27 0.0000000000000000e+00  1.1108579966981341e-28 -3.4861288519642727e-27 0.0000000000000000e+00  2.8142984884855316e-28 -3.0899508643572843e-27 0.0000000000000000e+00  8.8885717147241356e-30 7.4825428117153043e-28 0.0000000000000000e+00  -2.3676788977102995e-28 4.9076584067718060e-27 0.0000000000000000e+00  -1.6594680695999795e-28 1.9110555336671500e-27 0.0000000000000000e+00  -2.1563812380917440e-28 9.6833040722599504e-28 0.0000000000000000e+00  -3.5170883163459976e-28 2.6957124650713280e-27 0.0000000000000000e+00  -2.0205632522733437e-28 1.4294849248008643e-27 0.0000000000000000e+00  1.8665911447751684e-28 -1.6840254054848077e-27 0.0000000000000000e+00  1.6655280481623450e-28 -7.4841259577912706e-28 0.0000000000000000e+00  2.7199575005223897e-29 -1.0469524649031909e-28 0.0000000000000000e+00  1.7853693909073660e-28 -5.3987846238112989e-28 0.0000000000000000e+00  1.0385206796574228e-28 -4.5702122100159937e-28 0.0000000000000000e+00  -1.0024558017819774e-28 4.2459346774079934e-28 0.0000000000000000e+00  -5.3423951380510377e-29 3.2500254188594353e-28 0.0000000000000000e+00  -3.4500038796018583e-29 1.5149216396148016e-28 0.0000000000000000e+00  2.7241386413228598e-29 -1.0341085809249305e-28 0.0000000000000000e+00  2.5318676158086723e-29 -8.2362607982602974e-29 0.0000000000000000e+00  4.5594660548197650e-29 -1.3696976687855185e-28 0.0000000000000000e+00  -4.9544684262436313e-30 6.6329213547191048e-30 0.0000000000000000e+00  -4.2603713491084640e-29 1.0898295543146251e-28 0.0000000000000000e+00  5.7095576793966274e-30 -1.5233819386656218e-29 0.0000000000000000e+00  3.0670116177945894e-30 -7.0646211614378837e-30 0.0000000000000000e+00  -4.2296708005656954e-30 9.2086114810433042e-30 0.0000000000000000e+00  1.0591968500264679e-31 -4.3637421643810315e-31 0.0000000000000000e+00  2.1370285480219736e-31 -3.5133689951190104e-31 0.0000000000000000e+00  -2.9309265840355324e-32 6.4137147523501892e-32 0.0000000000000000e+00  5.5114252446143003e-32 -7.2159206859269435e-32 0.0000000000000000e+00  -5.0519394026920939e-33 7.2790719696694612e-33 0.0000000000000000e+00  -4.9901813221154705e-33 5.3252638719276909e-33 0.0000000000000000e+00  4.1086860602116799e-33 -4.1076743606739618e-33 0.0000000000000000e+00  -5.8024583876363609e-34 6.5879682700046607e-34 0.0000000000000000e+00  5.4379987595217572e-35 -8.1740298491907490e-35 0.0000000000000000e+00  -3.1141840099002376e-35 4.0374943025373778e-35 0.0000000000000000e+00  4.9747475211691314e-36 -4.0017195433546309e-36 0.0000000000000000e+00  8.7307661184531972e-37 -8.9079063249665764e-37 0.0000000000000000e+00  -1.1988836147375741e-36 1.0060053432837964e-36 0.0000000000000000e+00  3.3926209439384331e-37 -3.2431501060007014e-37 0.0000000000000000e+00  -1.6993369293326124e-37 1.5144140134041777e-37 0.0000000000000000e+00  5.6589613796712980e-38 -4.9040973141790155e-38 0.0000000000000000e+00  -9.8622786667175089e-39 8.9751834050841993e-39 0.0000000000000000e+00  3.8234779119741093e-39 -3.5724712775875497e-39 0.0000000000000000e+00  -3.6460428885593581e-40 2.6534407495099428e-40 0.0000000000000000e+00  -7.4271072079728628e-41 1.2720980345988989e-40 0.0000000000000000e+00  8.9178822544167407e-42 -1.8106639311752224e-42 0.0000000000000000e+00  3.0578381187125034e-40 -2.3119449119848834e-40 0.0000000000000000e+00  -6.8541150491145577e-40 5.3138666420063616e-40 0.0000000000000000e+00  1.6118562594648074e-39 -1.6802517217769830e-39 0.0000000000000000e+00  8.6679412675672134e-40 5.0909172019995008e-40 0.0000000000000000e+00  -1.3782026293402849e-38 9.5030157221391395e-39 0.0000000000000000e+00  3.7831612299123144e-38 -3.2610684538941927e-38 0.0000000000000000e+00  -2.4824122954564123e-38 3.6863229272575598e-38 0.0000000000000000e+00  -1.7869065318738423e-37 1.0205572411198303e-37 0.0000000000000000e+00  7.0794165950597390e-37 -5.3368911765303186e-37 0.0000000000000000e+00  -8.4409254763814755e-37 8.1946179598660424e-37 0.0000000000000000e+00  -2.1373786938770836e-36 1.0860157074878175e-36 0.0000000000000000e+00  1.0673586975113602e-35 -7.5265410693585533e-36 0.0000000000000000e+00  -1.5827034942438468e-35 1.3049903159362334e-35 0.0000000000000000e+00  -2.6224464433106314e-35 1.3817355833928696e-35 0.0000000000000000e+00  1.5775808985216489e-34 -1.0780324505464121e-34 0.0000000000000000e+00  -2.0544435260638921e-34 1.5539926115210949e-34 0.0000000000000000e+00  -4.2984552301854922e-34 2.6252378989032539e-34 0.0000000000000000e+00  2.0923093506357511e-33 -1.4017709150098613e-33 0.0000000000000000e+00  -1.7062914363205073e-33 1.1967962760336565e-33 0.0000000000000000e+00  -8.1002266348623675e-33 5.2617418193284236e-33 0.0000000000000000e+00  2.3241346760170077e-32 -1.5024071751255380e-32 0.0000000000000000e+00  4.4203554378821626e-33 -3.5609514989555929e-33 0.0000000000000000e+00  -1.2836335486562940e-31 8.2004161759926688e-32 0.0000000000000000e+00  1.6155961475065656e-31 -9.3732487546857686e-32 0.0000000000000000e+00  4.2618466721829027e-31 -2.7977608960166718e-31 0.0000000000000000e+00  -1.2274979784355342e-30 7.1539992440095708e-31 0.0000000000000000e+00  -7.2417849542324976e-31 5.7953424768456725e-31 0.0000000000000000e+00  6.5075400010293573e-30 -3.7614942479309148e-30 0.0000000000000000e+00  -1.9485316688153956e-30 1.6686534764254832e-31 0.0000000000000000e+00  -2.8530869318687564e-29 1.6331879598212614e-29 0.0000000000000000e+00  2.4258245197755174e-29 -7.9378743836348520e-30 0.0000000000000000e+00  1.1609594378866210e-28 -6.5675660846165291e-29 0.0000000000000000e+00  -1.3860709180653145e-28 4.3753558280194313e-29 0.0000000000000000e+00  -4.8979078457320669e-28 2.6523676277043687e-28 0.0000000000000000e+00  5.7363051035589884e-28 -1.3256664854776736e-28 0.0000000000000000e+00  2.1082903375231727e-27 -1.0523217843542736e-27 0.0000000000000000e+00  -1.8572828199742900e-27 1.3107804165922348e-28 0.0000000000000000e+00  -8.7544117076542225e-27 3.5269659017392905e-27 0.0000000000000000e+00  2.5100370706756489e-27 2.0180800390808949e-27 0.0000000000000000e+00  2.8614547591335597e-26 -7.6731266321603206e-27 0.0000000000000000e+00  1.8881840533724272e-26 -1.3663869535628411e-26 0.0000000000000000e+00  -6.2382938235903226e-26 -1.7124513892678042e-27 0.0000000000000000e+00  -8.6827409762803217e-26 5.1950406753266968e-27 0.0000000000000000e+00  1.7275977386911034e-25 -4.4295356751747425e-26 0.0000000000000000e+00  7.8262753093759195e-25 -1.7114566335544300e-25 0.0000000000000000e+00  1.3217438813089011e-24 -2.8474288748310180e-25 0.0000000000000000e+00  1.5031418205097179e-24 -2.9491611535049110e-25 0.0000000000000000e+00  1.4126595393272300e-24 -1.6378936543653252e-25 0.0000000000000000e+00  1.5055013588624407e-24 4.1738869517279843e-26 0.0000000000000000e+00  1.7904220672379066e-24 2.3370240415189709e-25 0.0000000000000000e+00  1.7974728607885002e-24 3.1011304152606668e-25 0.0000000000000000e+00  1.2620649848801677e-24 2.4049724185830651e-25 0.0000000000000000e+00  4.5366857637332562e-25 9.0817662435794807e-26 0.0000000000000000e+00  -7.3238082004354663e-26 -1.6322344254605536e-26 0.0000000000000000e+00  -1.6552900415394766e-25 -3.4213305356477564e-26 0.0000000000000000e+00  -3.4635780695441572e-26 -1.7566440805678625e-27 0.0000000000000000e+00  4.5410985869056530e-26 1.7010867874278743e-26 0.0000000000000000e+00  2.9682773719788638e-26 9.8845348350294896e-27 0.0000000000000000e+00  -1.7638931124451289e-27 -6.0599275299318857e-28 0.0000000000000000e+00  -6.7385158209862502e-27 -2.1899989723272504e-27 0.0000000000000000e+00  -4.5960085392205893e-28 -6.1627869602326678e-29 0.0000000000000000e+00  1.5459617226156147e-27 5.5224307424213058e-28 0.0000000000000000e+00  1.3169078511917007e-28 9.4085458670624510e-30 0.0000000000000000e+00  -3.6789688458221083e-28 -1.4380248261932308e-28 0.0000000000000000e+00  -1.3731979573626937e-29 8.7246889950957662e-30 0.0000000000000000e+00  8.6416691911709735e-29 3.6479314564478258e-29 0.0000000000000000e+00  -6.2871829838993953e-30 -7.2676459039540402e-30 0.0000000000000000e+00  -1.9021688505436529e-29 -8.3790443771683807e-30 0.0000000000000000e+00  3.7792064396801203e-30 2.9201899692049546e-30 0.0000000000000000e+00  3.4684244038889338e-30 1.4832613844613940e-30 0.0000000000000000e+00  -1.4744817635030972e-30 -9.7652974839007512e-31 0.0000000000000000e+00  -4.6719990272584111e-31 -1.5963594931461044e-31 0.0000000000000000e+00  4.1775889878831249e-31 2.5655444650506088e-31 0.0000000000000000e+00  -5.9535630721107647e-33 -2.7140554973131054e-32 0.0000000000000000e+00  -8.6629907359509892e-32 -5.0028004597233383e-32 0.0000000000000000e+00  2.4687236996995857e-32 1.9142403988114328e-32 0.0000000000000000e+00  1.1164740758432086e-32 5.4642606058864710e-33 0.0000000000000000e+00  -8.6523466311201574e-33 -5.7330562555486272e-33 0.0000000000000000e+00  5.8603484304914158e-34 6.6054165305118032e-34 0.0000000000000000e+00  1.4039550885863253e-33 8.7580970093270807e-34 0.0000000000000000e+00  -6.3553684910685829e-34 -4.4485261936566383e-34 0.0000000000000000e+00  -2.7154173084440034e-35 -8.5322844687602581e-36 0.0000000000000000e+00  1.2873345915364916e-34 8.8111596799021724e-35 0.0000000000000000e+00  -4.6564696612557946e-35 -3.2548016562100783e-35 0.0000000000000000e+00  -3.1356782937518574e-36 -2.7283352294368357e-36 0.0000000000000000e+00  9.0682001907691010e-36 6.6949330011616821e-36 0.0000000000000000e+00  -3.3113447612579739e-36 -2.3016724566689645e-36 0.0000000000000000e+00  -5.8435611300036075e-38 -1.6371019788517111e-37 0.0000000000000000e+00  5.5291316231661779e-37 4.5213823451126408e-37 0.0000000000000000e+00  -2.3524371635903594e-37 -1.7089154788129138e-37 0.0000000000000000e+00  2.1077913596723176e-38 3.5105979661780258e-39 0.0000000000000000e+00  2.6012863126891914e-38 2.5557033620887897e-38 0.0000000000000000e+00  -1.5490020596879818e-38 -1.2663412653328500e-38 0.0000000000000000e+00  3.2924720198808436e-39 1.8334847755420485e-39 0.0000000000000000e+00  7.0738396524296025e-40 1.0753732928922000e-39 0.0000000000000000e+00  -8.0364577831075683e-40 -7.9237676861278241e-40 0.0000000000000000e+00  2.8853089005549610e-40 2.3473430561586381e-40 0.0000000000000000e+00  -5.2285505371937191e-42 3.5025646023512104e-41 0.0000000000000000e+00  2.1016835744470902e-40 1.9774206415305479e-40 0.0000000000000000e+00  -2.5582476174758933e-40 -3.6657489743158935e-40 0.0000000000000000e+00  6.4188076426018993e-40 8.2623339208869049e-40 0.0000000000000000e+00  -3.3137859426210667e-39 -5.0764341324715831e-39 0.0000000000000000e+00  4.1275020770811083e-38 4.7342410210177723e-38 0.0000000000000000e+00  -1.3701122915608600e-37 -1.4414007186737622e-37 0.0000000000000000e+00  1.9908035327502999e-37 2.2136237506549201e-37 0.0000000000000000e+00  -2.0903851853096006e-36 -2.4931575038718189e-36 0.0000000000000000e+00  4.9943567275608296e-36 6.7445342947697833e-36 0.0000000000000000e+00  -1.4661923185459258e-35 -2.3038535074793249e-35 0.0000000000000000e+00  2.3626052444408880e-35 3.7549799066714749e-35 0.0000000000000000e+00  5.7658587618639691e-35 4.0353534973820901e-35 0.0000000000000000e+00  -6.5852887955111158e-35 4.3915557903170232e-35 0.0000000000000000e+00  1.3511675054666577e-33 1.4904055010112948e-33 0.0000000000000000e+00  -1.9683983563829534e-33 -1.7546756558834564e-33 0.0000000000000000e+00  1.4672861659534806e-32 2.0025900964308119e-32 0.0000000000000000e+00  -3.6918076515328589e-32 -5.4171868232618856e-32 0.0000000000000000e+00  -2.5843143767397902e-31 -3.9064125219969913e-31 0.0000000000000000e+00  7.3117935439231347e-31 1.1294052835204569e-30 0.0000000000000000e+00  -7.4888492794853091e-31 -1.2906736066398132e-30 0.0000000000000000e+00  -1.8104148931286898e-30 -3.6671859046795123e-30 0.0000000000000000e+00  7.3435971371587862e-30 1.6910703997059107e-29 0.0000000000000000e+00  6.7574619257940695e-30 1.4633432644414306e-29 0.0000000000000000e+00  -3.8162400035399286e-29 -9.0554445657023240e-29 0.0000000000000000e+00  6.5453928378847329e-30 1.1266509019484241e-29 0.0000000000000000e+00  2.8433593362515467e-29 8.6996223005599729e-30 0.0000000000000000e+00  2.1223093972524101e-29 1.0692962788143916e-28 0.0000000000000000e+00  1.2625871060159190e-28 5.5133442693241363e-28 0.0000000000000000e+00  4.8606986239472492e-29 1.8570003794238429e-28 0.0000000000000000e+00  -7.7785272221946943e-29 -2.7214413073023063e-28 0.0000000000000000e+00  -2.3979822040857011e-28 -1.1486036910716849e-27 0.0000000000000000e+00  1.4966768558239564e-28 7.7382908334586642e-28 0.0000000000000000e+00  2.2597848926322805e-28 1.2324499730154295e-27 0.0000000000000000e+00  2.1982976729658966e-28 1.1810846710408692e-27 0.0000000000000000e+00  1.7488829201850644e-28 8.4260150276412697e-28 0.0000000000000000e+00  -3.4064903860894271e-28 -1.9504018035436909e-27 0.0000000000000000e+00  -4.6817343269527629e-29 -2.7908770250807484e-28 0.0000000000000000e+00  -1.5799040012518242e-29 -4.5320146663193121e-29 0.0000000000000000e+00  -2.0279033416598829e-28 -1.2320368439149672e-27 0.0000000000000000e+00  -1.7859863308328570e-28 -1.2290624269897818e-27 0.0000000000000000e+00  -2.4943744528064078e-28 -2.8254302593217004e-27 0.0000000000000000e+00  -1.1542352937359311e-28 -1.6238455310342354e-27 0.0000000000000000e+00  8.5157280981936610e-29 7.8645117087929919e-28 0.0000000000000000e+00  -1.6772542981693755e-29 -8.6383352141503437e-28 0.0000000000000000e+00  -3.2297646059589655e-29 -2.6067774539984252e-27 0.0000000000000000e+00  -1.0418733448151365e-28 2.9653268464383295e-28 0.0000000000000000e+00  -9.2192133127229275e-29 1.3545460102575159e-28 0.0000000000000000e+00  5.8886637959817321e-29 -2.0594015161628510e-27 0.0000000000000000e+00  -1.1074710595218509e-29 -9.9666382866403114e-28 0.0000000000000000e+00  1.8958730608001692e-28 -2.1395700580294421e-27 0.0000000000000000e+00  -3.6811323897941684e-28 1.3565628003338983e-27 0.0000000000000000e+00  -3.4081216709807619e-28 1.3106993017616256e-27 0.0000000000000000e+00  3.0468612673503322e-28 -2.0161787501372292e-27 0.0000000000000000e+00  8.7757174605812864e-29 -6.6345863268060902e-28 0.0000000000000000e+00  3.5159980809509458e-28 -2.0156828224895544e-27 0.0000000000000000e+00  -8.8550820654454555e-29 5.6317729884538583e-28 0.0000000000000000e+00  -4.6008994014601833e-29 9.3969571155183929e-29 0.0000000000000000e+00  2.5659835621477154e-28 -1.0837588521534905e-27 0.0000000000000000e+00  1.0109383465559256e-28 -5.4083899306725985e-28 0.0000000000000000e+00  3.8832044239027941e-28 -2.0917105264444167e-27 0.0000000000000000e+00  4.7548171537537435e-28 -2.7388850965578452e-27 0.0000000000000000e+00  5.5187014190798096e-28 -3.4205547585335279e-27 0.0000000000000000e+00  1.4232208656587098e-28 -8.6711462311196857e-28 0.0000000000000000e+00  -1.8101965820009132e-28 1.1325991317912911e-27 0.0000000000000000e+00  -2.5749994098936171e-28 1.7273444757088996e-27 0.0000000000000000e+00  -2.7635668738831347e-28 1.7851631981689838e-27 0.0000000000000000e+00  -6.3351734290371363e-29 3.6233522352493700e-28 0.0000000000000000e+00  6.0076567154475184e-29 -4.2520364477608104e-28 0.0000000000000000e+00  4.0761232479187365e-29 -2.2021965810317001e-28 0.0000000000000000e+00  1.7106412572227764e-28 -8.8334327791330418e-28 0.0000000000000000e+00  5.9918053382382798e-29 -3.0544600781566812e-28 0.0000000000000000e+00  -6.6824024489911840e-29 3.3793944972426421e-28 0.0000000000000000e+00  1.2214455923041843e-29 -7.7992044999044738e-29 0.0000000000000000e+00  4.2189039069011513e-30 -1.1581291849631777e-29 0.0000000000000000e+00  7.4905670735593778e-30 -1.8054189967796167e-29 0.0000000000000000e+00  -1.1054989621203837e-30 1.8532508421711284e-30 0.0000000000000000e+00  -2.3422159287621966e-30 6.1531858709059132e-30 0.0000000000000000e+00  3.6542