<?xml version="1.0"?>
<VTKFile type="UnstructuredGrid"  version="0.1"  >
<UnstructuredGrid>
<Piece  NumberOfPoints="11902" NumberOfCells="23402">
<Points>
<DataArray  type="Float64"  NumberOfComponents="3"  format="ascii">-5 -5 0  5 -5 0  5 5 0  -5 5 0  1.250644270111807 0.001363865970397424 0  -4.9 -5 0  -4.8 -5 0  -4.7 -5 0  -4.6 -5 0  -4.5 -5 0  -4.4 -5 0  -4.3 -5 0  -4.2 -5 0  -4.1 -5 0  -4 -5 0  -3.9 -5 0  -3.8 -5 0  -3.7 -5 0  -3.6 -5 0  -3.5 -5 0  -3.4 -5 0  -3.3 -5 0  -3.2 -5 0  -3.1 -5 0  -3 -5 0  -2.9 -5 0  -2.8 -5 0  -2.7 -5 0  -2.6 -5 0  -2.5 -5 0  -2.4 -5 0  -2.3 -5 0  -2.2 -5 0  -2.1 -5 0  -2 -5 0  -1.9 -5 0  -1.8 -5 0  -1.7 -5 0  -1.6 -5 0  -1.5 -5 0  -1.4 -5 0  -1.3 -5 0  -1.2 -5 0  -1.1 -5 0  -1 -5 0  -0.9000000000000004 -5 0  -0.7999999999999998 -5 0  -0.7000000000000002 -5 0  -0.5999999999999996 -5 0  -0.5 -5 0  -0.4000000000000004 -5 0  -0.2999999999999998 -5 0  -0.2000000000000002 -5 0  -0.09999999999999964 -5 0  0 -5 0  0.09999999999999964 -5 0  0.2000000000000002 -5 0  0.2999999999999998 -5 0  0.4000000000000004 -5 0  0.5 -5 0  0.5999999999999996 -5 0  0.7000000000000002 -5 0  0.7999999999999998 -5 0  0.9000000000000004 -5 0  1 -5 0  1.1 -5 0  1.2 -5 0  1.3 -5 0  1.4 -5 0  1.5 -5 0  1.6 -5 0  1.7 -5 0  1.8 -5 0  1.9 -5 0  2 -5 0  2.1 -5 0  2.2 -5 0  2.3 -5 0  2.4 -5 0  2.5 -5 0  2.6 -5 0  2.7 -5 0  2.8 -5 0  2.9 -5 0  3 -5 0  3.1 -5 0  3.199999999999999 -5 0  3.300000000000001 -5 0  3.4 -5 0  3.5 -5 0  3.6 -5 0  3.699999999999999 -5 0  3.800000000000001 -5 0  3.9 -5 0  4 -5 0  4.1 -5 0  4.199999999999999 -5 0  4.300000000000001 -5 0  4.4 -5 0  4.5 -5 0  4.6 -5 0  4.699999999999999 -5 0  4.800000000000001 -5 0  4.9 -5 0  5 -4.9 0  5 -4.8 0  5 -4.7 0  5 -4.6 0  5 -4.5 0  5 -4.4 0  5 -4.3 0  5 -4.2 0  5 -4.1 0  5 -4 0  5 -3.9 0  5 -3.8 0  5 -3.7 0  5 -3.6 0  5 -3.5 0  5 -3.4 0  5 -3.3 0  5 -3.2 0  5 -3.1 0  5 -3 0  5 -2.9 0  5 -2.8 0  5 -2.7 0  5 -2.6 0  5 -2.5 0  5 -2.4 0  5 -2.3 0  5 -2.2 0  5 -2.1 0  5 -2 0  5 -1.9 0  5 -1.8 0  5 -1.7 0  5 -1.6 0  5 -1.5 0  5 -1.4 0  5 -1.3 0  5 -1.2 0  5 -1.1 0  5 -1 0  5 -0.9000000000000004 0  5 -0.7999999999999998 0  5 -0.7000000000000002 0  5 -0.5999999999999996 0  5 -0.5 0  5 -0.4000000000000004 0  5 -0.2999999999999998 0  5 -0.2000000000000002 0  5 -0.09999999999999964 0  5 0 0  5 0.09999999999999964 0  5 0.2000000000000002 0  5 0.2999999999999998 0  5 0.4000000000000004 0  5 0.5 0  5 0.5999999999999996 0  5 0.7000000000000002 0  5 0.7999999999999998 0  5 0.9000000000000004 0  5 1 0  5 1.1 0  5 1.2 0  5 1.3 0  5 1.4 0  5 1.5 0  5 1.6 0  5 1.7 0  5 1.8 0  5 1.9 0  5 2 0  5 2.1 0  5 2.2 0  5 2.3 0  5 2.4 0  5 2.5 0  5 2.6 0  5 2.7 0  5 2.8 0  5 2.9 0  5 3 0  5 3.1 0  5 3.199999999999999 0  5 3.300000000000001 0  5 3.4 0  5 3.5 0  5 3.6 0  5 3.699999999999999 0  5 3.800000000000001 0  5 3.9 0  5 4 0  5 4.1 0  5 4.199999999999999 0  5 4.300000000000001 0  5 4.4 0  5 4.5 0  5 4.6 0  5 4.699999999999999 0  5 4.800000000000001 0  5 4.9 0  4.9 5 0  4.8 5 0  4.7 5 0  4.6 5 0  4.5 5 0  4.4 5 0  4.3 5 0  4.2 5 0  4.1 5 0  4 5 0  3.9 5 0  3.8 5 0  3.7 5 0  3.6 5 0  3.5 5 0  3.4 5 0  3.3 5 0  3.2 5 0  3.1 5 0  3 5 0  2.9 5 0  2.8 5 0  2.7 5 0  2.6 5 0  2.5 5 0  2.4 5 0  2.3 5 0  2.2 5 0  2.1 5 0  2 5 0  1.9 5 0  1.8 5 0  1.7 5 0  1.6 5 0  1.5 5 0  1.4 5 0  1.3 5 0  1.2 5 0  1.1 5 0  1 5 0  0.9000000000000004 5 0  0.7999999999999998 5 0  0.7000000000000002 5 0  0.5999999999999996 5 0  0.5 5 0  0.4000000000000004 5 0  0.2999999999999998 5 0  0.2000000000000002 5 0  0.09999999999999964 5 0  0 5 0  -0.09999999999999964 5 0  -0.2000000000000002 5 0  -0.2999999999999998 5 0  -0.4000000000000004 5 0  -0.5 5 0  -0.5999999999999996 5 0  -0.7000000000000002 5 0  -0.7999999999999998 5 0  -0.9000000000000004 5 0  -1 5 0  -1.1 5 0  -1.2 5 0  -1.3 5 0  -1.4 5 0  -1.5 5 0  -1.6 5 0  -1.7 5 0  -1.8 5 0  -1.9 5 0  -2 5 0  -2.1 5 0  -2.2 5 0  -2.3 5 0  -2.4 5 0  -2.5 5 0  -2.6 5 0  -2.7 5 0  -2.8 5 0  -2.9 5 0  -3 5 0  -3.1 5 0  -3.199999999999999 5 0  -3.300000000000001 5 0  -3.4 5 0  -3.5 5 0  -3.6 5 0  -3.699999999999999 5 0  -3.800000000000001 5 0  -3.9 5 0  -4 5 0  -4.1 5 0  -4.199999999999999 5 0  -4.300000000000001 5 0  -4.4 5 0  -4.5 5 0  -4.6 5 0  -4.699999999999999 5 0  -4.800000000000001 5 0  -4.9 5 0  -5 4.9 0  -5 4.8 0  -5 4.7 0  -5 4.6 0  -5 4.5 0  -5 4.4 0  -5 4.3 0  -5 4.2 0  -5 4.1 0  -5 4 0  -5 3.9 0  -5 3.8 0  -5 3.7 0  -5 3.6 0  -5 3.5 0  -5 3.4 0  -5 3.3 0  -5 3.2 0  -5 3.1 0  -5 3 0  -5 2.9 0  -5 2.8 0  -5 2.7 0  -5 2.6 0  -5 2.5 0  -5 2.4 0  -5 2.3 0  -5 2.2 0  -5 2.1 0  -5 2 0  -5 1.9 0  -5 1.8 0  -5 1.7 0  -5 1.6 0  -5 1.5 0  -5 1.4 0  -5 1.3 0  -5 1.2 0  -5 1.1 0  -5 1 0  -5 0.9000000000000004 0  -5 0.7999999999999998 0  -5 0.7000000000000002 0  -5 0.5999999999999996 0  -5 0.5 0  -5 0.4000000000000004 0  -5 0.2999999999999998 0  -5 0.2000000000000002 0  -5 0.09999999999999964 0  -5 0 0  -5 -0.09999999999999964 0  -5 -0.2000000000000002 0  -5 -0.2999999999999998 0  -5 -0.4000000000000004 0  -5 -0.5 0  -5 -0.5999999999999996 0  -5 -0.7000000000000002 0  -5 -0.7999999999999998 0  -5 -0.9000000000000004 0  -5 -1 0  -5 -1.1 0  -5 -1.2 0  -5 -1.3 0  -5 -1.4 0  -5 -1.5 0  -5 -1.6 0  -5 -1.7 0  -5 -1.8 0  -5 -1.9 0  -5 -2 0  -5 -2.1 0  -5 -2.2 0  -5 -2.3 0  -5 -2.4 0  -5 -2.5 0  -5 -2.6 0  -5 -2.7 0  -5 -2.8 0  -5 -2.9 0  -5 -3 0  -5 -3.1 0  -5 -3.199999999999999 0  -5 -3.300000000000001 0  -5 -3.4 0  -5 -3.5 0  -5 -3.6 0  -5 -3.699999999999999 0  -5 -3.800000000000001 0  -5 -3.9 0  -5 -4 0  -5 -4.1 0  -5 -4.199999999999999 0  -5 -4.300000000000001 0  -5 -4.4 0  -5 -4.5 0  -5 -4.6 0  -5 -4.699999999999999 0  -5 -4.800000000000001 0  -5 -4.9 0  1.243035784687355 0.09588517671104667 0  1.222003091336897 0.1932034843258128 0  1.188756399091765 0.2897522391307131 0  1.14606594451743 0.37903965768698 0  1.089034295121354 0.4696736222791724 0  1.023876285742123 0.554286349477823 0  0.9463725917052194 0.6340681322050074 0  0.8603004732669898 0.7082160286668137 0  0.7686839508107165 0.7735966858826246 0  0.6666435519221855 0.8310845081586069 0  0.5561699597688017 0.8833620775161917 0  0.4442659440209523 0.927051880783865 0  0.331443616435001 0.959627794574165 0  0.2083117096979428 0.9811892201296961 0  0.08934603351646296 0.9995959113165335 0  -0.02742880980288672 1.002743308415953 0  -0.1451738182425359 0.9895441435486719 0  -0.2706025433436204 0.9710026645687897 0  -0.3891992304903785 0.9464086517818083 0  -0.5000545809238657 0.9101368261116701 0  -0.6087148925325261 0.8637571631201379 0  -0.7108246028172208 0.8093080503197888 0  -0.8052834984075657 0.7446933416157108 0  -0.8955062793714296 0.6718596644659166 0  -0.979921551075028 0.5925646933401624 0  -1.053134488977106 0.5114075667803101 0  -1.11465043138114 0.4255647147550044 0  -1.166495883741975 0.3338085379644369 0  -1.204356127636831 0.2430848905854695 0  -1.228858182923688 0.1485952246665426 0  -1.240524993708314 0.05106950473799433 0  -1.24047503537411 -0.04895803550561639 0  -1.228786036275997 -0.1458206956039124 0  -1.204111817637878 -0.2393174702302643 0  -1.16385776293006 -0.334193461112763 0  -1.114903828893564 -0.4255006829138559 0  -1.054606817665918 -0.5111129134438845 0  -0.9821983927337101 -0.5915153039429637 0  -0.8984022731464363 -0.6695950298555455 0  -0.808535305439437 -0.7408483765439613 0  -0.7125965010240713 -0.8018219035718749 0  -0.6083419187712495 -0.8550801481007536 0  -0.4958622805294677 -0.9042590177008745 0  -0.3831638133864798 -0.943616957211198 0  -0.267309485630049 -0.9705072272315399 0  -0.1438113564912397 -0.9891606614669664 0  -0.027974913554215 -1.001910499916796 0  0.0892166953037609 -0.9950415824330189 0  0.2131232442504201 -0.9781160406085441 0  0.3338301312915296 -0.9580637727997089 0  0.4483644258983749 -0.9257200981784055 0  0.5584510500335413 -0.882489353466259 0  0.6675348887739366 -0.8311173213659198 0  0.7686883975334864 -0.7747528990505033 0  0.8604033917084234 -0.7091795815413999 0  0.9456951408203261 -0.6340342488388905 0  1.021373469468039 -0.5534697860399004 0  1.089383765664299 -0.4686820733493167 0  1.146965425944899 -0.3792251605871235 0  1.190473409061835 -0.2877583192125813 0  1.222599262850848 -0.19231969876289 0  1.243289966280827 -0.09555975487104873 0  -2.448585709769788 4.918158243674046 0  -2.44846209374654 -4.910540619207361 0  4.910466029496518 2.447926512504615 0  4.918588227231071 -2.449385141575232 0  2.446196096956224 -4.895780186426105 0  2.440628650948984 4.899541131091921 0  -4.910492731088067 -2.447952571136626 0  -4.910490083138467 2.447956457598823 0  -1.748540765928911 4.911066084317238 0  -1.744326379442577 -4.914505154714512 0  4.920654409190265 1.744098317211532 0  4.909191122755461 -1.747863520710957 0  -4.909484725813016 -1.747597363136089 0  -4.910306799808771 1.7473418777748 0  1.745815216902772 4.904926322103018 0  1.747231385506588 -4.893077474829243 0  -1.148846660744124 4.908860807865557 0  -1.129702624043977 -4.916772757668016 0  -4.909210918712106 -1.147920286322673 0  -4.909029345469838 1.147720650604665 0  1.143841000386538 -4.912958608348224 0  1.148856464676354 4.908847639999612 0  4.909351166202875 1.146195707831176 0  4.920180290386496 -1.151978503060931 0  -0.5466716444160672 -4.91005500170187 0  -0.5464539808786508 4.918736962313247 0  -4.907950358267051 -0.5487043187540884 0  -4.90797434652962 0.5472619432711238 0  4.907270116519046 -0.549022652119032 0  4.918925159196773 0.5457805189311569 0  0.5424542685140535 -4.89693654208267 0  0.5511827282167081 4.915560609520877 0  -4.911907092063882 -3.048305408742486 0  4.918477146017716 3.046320800235878 0  4.911415023146223 -3.04828129861255 0  -4.91275481684792 3.045396877002598 0  3.055309183652709 -4.91740141094485 0  -3.048640688391643 -4.911338275311766 0  3.05220774673643 4.913415827861584 0  -3.048086238821956 4.912227949765712 0  -4.90706102530378 -0.04990734717763824 0  0.04511998587650405 -4.912005412420782 0  0.04956766725568517 4.919030906856308 0  4.914115384278734 -0.0512894331114341 0  3.545625939028433 -4.919039829843742 0  -3.548907009117716 4.911940866807
[...]
<PointData  Scalars="f_27"> 
<DataArray  type="Float64"  Name="f_27"  format="ascii">0.0000000000000000e+00  0.0000000000000000e+00  0.0000000000000000e+00  0.0000000000000000e+00  9.6428664883044768e-01  0.0000000000000000e+00  0.0000000000000000e+00  0.0000000000000000e+00  0.0000000000000000e+00  0.0000000000000000e+00  0.0000000000000000e+00  0.0000000000000000e+00  0.0000000000000000e+00  0.0000000000000000e+00  0.0000000000000000e+00  0.0000000000000000e+00  0.0000000000000000e+00  0.0000000000000000e+00  0.0000000000000000e+00  0.0000000000000000e+00  0.0000000000000000e+00  0.0000000000000000e+00  0.0000000000000000e+00  0.0000000000000000e+00  0.0000000000000000e+00  0.0000000000000000e+00  0.0000000000000000e+00  0.0000000000000000e+00  0.0000000000000000e+00  0.0000000000000000e+00  0.0000000000000000e+00  0.0000000000000000e+00  0.0000000000000000e+00  0.0000000000000000e+00  0.0000000000000000e+00  0.0000000000000000e+00  0.0000000000000000e+00  0.0000000000000000e+00  0.0000000000000000e+00  0.0000000000000000e+00  0.0000000000000000e+00  0.0000000000000000e+00  0.0000000000000000e+00  0.0000000000000000e+00  0.0000000000000000e+00  0.0000000000000000e+00  0.0000000000000000e+00  0.0000000000000000e+00  0.0000000000000000e+00  0.0000000000000000e+00  0.0000000000000000e+00  0.0000000000000000e+00  0.0000000000000000e+00  0.0000000000000000e+00  0.0000000000000000e+00  0.0000000000000000e+00  0.0000000000000000e+00  0.0000000000000000e+00  0.0000000000000000e+00  0.0000000000000000e+00  0.0000000000000000e+00  0.0000000000000000e+00  0.0000000000000000e+00  0.0000000000000000e+00  0.0000000000000000e+00  0.0000000000000000e+00  0.0000000000000000e+00  0.0000000000000000e+00  0.0000000000000000e+00  0.0000000000000000e+00  0.0000000000000000e+00  0.0000000000000000e+00  0.0000000000000000e+00  0.0000000000000000e+00  0.0000000000000000e+00  0.0000000000000000e+00  0.0000000000000000e+00  0.0000000000000000e+00  0.0000000000000000e+00  0.0000000000000000e+00  0.0000000000000000e+00  0.0000000000000000e+00  0.0000000000000000e+00  0.0000000000000000e+00  0.0000000000000000e+00  0.0000000000000000e+00  0.0000000000000000e+00  0.0000000000000000e+00  0.0000000000000000e+00  0.0000000000000000e+00  0.0000000000000000e+00  0.0000000000000000e+00  0.0000000000000000e+00  0.0000000000000000e+00  0.0000000000000000e+00  0.0000000000000000e+00  0.0000000000000000e+00  0.0000000000000000e+00  0.0000000000000000e+00  0.0000000000000000e+00  0.0000000000000000e+00  0.0000000000000000e+00  0.0000000000000000e+00  0.0000000000000000e+00  0.0000000000000000e+00  0.0000000000000000e+00  0.0000000000000000e+00  0.0000000000000000e+00  0.0000000000000000e+00  0.0000000000000000e+00  0.0000000000000000e+00  0.0000000000000000e+00  0.0000000000000000e+00  0.0000000000000000e+00  0.0000000000000000e+00  0.0000000000000000e+00  0.0000000000000000e+00  0.0000000000000000e+00  0.0000000000000000e+00  0.0000000000000000e+00  0.0000000000000000e+00  0.0000000000000000e+00  0.0000000000000000e+00  0.0000000000000000e+00  0.0000000000000000e+00  0.0000000000000000e+00  0.0000000000000000e+00  0.0000000000000000e+00  0.0000000000000000e+00  0.0000000000000000e+00  0.0000000000000000e+00  0.0000000000000000e+00  0.0000000000000000e+00  0.0000000000000000e+00  0.0000000000000000e+00  0.0000000000000000e+00  0.0000000000000000e+00  0.0000000000000000e+00  0.0000000000000000e+00  0.0000000000000000e+00  0.0000000000000000e+00  0.0000000000000000e+00  0.0000000000000000e+00  0.0000000000000000e+00  0.0000000000000000e+00  0.0000000000000000e+00  0.0000000000000000e+00  0.0000000000000000e+00  0.0000000000000000e+00  0.0000000000000000e+00  0.0000000000000000e+00  0.0000000000000000e+00  0.0000000000000000e+00  0.0000000000000000e+00  0.0000000000000000e+00  0.0000000000000000e+00  0.0000000000000000e+00  0.0000000000000000e+00  0.0000000000000000e+00  0.0000000000000000e+00  0.0000000000000000e+00  0.0000000000000000e+00  0.0000000000000000e+00  0.0000000000000000e+00  0.0000000000000000e+00  0.0000000000000000e+00  0.0000000000000000e+00  0.0000000000000000e+00  0.0000000000000000e+00  0.0000000000000000e+00  0.0000000000000000e+00  0.0000000000000000e+00  0.0000000000000000e+00  0.0000000000000000e+00  0.0000000000000000e+00  0.0000000000000000e+00  0.0000000000000000e+00  0.0000000000000000e+00  0.0000000000000000e+00  0.0000000000000000e+00  0.0000000000000000e+00  0.0000000000000000e+00  0.0000000000000000e+00  0.0000000000000000e+00  0.0000000000000000e+00  0.0000000000000000e+00  0.0000000000000000e+00  0.0000000000000000e+00  0.0000000000000000e+00  0.0000000000000000e+00  0.0000000000000000e+00  0.0000000000000000e+00  0.0000000000000000e+00  0.0000000000000000e+00  0.0000000000000000e+00  0.0000000000000000e+00  0.0000000000000000e+00  0.0000000000000000e+00  0.0000000000000000e+00  0.0000000000000000e+00  0.0000000000000000e+00  0.0000000000000000e+00  0.0000000000000000e+00  0.0000000000000000e+00  0.0000000000000000e+00  0.0000000000000000e+00  0.0000000000000000e+00  0.0000000000000000e+00  0.0000000000000000e+00  0.0000000000000000e+00  0.0000000000000000e+00  0.0000000000000000e+00  0.0000000000000000e+00  0.0000000000000000e+00  0.0000000000000000e+00  0.0000000000000000e+00  0.0000000000000000e+00  0.0000000000000000e+00  0.0000000000000000e+00  0.0000000000000000e+00  0.0000000000000000e+00  0.0000000000000000e+00  0.0000000000000000e+00  0.0000000000000000e+00  0.0000000000000000e+00  0.0000000000000000e+00  0.0000000000000000e+00  0.0000000000000000e+00  0.0000000000000000e+00  0.0000000000000000e+00  0.0000000000000000e+00  0.0000000000000000e+00  0.0000000000000000e+00  0.0000000000000000e+00  0.0000000000000000e+00  0.0000000000000000e+00  0.0000000000000000e+00  0.0000000000000000e+00  0.0000000000000000e+00  0.0000000000000000e+00  0.0000000000000000e+00  0.0000000000000000e+00  0.0000000000000000e+00  0.0000000000000000e+00  0.0000000000000000e+00  0.0000000000000000e+00  0.0000000000000000e+00  0.0000000000000000e+00  0.0000000000000000e+00  0.0000000000000000e+00  0.0000000000000000e+00  0.0000000000000000e+00  0.0000000000000000e+00  0.0000000000000000e+00  0.0000000000000000e+00  0.0000000000000000e+00  0.0000000000000000e+00  0.0000000000000000e+00  0.0000000000000000e+00  0.0000000000000000e+00  0.0000000000000000e+00  0.0000000000000000e+00  0.0000000000000000e+00  0.0000000000000000e+00  0.0000000000000000e+00  0.0000000000000000e+00  0.0000000000000000e+00  0.0000000000000000e+00  0.0000000000000000e+00  0.0000000000000000e+00  0.0000000000000000e+00  0.0000000000000000e+00  0.0000000000000000e+00  0.0000000000000000e+00  0.0000000000000000e+00  0.0000000000000000e+00  0.0000000000000000e+00  0.0000000000000000e+00  0.0000000000000000e+00  0.0000000000000000e+00  0.0000000000000000e+00  0.0000000000000000e+00  0.0000000000000000e+00  0.0000000000000000e+00  0.0000000000000000e+00  0.0000000000000000e+00  0.0000000000000000e+00  0.0000000000000000e+00  0.0000000000000000e+00  0.0000000000000000e+00  0.0000000000000000e+00  0.0000000000000000e+00  0.0000000000000000e+00  0.0000000000000000e+00  0.0000000000000000e+00  0.0000000000000000e+00  0.0000000000000000e+00  0.0000000000000000e+00  0.0000000000000000e+00  0.0000000000000000e+00  0.0000000000000000e+00  0.0000000000000000e+00  0.0000000000000000e+00  0.0000000000000000e+00  0.0000000000000000e+00  0.0000000000000000e+00  0.0000000000000000e+00  0.0000000000000000e+00  0.0000000000000000e+00  0.0000000000000000e+00  0.0000000000000000e+00  0.0000000000000000e+00  0.0000000000000000e+00  0.0000000000000000e+00  0.0000000000000000e+00  0.0000000000000000e+00  0.0000000000000000e+00  0.0000000000000000e+00  0.0000000000000000e+00  0.0000000000000000e+00  0.0000000000000000e+00  0.0000000000000000e+00  0.0000000000000000e+00  0.0000000000000000e+00  0.0000000000000000e+00  0.0000000000000000e+00  0.0000000000000000e+00  0.0000000000000000e+00  0.0000000000000000e+00  0.0000000000000000e+00  0.0000000000000000e+00  0.0000000000000000e+00  0.0000000000000000e+00  0.0000000000000000e+00  0.0000000000000000e+00  0.0000000000000000e+00  0.0000000000000000e+00  0.0000000000000000e+00  0.0000000000000000e+00  0.0000000000000000e+00  0.0000000000000000e+00  0.0000000000000000e+00  0.0000000000000000e+00  0.0000000000000000e+00  0.0000000000000000e+00  0.0000000000000000e+00  0.0000000000000000e+00  0.0000000000000000e+00  0.0000000000000000e+00  0.0000000000000000e+00  0.0000000000000000e+00  0.0000000000000000e+00  0.0000000000000000e+00  0.0000000000000000e+00  0.0000000000000000e+00  0.0000000000000000e+00  0.0000000000000000e+00  0.0000000000000000e+00  0.0000000000000000e+00  0.0000000000000000e+00  0.0000000000000000e+00  0.0000000000000000e+00  0.0000000000000000e+00  0.0000000000000000e+00  0.0000000000000000e+00  0.0000000000000000e+00  0.0000000000000000e+00  0.0000000000000000e+00  0.0000000000000000e+00  0.0000000000000000e+00  0.0000000000000000e+00  0.0000000000000000e+00  0.0000000000000000e+00  0.0000000000000000e+00  0.0000000000000000e+00  0.0000000000000000e+00  0.0000000000000000e+00  0.0000000000000000e+00  0.0000000000000000e+00  0.0000000000000000e+00  0.0000000000000000e+00  0.0000000000000000e+00  0.0000000000000000e+00  0.0000000000000000e+00  0.0000000000000000e+00  0.0000000000000000e+00  0.0000000000000000e+00  0.0000000000000000e+00  0.0000000000000000e+00  0.0000000000000000e+00  0.0000000000000000e+00  0.0000000000000000e+00  0.0000000000000000e+00  0.0000000000000000e+00  0.0000000000000000e+00  0.0000000000000000e+00  0.0000000000000000e+00  0.0000000000000000e+00  0.0000000000000000e+00  0.0000000000000000e+00  0.0000000000000000e+00  9.6367904099586477e-01  9.6872467882381619e-01  9.7311179687202320e-01  9.7664909097396346e-01  9.7079819002417056e-01  9.6021960605619594e-01  9.6411356702757678e-01  9.7025113849031464e-01  9.6685094200700183e-01  9.6178281670877463e-01  9.6597010470476763e-01  9.6188349867339440e-01  9.6331641821749348e-01  9.6847365916046868e-01  9.6999016025894547e-01  9.6763758413665213e-01  9.7234344850924004e-01  9.7151775724476508e-01  9.6431114873622692e-01  9.6664899163434559e-01  9.6795586814935186e-01  9.6843387524091529e-01  9.6501277973704114e-01  9.6456614487638082e-01  9.6736741446416930e-01  9.6890096122268610e-01  9.6663866752333594e-01  9.6859995400347842e-01  9.7302377768250536e-01  9.7035653561388091e-01  9.6955382758890529e-01  9.6745242484000127e-01  9.6571647666087979e-01  9.5686322411889402e-01  9.6771432223309262e-01  9.6282826650416298e-01  9.6597219624305675e-01  9.6348610265830703e-01  9.6490402452435764e-01  9.6613598535145362e-01  9.7226537024113191e-01  9.6036447946556325e-01  9.6871882263485853e-01  9.6213833887409872e-01  9.6800749365924954e-01  9.6724889030985917e-01  9.4632443616553108e-01  9.6145272164379203e-01  9.6755091461145237e-01  9.6760344454941694e-01  9.6691606686211118e-01  9.7158876888429258e-01  9.6789757930218578e-01  9.5908232442945507e-01  9.6589590983623541e-01  9.6839829391121846e-01  9.6952729773062574e-01  9.6944241852282997e-01  9.5880786744942437e-01  9.6238541147896450e-01  9.6482109331720967e-01  9.6423286675543274e-01  -2.6580523222645167e-32  2.7003656471107416e-32  4.1380541807535266e-35  8.0540053600737334e-35  3.3840576104014947e-32  5.9643333945698891e-32  6.8394613615393209e-36  1.2833116557802517e-36  -1.0641713854935740e-31  -4.4368251627117848e-32  8.8534184872263855e-33  1.6155885541980868e-32  9.9097797676873194e-33  1.1681653670365350e-32  6.3131683212557834e-31  3.1939915491575972e-31  -9.5679939336712920e-31  -1.0502841421432504e-32  -1.3804135466713907e-30  -1.8786827567203828e-30  -2.7834066525352408e-31  -4.0495880904559536e-31  -7.2015910861068154e-31  -1.1222848832140708e-30  -4.7637716746658852e-31  -5.1476943792164391e-31  -2.4595560243233302e-29  -5.1032406454564019e-30  -3.6980117774087765e-30  -3.2632628487560278e-29  1.2917079548353484e-30  -4.6096242124460247e-31  -7.1215113173414172e-37  5.3325544267338522e-37  4.6011514689079580e-37  -7.1073167627695278e-37  7.2986900026105998e-34  4.1766149278110531e-34  4.5369490415656145e-34  4.2176340816793198e-34  -1.4251438414782948e-28  1.5530099072557355e-30  -7.7719468329464978e-32  2.7463055375002086e-28  1.8630589859185545e-36  1.2257717679160005e-36  2.2382466894534091e-36  -6.3461473791218901e-39  -1.0353569146087128e-39  -7.4439810055307970e-39  1.0392699100487713e-39  -6.7229132391426937e-38  1.6515212876386162e-40  -2.6162345328820737e-38  -2.8656448376352619e-39  -2.0473792209299502e-40  -2.7760085581252103e-38  2.0753049557117490e-40  -1.3575195377484101e-38  -2.7760590871796208e-40  -7.4014807631413286e-41  -8.1032882033290228e-41  -7.4457627846820225e-41  -2.9589750935051992e-42  -1.3705257704453004e-42  7.2239292285401147e-42  9.0534325311253200e-42  -7.8401594507002322e-41  2.5772595640374549e-28  4.5889443401114907e-31  -2.4971944297050107e-31  2.5454832422605261e-28  4.1391561662480187e-31  2.6214932939771411e-31  2.4941114524498323e-30  2.0820893432241006e-30  2.7882861718599139e-31  2.9979743671302971e-31  -4.4620639751122352e-31  -1.5263676562246773e-30  -3.3586964151202894e-31  -7.7626687954375144e-32  6.0095676252051710e-30  8.8025144987677695e-30  -5.8256989326530611e-32  3.6224064998138911e-31  -5.3124405878590671e-33  1.2743586238085601e-31  -3.0179117277904151e-31  -3.0896489983134637e-31  -2.6923748790928288e-33  -2.4368215578292039e-33  -5.9904183042841225e-32  -5.8659252132725773e-32  1.3980245345925407e-33  1.4933810038424735e-33  6.8550864512833026e-36  -2.4274696655406385e-33  5.9853808769309644e-33  -5.9440682220962342e-36  1.1984250606956666e-33  -5.9156326929535455e-36  5.9903749079975672e-36  5.6519780934168054e-33  3.2164913540041776e-43  1.3229289813277390e-42  -2.7520420840532547e-43  -4.1278533012693777e-43  -1.6992979030381834e-43  -2.3621140929121154e-43  5.1000971913070914e-43  3.8924711672880424e-43  5.8509242695972952e-29  2.5023713411312924e-30  6.9817662946985094e-31  3.0364136362068477e-28  6.2270646604915477e-33  -2.9615671835031599e-34  -3.7950218404309624e-34  -1.7571773547496736e-32  3.4145615502164075e-34  2.4175902605721036e-32  4.5524402922208122e-32  3.0233196160437099e-34  -1.0142959642701282e-37  -1.4439830341575440e-34  -6.3303164712798617e-35  -1.6279289712468457e-38  -7.6780889942887687e-38  6.3340792561989042e-36  -8.4116891643522608e-35  6.6434506958868840e-39  3.2425421663517334e-40  -2.7658876814079899e-41  -2.5705521209240622e-37  -8.4951154540583405e-40  -5.3940860319230889e-38  -6.6505486989140113e-40  1.8081826488681101e-39  -2.4322289484422139e-41  -1.2447677336311424e-37  -8.1930451194063580e-40  -1.6353637457242815e-40  -2.2925341963589776e-41  1.7263286890341503e-39  -1.5879486758665030e-41  -5.0988929799411701e-38  -6.6610016585695890e-40  -1.2761032237072043e-43  6.6227470388007259e-44  -5.8934111636391128e-44  -1.8212104000573993e-43  -5.5010585570884534e-29  -3.3831596531977157e-29  -3.5000089187703643e-28  9.2099073152727445e-28  1.3365547684953013e-27  -5.0492546507842966e-27  -3.7827006643910524e-27  1.8935412059157277e-26  6.9013962621205846e-27  -5.2810451145907469e-26  1.9627595382837267e-27  9.2797412846335298e-26  -8.4665668878904502e-26  4.4856710797795387e-26  4.5549845079760554e-25  -1.2456720259228132e-24  -1.6610637383104933e-24  6.5009632076548618e-24  4.6011597346456862e-24  -2.3307567622476977e-23  -9.0353629169527940e-24  -1.8272859517866785e-23  6.3538565573697531e-23  6.0520204861572875e-24  -1.2093503263202978e-22  4.4215524823589544e-23  5.6736111727416943e-23  -2.4163277282956397e-22  6.8713522449743951e-22  6.9723262207695165e-22  -3.4559680244584969e-21  -1.0566884558713595e-21  4.1327121389871428e-22  9.4631637771048650e-21  -1.1126855213364021e-21  -1.1999969772394807e-20  1.2216018559325064e-20  -2.5047762354671326e-20  -3.6266025587360462e-20  1.8355103317130408e-19  3.6794647409165481e-20  -4.6263664320463120e-19  1.3525488624677764e-19  -4.8958908483961901e-19  2.2316793051840255e-19  -6.5841682507901987e-19  2.5206380165057368e-18  9.3919756600568719e-19  3.8349243040013564e-20  -6.9175659238808028e-19  1.7874551482333038e-18  1.2849902580178161e-18  -2.1646761763627072e-20  -6.8786445935556533e-19  1.3499905582625921e-19  -1.3592611023690123e-20  1.2211070991329245e-18  -6.7033575744327029e-19  1.2103889290492300e-19  4.8353528056245957e-20  -4.1798105456986764e-20  8.4265446241345883e-20  -5.7440580060143961e-19  1.0578817731139855e-19  -3.9798186457742455e-20  4.0414123219640195e-20  -4.0904980839655838e-19  1.2891415690330035e-19  -3.1572031110284941e-20  4.4675325749695595e-21  -2.4967243947339447e-19  1.3961067760358249e-19  -5.4834398816527402e-19  7.5789491349160808e-21  1.2379787085085218e-20  7.4636926015479499e-19  -4.4370787013154791e-19  1.6085541870379715e-18  1.1895483312334307e-19  -4.5881657558635809e-18  2.9737013167998170e-18  -1.6875604170260383e-17  -3.6851976973846050e-19  5.1278762023034142e-18  -1.4029060914295860e-17  -6.3113679870473049e-19  2.7248770422091535e-17  -1.5702714426820343e-17  8.5656935666804838e-17  -2.6357963635683783e-17  9.1501906882464063e-17  -1.5977396526467715e-17  1.4767837336157034e-17  8.4487318906022520e-18  -6.4000132478803954e-17  6.3675535355558918e-18  3.6254537920656110e-19  -2.8329823008847088e-01  1.7928338954731600e-17  -4.4533785745585884e-17  5.2782993034547130e-20  4.8413802378391730e-17  -3.2076625231421374e-01  -2.2423036436523598e-17  9.9835117333620227e-17  -2.6180695545673838e-01  -2.4249895207640319e-17  6.5426508549894841e-17  -3.4147490851921816e-16  -1.2252482911960257e-16  5.6441359139101650e-18  4.9957867585224943e-17  -3.7452580411980592e-16  6.9875831512597740e-18  -2.0688622547504151e-17  7.4673901503298961e-17  -2.9099339643134340e-16  -2.0235754600341633e-16  3.1751927863879721e-17  -4.4047691023598620e-17  4.2083036511009408e-16  -6.2839504266563685e-18  1.9820574455849050e-17  -7.4538000533388660e-17  2.8547189073985947e-16  1.4069219668234841e-16  -4.5592542338398335e-18  -6.3099615528693309e-17  2.5510100403447118e-17  2.2191579013646237e-16  -2.1741226410034681e-17  -6.6419957711702975e-17  -1.3651099632241693e-16  3.5888749488138156e-16  -4.7932465061428047e-17  -5.9916594218160615e-17  -3.9665914921697240e-16  4.8664464653332039e-16  -1.7742691223945286e-15  -5.4809222743141366e-16  -6.5400495194321275e-17  5.6846730734483731e-16  -2.2428340576177338e-15  -3.6067440986618828e-16  -1.1040303431281419e-16  5.4847077955967389e-16  -2.7693851212574150e-15  1.8953879637805452e-16  3.4620133874609729e-15  -2.5417954164587806e-15  1.1135193666337309e-14  -5.8669925788206790e-16  6.9057472981118075e-16  -1.1780342384980833e-15  9.1370973730255464e-15  -2.8492664039615649e-15  7.0389260142350622e-15  1.0308911792065237e-15  -1.5192217145637807e-14  5.5383110017088523e-15  -1.4083507902275799e-14  -2.9919445883161770e-15  -8.4842907742880445e-16  3.5186363511602872e-15  -2.4488581707729065e-14  9.2655353253606715e-15  -4.2117872468765408e-14  1.2330360618738257e-14  -4.7992723313144118e-14  1.3447618909242870e-14  -5.3450122725129696e-14  1.5992873122845175e-14  -6.6450104843568602e-14  1.9512637254588691e-14  -7.5602094803632663e-14  1.9499274562405654e-14  -6.3900305547273326e-14  1.3197268845658371e-14  -3.1515185659922509e-14  3.8211422864977281e-15  8.5113479433119062e-17  -2.2737633140803328e-15  1.1511424668569336e-14  -2.5612820875557730e-15  5.2496291144527761e-15  -3.4576138651681477e-16  -1.4839882907398113e-15  4.0167883910069104e-16  -8.3925559618959685e-17  -3.2868347902398872e-17  3.7438499863310734e-17  -4.4281979000036768e-18  -7.9584199008786984e-18  2.5225477318436949e-18  9.4023229111719921e-19  -5.8900808527666451e-19  2.7643470668046760e-20  -7.3145827175072352e-19  8.0616425346012650e-20  -3.4630255594892901e-15  1.7905916294201181e-19  -2.9191612317789375e-19  -5.8359859448491679e-21  2.1033899276894450e-19  -4.9464158786687935e-20  6.9008635986882388e-20  3.2633051728736393e-21 