<?xml version="1.0"?>
<VTKFile type="UnstructuredGrid"  version="0.1"  >
<UnstructuredGrid>
<Piece  NumberOfPoints="11902" NumberOfCells="23402">
<Points>
<DataArray  type="Float64"  NumberOfComponents="3"  format="ascii">-5 -5 0  5 -5 0  5 5 0  -5 5 0  1.197211427963226 0.001277235513226914 0  -4.9 -5 0  -4.8 -5 0  -4.7 -5 0  -4.6 -5 0  -4.5 -5 0  -4.4 -5 0  -4.3 -5 0  -4.2 -5 0  -4.1 -5 0  -4 -5 0  -3.9 -5 0  -3.8 -5 0  -3.7 -5 0  -3.6 -5 0  -3.5 -5 0  -3.4 -5 0  -3.3 -5 0  -3.2 -5 0  -3.1 -5 0  -3 -5 0  -2.9 -5 0  -2.8 -5 0  -2.7 -5 0  -2.6 -5 0  -2.5 -5 0  -2.4 -5 0  -2.3 -5 0  -2.2 -5 0  -2.1 -5 0  -2 -5 0  -1.9 -5 0  -1.8 -5 0  -1.7 -5 0  -1.6 -5 0  -1.5 -5 0  -1.4 -5 0  -1.3 -5 0  -1.2 -5 0  -1.1 -5 0  -1 -5 0  -0.9000000000000004 -5 0  -0.7999999999999998 -5 0  -0.7000000000000002 -5 0  -0.5999999999999996 -5 0  -0.5 -5 0  -0.4000000000000004 -5 0  -0.2999999999999998 -5 0  -0.2000000000000002 -5 0  -0.09999999999999964 -5 0  0 -5 0  0.09999999999999964 -5 0  0.2000000000000002 -5 0  0.2999999999999998 -5 0  0.4000000000000004 -5 0  0.5 -5 0  0.5999999999999996 -5 0  0.7000000000000002 -5 0  0.7999999999999998 -5 0  0.9000000000000004 -5 0  1 -5 0  1.1 -5 0  1.2 -5 0  1.3 -5 0  1.4 -5 0  1.5 -5 0  1.6 -5 0  1.7 -5 0  1.8 -5 0  1.9 -5 0  2 -5 0  2.1 -5 0  2.2 -5 0  2.3 -5 0  2.4 -5 0  2.5 -5 0  2.6 -5 0  2.7 -5 0  2.8 -5 0  2.9 -5 0  3 -5 0  3.1 -5 0  3.199999999999999 -5 0  3.300000000000001 -5 0  3.4 -5 0  3.5 -5 0  3.6 -5 0  3.699999999999999 -5 0  3.800000000000001 -5 0  3.9 -5 0  4 -5 0  4.1 -5 0  4.199999999999999 -5 0  4.300000000000001 -5 0  4.4 -5 0  4.5 -5 0  4.6 -5 0  4.699999999999999 -5 0  4.800000000000001 -5 0  4.9 -5 0  5 -4.9 0  5 -4.8 0  5 -4.7 0  5 -4.6 0  5 -4.5 0  5 -4.4 0  5 -4.3 0  5 -4.2 0  5 -4.1 0  5 -4 0  5 -3.9 0  5 -3.8 0  5 -3.7 0  5 -3.6 0  5 -3.5 0  5 -3.4 0  5 -3.3 0  5 -3.2 0  5 -3.1 0  5 -3 0  5 -2.9 0  5 -2.8 0  5 -2.7 0  5 -2.6 0  5 -2.5 0  5 -2.4 0  5 -2.3 0  5 -2.2 0  5 -2.1 0  5 -2 0  5 -1.9 0  5 -1.8 0  5 -1.7 0  5 -1.6 0  5 -1.5 0  5 -1.4 0  5 -1.3 0  5 -1.2 0  5 -1.1 0  5 -1 0  5 -0.9000000000000004 0  5 -0.7999999999999998 0  5 -0.7000000000000002 0  5 -0.5999999999999996 0  5 -0.5 0  5 -0.4000000000000004 0  5 -0.2999999999999998 0  5 -0.2000000000000002 0  5 -0.09999999999999964 0  5 0 0  5 0.09999999999999964 0  5 0.2000000000000002 0  5 0.2999999999999998 0  5 0.4000000000000004 0  5 0.5 0  5 0.5999999999999996 0  5 0.7000000000000002 0  5 0.7999999999999998 0  5 0.9000000000000004 0  5 1 0  5 1.1 0  5 1.2 0  5 1.3 0  5 1.4 0  5 1.5 0  5 1.6 0  5 1.7 0  5 1.8 0  5 1.9 0  5 2 0  5 2.1 0  5 2.2 0  5 2.3 0  5 2.4 0  5 2.5 0  5 2.6 0  5 2.7 0  5 2.8 0  5 2.9 0  5 3 0  5 3.1 0  5 3.199999999999999 0  5 3.300000000000001 0  5 3.4 0  5 3.5 0  5 3.6 0  5 3.699999999999999 0  5 3.800000000000001 0  5 3.9 0  5 4 0  5 4.1 0  5 4.199999999999999 0  5 4.300000000000001 0  5 4.4 0  5 4.5 0  5 4.6 0  5 4.699999999999999 0  5 4.800000000000001 0  5 4.9 0  4.9 5 0  4.8 5 0  4.7 5 0  4.6 5 0  4.5 5 0  4.4 5 0  4.3 5 0  4.2 5 0  4.1 5 0  4 5 0  3.9 5 0  3.8 5 0  3.7 5 0  3.6 5 0  3.5 5 0  3.4 5 0  3.3 5 0  3.2 5 0  3.1 5 0  3 5 0  2.9 5 0  2.8 5 0  2.7 5 0  2.6 5 0  2.5 5 0  2.4 5 0  2.3 5 0  2.2 5 0  2.1 5 0  2 5 0  1.9 5 0  1.8 5 0  1.7 5 0  1.6 5 0  1.5 5 0  1.4 5 0  1.3 5 0  1.2 5 0  1.1 5 0  1 5 0  0.9000000000000004 5 0  0.7999999999999998 5 0  0.7000000000000002 5 0  0.5999999999999996 5 0  0.5 5 0  0.4000000000000004 5 0  0.2999999999999998 5 0  0.2000000000000002 5 0  0.09999999999999964 5 0  0 5 0  -0.09999999999999964 5 0  -0.2000000000000002 5 0  -0.2999999999999998 5 0  -0.4000000000000004 5 0  -0.5 5 0  -0.5999999999999996 5 0  -0.7000000000000002 5 0  -0.7999999999999998 5 0  -0.9000000000000004 5 0  -1 5 0  -1.1 5 0  -1.2 5 0  -1.3 5 0  -1.4 5 0  -1.5 5 0  -1.6 5 0  -1.7 5 0  -1.8 5 0  -1.9 5 0  -2 5 0  -2.1 5 0  -2.2 5 0  -2.3 5 0  -2.4 5 0  -2.5 5 0  -2.6 5 0  -2.7 5 0  -2.8 5 0  -2.9 5 0  -3 5 0  -3.1 5 0  -3.199999999999999 5 0  -3.300000000000001 5 0  -3.4 5 0  -3.5 5 0  -3.6 5 0  -3.699999999999999 5 0  -3.800000000000001 5 0  -3.9 5 0  -4 5 0  -4.1 5 0  -4.199999999999999 5 0  -4.300000000000001 5 0  -4.4 5 0  -4.5 5 0  -4.6 5 0  -4.699999999999999 5 0  -4.800000000000001 5 0  -4.9 5 0  -5 4.9 0  -5 4.8 0  -5 4.7 0  -5 4.6 0  -5 4.5 0  -5 4.4 0  -5 4.3 0  -5 4.2 0  -5 4.1 0  -5 4 0  -5 3.9 0  -5 3.8 0  -5 3.7 0  -5 3.6 0  -5 3.5 0  -5 3.4 0  -5 3.3 0  -5 3.2 0  -5 3.1 0  -5 3 0  -5 2.9 0  -5 2.8 0  -5 2.7 0  -5 2.6 0  -5 2.5 0  -5 2.4 0  -5 2.3 0  -5 2.2 0  -5 2.1 0  -5 2 0  -5 1.9 0  -5 1.8 0  -5 1.7 0  -5 1.6 0  -5 1.5 0  -5 1.4 0  -5 1.3 0  -5 1.2 0  -5 1.1 0  -5 1 0  -5 0.9000000000000004 0  -5 0.7999999999999998 0  -5 0.7000000000000002 0  -5 0.5999999999999996 0  -5 0.5 0  -5 0.4000000000000004 0  -5 0.2999999999999998 0  -5 0.2000000000000002 0  -5 0.09999999999999964 0  -5 0 0  -5 -0.09999999999999964 0  -5 -0.2000000000000002 0  -5 -0.2999999999999998 0  -5 -0.4000000000000004 0  -5 -0.5 0  -5 -0.5999999999999996 0  -5 -0.7000000000000002 0  -5 -0.7999999999999998 0  -5 -0.9000000000000004 0  -5 -1 0  -5 -1.1 0  -5 -1.2 0  -5 -1.3 0  -5 -1.4 0  -5 -1.5 0  -5 -1.6 0  -5 -1.7 0  -5 -1.8 0  -5 -1.9 0  -5 -2 0  -5 -2.1 0  -5 -2.2 0  -5 -2.3 0  -5 -2.4 0  -5 -2.5 0  -5 -2.6 0  -5 -2.7 0  -5 -2.8 0  -5 -2.9 0  -5 -3 0  -5 -3.1 0  -5 -3.199999999999999 0  -5 -3.300000000000001 0  -5 -3.4 0  -5 -3.5 0  -5 -3.6 0  -5 -3.699999999999999 0  -5 -3.800000000000001 0  -5 -3.9 0  -5 -4 0  -5 -4.1 0  -5 -4.199999999999999 0  -5 -4.300000000000001 0  -5 -4.4 0  -5 -4.5 0  -5 -4.6 0  -5 -4.699999999999999 0  -5 -4.800000000000001 0  -5 -4.9 0  1.191252969315409 0.09913703392926262 0  1.172559132749819 0.1973392874042279 0  1.141273666711512 0.2946060307848732 0  1.100784473592248 0.3861551920825379 0  1.048142930649958 0.4768378742926173 0  0.9861341453426818 0.5619588067565436 0  0.9132347889667148 0.6417275475225844 0  0.831059445711171 0.7145464375272255 0  0.7418479106534576 0.7802385830865444 0  0.6445012209334512 0.8387658671129684 0  0.5400500698368852 0.8895878538908399 0  0.431405721828501 0.9314863499808747 0  0.3204074712549516 0.9642986785409284 0  0.2038900322578934 0.9866994166763474 0  0.08843655738045574 1.001270625436163 0  -0.02770000193039553 1.004040538623792 0  -0.1440086319421875 0.9943309474419549 0  -0.2616029311229622 0.9766627431485334 0  -0.375924955466006 0.950472026300591 0  -0.4851540212818369 0.9139496808889762 0  -0.5896374183510236 0.8683781119272611 0  -0.6890372934444672 0.8136538177075412 0  -0.7813224360820317 0.7507474154646577 0  -0.867076925541432 0.6802353483644391 0  -0.9454946293265134 0.6021530381277528 0  -1.013571990746874 0.5197184711537767 0  -1.072162587685438 0.4327743195021722 0  -1.119466737692335 0.3406472733848226 0  -1.154935900399427 0.2465495419251126 0  -1.178785081600327 0.1499488318880328 0  -1.190874912585881 0.05078742111898203 0  -1.19087107532758 -0.04904139672548943 0  -1.17872400182527 -0.1478745288587526 0  -1.155775493408097 -0.2444746853906975 0  -1.118955524008984 -0.3402803058038994 0  -1.072524718370831 -0.4315612856298185 0  -1.014558270998448 -0.5188061554756463 0  -0.9470020810055764 -0.6007972809985819 0  -0.8688951547080966 -0.6777154228996964 0  -0.7827329709788835 -0.7472411134303717 0  -0.6891605446151168 -0.8085342678193314 0  -0.5898449479360817 -0.8628720675496366 0  -0.4824368246221503 -0.9096662174739779 0  -0.3726706428048833 -0.9476917802899848 0  -0.2587700786392184 -0.9753086011852162 0  -0.1426124471635725 -0.9934146815688034 0  -0.02728902861106011 -1.003169506234097 0  0.08905037328245807 -0.9987838804084161 0  0.2067498933529305 -0.9844272367257273 0  0.32200936961026 -0.9626322636636293 0  0.4347724424909838 -0.9300644354057185 0  0.5417070138318768 -0.8886265891780034 0  0.6452222080001325 -0.8383560451051388 0  0.7420205558309717 -0.7812085446317197 0  0.8311259053781553 -0.7152552697847362 0  0.9127369057066151 -0.6411682155373457 0  0.9847138278645143 -0.5612970232569451 0  1.048002495580657 -0.4762778052630646 0  1.101819487799095 -0.3862255469706914 0  1.142690012417752 -0.2931684024243928 0  1.172814765152311 -0.1965109920688516 0  1.19127382210305 -0.09867344974834276 0  -2.448790475850735 4.918534846152168 0  -2.448685124770027 -4.910951388939243 0  4.910886135789021 2.448220814927444 0  4.918969534431005 -2.449652758148995 0  2.446455640090591 -4.896262693383404 0  2.440879644380352 4.900007825986787 0  -4.910909526354196 -2.448243722910365 0  -4.91090781205763 2.44824755942664 0  -1.748752947738688 4.911609863132475 0  -1.74452940830763 -4.915027256675564 0  4.921185784859416 1.7443649888435 0  4.909797911883309 -1.748169201714863 0  -4.910084905187492 -1.747898561736375 0  -4.910902569021959 1.747639939353654 0  1.74604057008906 4.905510648017354 0  1.747483982276322 -4.8937335502982 0  -1.14901586140542 4.909520617361372 0  -1.129854747967554 -4.917376102854825 0  -4.90996304509791 -1.148168358653799 0  -4.909783849951828 1.147968466943654 0  1.14399931287457 -4.913590095059209 0  1.149023720406264 4.909509381612979 0  4.910109343471451 1.146445705391617 0  4.920846387789684 -1.152199614552874 0  -0.5467598541966812 -4.910772730173046 0  -0.5465336530882769 4.919387185247778 0  -4.908824869065976 -0.5488422970367743 0  -4.90884927989462 0.5473985504914707 0  4.908159106491932 -0.5491632467449958 0  4.919702822178476 0.5459023484499623 0  0.5425510619691756 -4.897761032712449 0  0.5512639213874759 4.916236825625871 0  -4.912188019139447 -3.048545821728126 0  4.918739260128781 3.046545713606819 0  4.91169910006005 -3.048525565445582 0  -4.913034329579909 3.045635354423168 0  3.055491519339256 -4.917676778270143 0  -3.048836678028387 -4.911632686271084 0  3.05239953584172 4.913705190577445 0  -3.048280983909591 4.912520051597297 0  -4.907981353688202 -0.04992104967812306 0  0.04512551950566249 -4.912728924179338 0  0.04957381815202459 4.91969827292943 0  4.91497356564636 -0.05130229817638356 0  3.545770194274368 -4.9192322882685 0  -3.54906383003043 4.912148
[...]
<PointData  Scalars="f_27"> 
<DataArray  type="Float64"  Name="f_27"  format="ascii">0.0000000000000000e+00  0.0000000000000000e+00  0.0000000000000000e+00  0.0000000000000000e+00  8.5797423913819815e-01  0.0000000000000000e+00  0.0000000000000000e+00  0.0000000000000000e+00  0.0000000000000000e+00  0.0000000000000000e+00  0.0000000000000000e+00  0.0000000000000000e+00  0.0000000000000000e+00  0.0000000000000000e+00  0.0000000000000000e+00  0.0000000000000000e+00  0.0000000000000000e+00  0.0000000000000000e+00  0.0000000000000000e+00  0.0000000000000000e+00  0.0000000000000000e+00  0.0000000000000000e+00  0.0000000000000000e+00  0.0000000000000000e+00  0.0000000000000000e+00  0.0000000000000000e+00  0.0000000000000000e+00  0.0000000000000000e+00  0.0000000000000000e+00  0.0000000000000000e+00  0.0000000000000000e+00  0.0000000000000000e+00  0.0000000000000000e+00  0.0000000000000000e+00  0.0000000000000000e+00  0.0000000000000000e+00  0.0000000000000000e+00  0.0000000000000000e+00  0.0000000000000000e+00  0.0000000000000000e+00  0.0000000000000000e+00  0.0000000000000000e+00  0.0000000000000000e+00  0.0000000000000000e+00  0.0000000000000000e+00  0.0000000000000000e+00  0.0000000000000000e+00  0.0000000000000000e+00  0.0000000000000000e+00  0.0000000000000000e+00  0.0000000000000000e+00  0.0000000000000000e+00  0.0000000000000000e+00  0.0000000000000000e+00  0.0000000000000000e+00  0.0000000000000000e+00  0.0000000000000000e+00  0.0000000000000000e+00  0.0000000000000000e+00  0.0000000000000000e+00  0.0000000000000000e+00  0.0000000000000000e+00  0.0000000000000000e+00  0.0000000000000000e+00  0.0000000000000000e+00  0.0000000000000000e+00  0.0000000000000000e+00  0.0000000000000000e+00  0.0000000000000000e+00  0.0000000000000000e+00  0.0000000000000000e+00  0.0000000000000000e+00  0.0000000000000000e+00  0.0000000000000000e+00  0.0000000000000000e+00  0.0000000000000000e+00  0.0000000000000000e+00  0.0000000000000000e+00  0.0000000000000000e+00  0.0000000000000000e+00  0.0000000000000000e+00  0.0000000000000000e+00  0.0000000000000000e+00  0.0000000000000000e+00  0.0000000000000000e+00  0.0000000000000000e+00  0.0000000000000000e+00  0.0000000000000000e+00  0.0000000000000000e+00  0.0000000000000000e+00  0.0000000000000000e+00  0.0000000000000000e+00  0.0000000000000000e+00  0.0000000000000000e+00  0.0000000000000000e+00  0.0000000000000000e+00  0.0000000000000000e+00  0.0000000000000000e+00  0.0000000000000000e+00  0.0000000000000000e+00  0.0000000000000000e+00  0.0000000000000000e+00  0.0000000000000000e+00  0.0000000000000000e+00  0.0000000000000000e+00  0.0000000000000000e+00  0.0000000000000000e+00  0.0000000000000000e+00  0.0000000000000000e+00  0.0000000000000000e+00  0.0000000000000000e+00  0.0000000000000000e+00  0.0000000000000000e+00  0.0000000000000000e+00  0.0000000000000000e+00  0.0000000000000000e+00  0.0000000000000000e+00  0.0000000000000000e+00  0.0000000000000000e+00  0.0000000000000000e+00  0.0000000000000000e+00  0.0000000000000000e+00  0.0000000000000000e+00  0.0000000000000000e+00  0.0000000000000000e+00  0.0000000000000000e+00  0.0000000000000000e+00  0.0000000000000000e+00  0.0000000000000000e+00  0.0000000000000000e+00  0.0000000000000000e+00  0.0000000000000000e+00  0.0000000000000000e+00  0.0000000000000000e+00  0.0000000000000000e+00  0.0000000000000000e+00  0.0000000000000000e+00  0.0000000000000000e+00  0.0000000000000000e+00  0.0000000000000000e+00  0.0000000000000000e+00  0.0000000000000000e+00  0.0000000000000000e+00  0.0000000000000000e+00  0.0000000000000000e+00  0.0000000000000000e+00  0.0000000000000000e+00  0.0000000000000000e+00  0.0000000000000000e+00  0.0000000000000000e+00  0.0000000000000000e+00  0.0000000000000000e+00  0.0000000000000000e+00  0.0000000000000000e+00  0.0000000000000000e+00  0.0000000000000000e+00  0.0000000000000000e+00  0.0000000000000000e+00  0.0000000000000000e+00  0.0000000000000000e+00  0.0000000000000000e+00  0.0000000000000000e+00  0.0000000000000000e+00  0.0000000000000000e+00  0.0000000000000000e+00  0.0000000000000000e+00  0.0000000000000000e+00  0.0000000000000000e+00  0.0000000000000000e+00  0.0000000000000000e+00  0.0000000000000000e+00  0.0000000000000000e+00  0.0000000000000000e+00  0.0000000000000000e+00  0.0000000000000000e+00  0.0000000000000000e+00  0.0000000000000000e+00  0.0000000000000000e+00  0.0000000000000000e+00  0.0000000000000000e+00  0.0000000000000000e+00  0.0000000000000000e+00  0.0000000000000000e+00  0.0000000000000000e+00  0.0000000000000000e+00  0.0000000000000000e+00  0.0000000000000000e+00  0.0000000000000000e+00  0.0000000000000000e+00  0.0000000000000000e+00  0.0000000000000000e+00  0.0000000000000000e+00  0.0000000000000000e+00  0.0000000000000000e+00  0.0000000000000000e+00  0.0000000000000000e+00  0.0000000000000000e+00  0.0000000000000000e+00  0.0000000000000000e+00  0.0000000000000000e+00  0.0000000000000000e+00  0.0000000000000000e+00  0.0000000000000000e+00  0.0000000000000000e+00  0.0000000000000000e+00  0.0000000000000000e+00  0.0000000000000000e+00  0.0000000000000000e+00  0.0000000000000000e+00  0.0000000000000000e+00  0.0000000000000000e+00  0.0000000000000000e+00  0.0000000000000000e+00  0.0000000000000000e+00  0.0000000000000000e+00  0.0000000000000000e+00  0.0000000000000000e+00  0.0000000000000000e+00  0.0000000000000000e+00  0.0000000000000000e+00  0.0000000000000000e+00  0.0000000000000000e+00  0.0000000000000000e+00  0.0000000000000000e+00  0.0000000000000000e+00  0.0000000000000000e+00  0.0000000000000000e+00  0.0000000000000000e+00  0.0000000000000000e+00  0.0000000000000000e+00  0.0000000000000000e+00  0.0000000000000000e+00  0.0000000000000000e+00  0.0000000000000000e+00  0.0000000000000000e+00  0.0000000000000000e+00  0.0000000000000000e+00  0.0000000000000000e+00  0.0000000000000000e+00  0.0000000000000000e+00  0.0000000000000000e+00  0.0000000000000000e+00  0.0000000000000000e+00  0.0000000000000000e+00  0.0000000000000000e+00  0.0000000000000000e+00  0.0000000000000000e+00  0.0000000000000000e+00  0.0000000000000000e+00  0.0000000000000000e+00  0.0000000000000000e+00  0.0000000000000000e+00  0.0000000000000000e+00  0.0000000000000000e+00  0.0000000000000000e+00  0.0000000000000000e+00  0.0000000000000000e+00  0.0000000000000000e+00  0.0000000000000000e+00  0.0000000000000000e+00  0.0000000000000000e+00  0.0000000000000000e+00  0.0000000000000000e+00  0.0000000000000000e+00  0.0000000000000000e+00  0.0000000000000000e+00  0.0000000000000000e+00  0.0000000000000000e+00  0.0000000000000000e+00  0.0000000000000000e+00  0.0000000000000000e+00  0.0000000000000000e+00  0.0000000000000000e+00  0.0000000000000000e+00  0.0000000000000000e+00  0.0000000000000000e+00  0.0000000000000000e+00  0.0000000000000000e+00  0.0000000000000000e+00  0.0000000000000000e+00  0.0000000000000000e+00  0.0000000000000000e+00  0.0000000000000000e+00  0.0000000000000000e+00  0.0000000000000000e+00  0.0000000000000000e+00  0.0000000000000000e+00  0.0000000000000000e+00  0.0000000000000000e+00  0.0000000000000000e+00  0.0000000000000000e+00  0.0000000000000000e+00  0.0000000000000000e+00  0.0000000000000000e+00  0.0000000000000000e+00  0.0000000000000000e+00  0.0000000000000000e+00  0.0000000000000000e+00  0.0000000000000000e+00  0.0000000000000000e+00  0.0000000000000000e+00  0.0000000000000000e+00  0.0000000000000000e+00  0.0000000000000000e+00  0.0000000000000000e+00  0.0000000000000000e+00  0.0000000000000000e+00  0.0000000000000000e+00  0.0000000000000000e+00  0.0000000000000000e+00  0.0000000000000000e+00  0.0000000000000000e+00  0.0000000000000000e+00  0.0000000000000000e+00  0.0000000000000000e+00  0.0000000000000000e+00  0.0000000000000000e+00  0.0000000000000000e+00  0.0000000000000000e+00  0.0000000000000000e+00  0.0000000000000000e+00  0.0000000000000000e+00  0.0000000000000000e+00  0.0000000000000000e+00  0.0000000000000000e+00  0.0000000000000000e+00  0.0000000000000000e+00  0.0000000000000000e+00  0.0000000000000000e+00  0.0000000000000000e+00  0.0000000000000000e+00  0.0000000000000000e+00  0.0000000000000000e+00  0.0000000000000000e+00  0.0000000000000000e+00  0.0000000000000000e+00  0.0000000000000000e+00  0.0000000000000000e+00  0.0000000000000000e+00  0.0000000000000000e+00  0.0000000000000000e+00  0.0000000000000000e+00  0.0000000000000000e+00  0.0000000000000000e+00  0.0000000000000000e+00  0.0000000000000000e+00  0.0000000000000000e+00  0.0000000000000000e+00  0.0000000000000000e+00  0.0000000000000000e+00  0.0000000000000000e+00  0.0000000000000000e+00  0.0000000000000000e+00  0.0000000000000000e+00  0.0000000000000000e+00  0.0000000000000000e+00  0.0000000000000000e+00  0.0000000000000000e+00  0.0000000000000000e+00  0.0000000000000000e+00  0.0000000000000000e+00  0.0000000000000000e+00  0.0000000000000000e+00  0.0000000000000000e+00  0.0000000000000000e+00  0.0000000000000000e+00  0.0000000000000000e+00  0.0000000000000000e+00  0.0000000000000000e+00  0.0000000000000000e+00  0.0000000000000000e+00  0.0000000000000000e+00  0.0000000000000000e+00  0.0000000000000000e+00  0.0000000000000000e+00  0.0000000000000000e+00  0.0000000000000000e+00  0.0000000000000000e+00  0.0000000000000000e+00  0.0000000000000000e+00  0.0000000000000000e+00  0.0000000000000000e+00  0.0000000000000000e+00  0.0000000000000000e+00  0.0000000000000000e+00  0.0000000000000000e+00  0.0000000000000000e+00  0.0000000000000000e+00  0.0000000000000000e+00  0.0000000000000000e+00  0.0000000000000000e+00  0.0000000000000000e+00  0.0000000000000000e+00  0.0000000000000000e+00  0.0000000000000000e+00  0.0000000000000000e+00  0.0000000000000000e+00  0.0000000000000000e+00  0.0000000000000000e+00  0.0000000000000000e+00  0.0000000000000000e+00  8.5303533392977504e-01  8.6104732205581169e-01  8.9128277060224692e-01  8.9083863092736393e-01  8.7260248103548554e-01  8.3665478728553155e-01  8.4403376739746150e-01  8.7964483936564752e-01  8.6602633106729987e-01  8.3448410565609676e-01  8.4881981667924333e-01  8.5564848500619872e-01  8.2717492727504260e-01  8.6873724663208385e-01  8.6403234901345749e-01  8.6674092100005129e-01  8.8643584965756150e-01  8.6131180611942748e-01  8.5131884146821468e-01  8.6890201067311257e-01  8.6060542903582260e-01  8.6594944609989977e-01  8.5952763007413191e-01  8.4559865328750716e-01  8.6022730768898825e-01  8.7602979507355261e-01  8.5551906674827238e-01  8.6483679208086894e-01  8.8447866445010637e-01  8.7471591564515594e-01  8.6464861378590918e-01  8.6139374300248872e-01  8.6930061126376523e-01  8.1957088191278871e-01  8.6791755745005894e-01  8.5152677908852126e-01  8.6508501677448169e-01  8.4491606253466445e-01  8.4679567175653514e-01  8.6722780820498357e-01  8.9641765955439234e-01  8.3577773707186709e-01  8.7157364275017990e-01  8.4717654462721614e-01  8.5496831674169860e-01  8.6561319945964377e-01  8.0528480606928088e-01  8.3340187496690088e-01  8.6091779414936942e-01  8.5215417400628957e-01  8.6579897667814121e-01  8.7856324322877277e-01  8.6556361981756980e-01  8.4093076218496010e-01  8.5662467306130319e-01  8.6209057909295495e-01  8.7694976851493034e-01  8.6192901561116564e-01  8.2198209589003024e-01  8.5124768406260598e-01  8.5573994177357871e-01  8.4727335361740008e-01  -1.2190596464101569e-31  9.0421162885463769e-32  1.7454471725415262e-34  2.9801157329034541e-34  1.5017590652292748e-31  2.0806571436935319e-31  3.4867968524803087e-36  -2.3244872176256643e-35  -2.4977204306818483e-31  -8.8887907689134465e-32  4.1013355821889046e-32  5.8390116246764768e-32  3.2229098700418986e-32  3.8686466251946664e-32  2.0181200402606538e-30  1.0747115841644488e-30  -3.2022715218393590e-30  1.0934151322563220e-31  -4.6227867105134412e-30  -6.4658615627796308e-30  -1.0569962693728884e-30  -1.1678518205428625e-30  -3.0703126168364285e-30  -3.8776575497663284e-30  -2.2528399795614081e-30  -1.6859630491271985e-30  -5.2876831060876308e-29  1.0207640339653187e-29  -2.5487300350166491e-29  -1.3330588242214969e-28  4.7967022281859515e-30  -1.1195836712697149e-30  -2.8340789711393393e-36  1.9284477718378745e-36  1.5447676842504316e-36  -2.7959156967506770e-36  2.7397364612641927e-33  1.7693712295868546e-33  1.5036687337862728e-33  1.7787191527379539e-33  -6.0162096597440134e-28  6.5005133576630568e-30  -3.0128530466446060e-31  1.0401372403325949e-27  6.2601126298539577e-36  3.7433021283748297e-36  8.1537781128043462e-36  -2.5603160890717557e-38  6.2072550961753138e-40  -2.8176311126148435e-38  9.2624881220821972e-39  -1.4809268771289263e-36  5.2894472291189558e-40  -9.8450322995838572e-38  -2.1796104655088411e-38  -8.6539066276960788e-40  -1.0465509660092203e-37  7.5311408000140944e-40  -5.7926960999276812e-38  -1.1622407786002701e-39  -2.4495483530585436e-40  -3.0650081897553776e-40  -2.5120770885373187e-40  -8.5963565382373747e-42  -1.5358636999179627e-42  2.7961475354508572e-41  3.5921622958780988e-41  -3.1984381462305813e-40  9.9883216997243612e-28  1.3763480477328200e-30  -8.3745375892662102e-31  9.3499914648267961e-28  1.7274131981051178e-30  9.7378139299087103e-31  4.7316397016673173e-30  4.2328606781502318e-30  1.0335982254220015e-30  1.0196865630256282e-30  -8.5701480990719859e-31  -5.8334897353577506e-30  -1.0339654921109314e-30  -2.9261084006838285e-31  2.0400719548041674e-29  3.3304191532519652e-29  -2.0486684671207072e-31  1.0805518637949495e-30  -7.0328003874276076e-31  4.4824783177863225e-31  -1.2774026089630170e-30  -1.0004117774004585e-30  -1.0263107308754854e-32  -9.3564935844014583e-33  -2.5176241512546090e-31  -2.7914209528202267e-31  5.3578992495281991e-33  5.3013846145276609e-33  2.4375749123146269e-35  -1.0168500162729007e-32  1.6915001689413303e-32  -2.4450069074633749e-35  5.6260116692762345e-33  -2.4385687455708757e-35  2.2716555649639942e-35  2.2516819713243011e-32  1.3429050911090029e-42  4.9384136674514036e-42  -1.0011926291303515e-42  -1.9894971050577656e-42  -5.3981040067622597e-43  -1.4650584484963738e-42  2.1625620932203589e-42  1.6026434508774133e-42  1.9641279925718850e-28  9.7253446688915247e-30  1.7157350451969695e-30  1.0626662096130277e-27  3.7281055385829914e-32  -1.1723239627831238e-33  -1.3688586047377853e-33  -1.0323544926806088e-31  1.3568852771884363e-33  1.0573142261879960e-31  1.8325402650794150e-31  1.2270676835376086e-33  -3.8058834874162230e-37  -5.8655102162972641e-34  -2.6575372478150819e-34  -7.3429490068440031e-39  -3.0877542921319870e-37  -6.4489990589023271e-36  -3.6111415166690493e-34  8.7167699219904348e-38  1.9985031762423820e-39  -1.1988838555216112e-40  -1.0658638640446089e-36  -2.0622162169432490e-39  -4.0335929305983299e-37  -1.9534571876036577e-39  6.4403907365382019e-39  -7.1225932554255066e-41  -5.1327930394658481e-37  -2.8085074079539225e-39  3.7634186435835933e-41  -1.0523294287567213e-40  5.9998155657173818e-39  -3.5255382925704361e-41  -2.6107319318291660e-37  -2.6363176441693977e-39  -5.0561220869737648e-43  2.2158838294754287e-43  -3.1917777134475635e-43  -7.5396986151758083e-43  -2.6154784111229343e-28  3.7457679607497021e-29  -1.2986833316544627e-27  3.1052165254709062e-27  5.2433537677194787e-27  -1.8728258643245521e-26  -1.5931255667098886e-26  7.4224299247245686e-26  3.4533630422402334e-26  -2.2262717142352948e-25  -2.7314920957957968e-26  4.7027466141287775e-25  -2.0013625465839361e-25  -3.2215639927830590e-25  1.3739462427766092e-24  -3.0216468308505390e-24  -5.4666940691811537e-24  1.9741515515408777e-23  1.6065435628196953e-23  -7.7003995799251997e-23  -3.3767297396792001e-23  -4.5410311048163242e-23  2.2300114537612793e-22  2.9571700837692692e-23  -4.5511989407806572e-22  1.3890353875191185e-22  3.1469404979222198e-22  -8.5391556192575441e-22  2.2190206925753572e-21  2.6084361164012014e-21  -1.2353535043629442e-20  -4.3025390865990103e-21  3.0184743700262287e-21  3.5744161882739047e-20  -2.8730135816086826e-21  -5.0197540305742858e-20  4.3362291740892364e-20  -7.6844621861429222e-20  -1.3548994412483773e-19  6.6085086203054874e-19  1.5047090381996705e-19  -1.7429184907034299e-18  4.6426587040277778e-19  -1.6179185759224767e-18  1.0181281877345434e-18  -2.4031949396676092e-18  8.9071504258825307e-18  3.5689856284382537e-18  1.1170581125316237e-19  -2.5180434945175619e-18  6.1863705634497160e-18  4.9130867600641091e-18  -1.2596088944775587e-19  -2.4897711144536312e-18  5.0967162909960262e-19  -1.3374282193917684e-19  4.8845950243347461e-18  -2.4453623242366230e-18  4.7162191251348655e-19  7.2173651286019178e-20  -1.4521877569850800e-19  3.5432239677369278e-19  -2.2129004990130084e-18  3.3106643657624945e-19  -1.4817478233678697e-19  1.8554172194370746e-19  -1.6452509359417742e-18  4.6551472551680063e-19  -1.2265937677559806e-19  3.2695012983105176e-20  -9.5724126616687387e-19  4.7338142903845580e-19  -1.5613882496686418e-18  2.5901662056814028e-20  -1.8308419918364809e-19  3.7514982034894830e-18  -1.7895208082028635e-18  5.5086635492663187e-18  9.8545594601753680e-19  -2.0306235086559227e-17  1.1936000269482615e-17  -6.4165574214316908e-17  -1.6031119706939444e-18  1.8215960499706233e-17  -4.2678465342220381e-17  -6.8354842486183894e-18  1.2434399485617790e-16  -6.5465152874619990e-17  3.4539116954180441e-16  -1.0446799996184794e-16  3.6026119879921762e-16  -6.3757103795928804e-17  6.7776098792348261e-17  2.8707279437554758e-17  -2.3207950802806867e-16  2.5129213223279285e-17  8.4464566750912025e-18  -2.4790146357857626e-01  6.7099183713134947e-17  -1.7733017868391555e-16  6.5546627547991635e-18  1.4642132486117705e-16  -2.5976611109969555e-01  -7.3313529052336398e-17  3.3646996827159997e-16  -2.4319027516922956e-01  -8.3566424674155491e-17  2.3222069836675843e-16  -1.1770891749497984e-15  -4.6492098179892501e-16  3.2223129643822054e-17  1.2927052632831484e-16  -1.4833002946110015e-15  2.3534864395564186e-17  -6.3055568646173214e-17  2.4086267727515561e-16  -8.9022973639898459e-16  -6.7910384728068762e-16  1.1001923916744982e-16  -1.6023442842049587e-16  1.4652722663047373e-15  -2.4052873810441579e-18  6.4098654058683076e-17  -2.3888859451899091e-16  9.4848341263932798e-16  3.7415650064650646e-16  1.4739596936227413e-17  -3.0272781403247200e-16  5.6661362325070961e-16  8.5009908920235100e-16  -5.6437092013083117e-17  -3.6362313957568775e-16  -6.3603295034192176e-17  1.5206001080910269e-15  -1.7589186045149497e-16  -3.3982449096926836e-16  -1.2133057827737526e-15  2.0464424172739662e-15  -8.2611286175184547e-15  -1.8228511057136172e-15  -3.5262745477688616e-16  2.3075876316810899e-15  -9.7739719065305126e-15  -1.0785225476100457e-15  -5.0443045038906907e-16  2.1255360896444499e-15  -1.1168187181764345e-14  9.3678341137351450e-16  1.2476484834804377e-14  -9.5958160057616197e-15  4.2629877910181913e-14  -2.3612707283106154e-15  2.5742460495838971e-15  -4.0960655119803149e-15  2.9661193836988208e-14  -7.4486538572706140e-15  5.5439685170163887e-15  1.1572762455072503e-14  -8.6286275218711673e-14  2.5070791339929006e-14  -4.4770348384628914e-14  -2.2173570191538977e-14  -2.4845116372196119e-15  1.8182101434011897e-14  -1.1585064790528970e-13  4.1587653176123783e-14  -1.8285931083843106e-13  5.2623363468256172e-14  -2.0237370248421396e-13  5.6016896888373621e-14  -2.1786743302102695e-13  6.2691204957723783e-14  -2.5081781141051184e-13  7.1545184384563158e-14  -2.7412843404969448e-13  7.1758991223605514e-14  -2.4345195637780047e-13  5.3285181056868587e-14  -1.3995485277952456e-13  2.0271047913930251e-14  -1.6925055414161559e-14  -6.1507806796011953e-15  4.2771019999540021e-14  -1.0798178177769483e-14  2.5841395814737687e-14  -2.6044697423558668e-15  -3.1637110331444411e-15  1.9327443087962511e-15  -1.1950775093800830e-16  -2.1942153986863998e-16  1.2492542850703025e-16  -1.1711476617365667e-18  -3.1543773511408195e-17  7.9880779323971810e-18  4.4579558027394392e-18  -2.2746724208469905e-18  -8.7170135925407386e-20  -2.5985146313609788e-18  3.6629883939516426e-19  -1.4623872019031704e-14  7.2230884822788194e-19  -1.4097813597244233e-18  3.7092644294628630e-20  7.3757446113755016e-19  -1.9593356688288506e-19  3.2622280351717147e-19  1.1762039366343709e-21 