<?xml version="1.0"?>
<VTKFile type="UnstructuredGrid"  version="0.1"  >
<UnstructuredGrid>
<Piece  NumberOfPoints="11902" NumberOfCells="23402">
<Points>
<DataArray  type="Float64"  NumberOfComponents="3"  format="ascii">-5 -5 0  5 -5 0  5 5 0  -5 5 0  1.254478415282488 0.001355116686200155 0  -4.9 -5 0  -4.8 -5 0  -4.7 -5 0  -4.6 -5 0  -4.5 -5 0  -4.4 -5 0  -4.3 -5 0  -4.2 -5 0  -4.1 -5 0  -4 -5 0  -3.9 -5 0  -3.8 -5 0  -3.7 -5 0  -3.6 -5 0  -3.5 -5 0  -3.4 -5 0  -3.3 -5 0  -3.2 -5 0  -3.1 -5 0  -3 -5 0  -2.9 -5 0  -2.8 -5 0  -2.7 -5 0  -2.6 -5 0  -2.5 -5 0  -2.4 -5 0  -2.3 -5 0  -2.2 -5 0  -2.1 -5 0  -2 -5 0  -1.9 -5 0  -1.8 -5 0  -1.7 -5 0  -1.6 -5 0  -1.5 -5 0  -1.4 -5 0  -1.3 -5 0  -1.2 -5 0  -1.1 -5 0  -1 -5 0  -0.9000000000000004 -5 0  -0.7999999999999998 -5 0  -0.7000000000000002 -5 0  -0.5999999999999996 -5 0  -0.5 -5 0  -0.4000000000000004 -5 0  -0.2999999999999998 -5 0  -0.2000000000000002 -5 0  -0.09999999999999964 -5 0  0 -5 0  0.09999999999999964 -5 0  0.2000000000000002 -5 0  0.2999999999999998 -5 0  0.4000000000000004 -5 0  0.5 -5 0  0.5999999999999996 -5 0  0.7000000000000002 -5 0  0.7999999999999998 -5 0  0.9000000000000004 -5 0  1 -5 0  1.1 -5 0  1.2 -5 0  1.3 -5 0  1.4 -5 0  1.5 -5 0  1.6 -5 0  1.7 -5 0  1.8 -5 0  1.9 -5 0  2 -5 0  2.1 -5 0  2.2 -5 0  2.3 -5 0  2.4 -5 0  2.5 -5 0  2.6 -5 0  2.7 -5 0  2.8 -5 0  2.9 -5 0  3 -5 0  3.1 -5 0  3.199999999999999 -5 0  3.300000000000001 -5 0  3.4 -5 0  3.5 -5 0  3.6 -5 0  3.699999999999999 -5 0  3.800000000000001 -5 0  3.9 -5 0  4 -5 0  4.1 -5 0  4.199999999999999 -5 0  4.300000000000001 -5 0  4.4 -5 0  4.5 -5 0  4.6 -5 0  4.699999999999999 -5 0  4.800000000000001 -5 0  4.9 -5 0  5 -4.9 0  5 -4.8 0  5 -4.7 0  5 -4.6 0  5 -4.5 0  5 -4.4 0  5 -4.3 0  5 -4.2 0  5 -4.1 0  5 -4 0  5 -3.9 0  5 -3.8 0  5 -3.7 0  5 -3.6 0  5 -3.5 0  5 -3.4 0  5 -3.3 0  5 -3.2 0  5 -3.1 0  5 -3 0  5 -2.9 0  5 -2.8 0  5 -2.7 0  5 -2.6 0  5 -2.5 0  5 -2.4 0  5 -2.3 0  5 -2.2 0  5 -2.1 0  5 -2 0  5 -1.9 0  5 -1.8 0  5 -1.7 0  5 -1.6 0  5 -1.5 0  5 -1.4 0  5 -1.3 0  5 -1.2 0  5 -1.1 0  5 -1 0  5 -0.9000000000000004 0  5 -0.7999999999999998 0  5 -0.7000000000000002 0  5 -0.5999999999999996 0  5 -0.5 0  5 -0.4000000000000004 0  5 -0.2999999999999998 0  5 -0.2000000000000002 0  5 -0.09999999999999964 0  5 0 0  5 0.09999999999999964 0  5 0.2000000000000002 0  5 0.2999999999999998 0  5 0.4000000000000004 0  5 0.5 0  5 0.5999999999999996 0  5 0.7000000000000002 0  5 0.7999999999999998 0  5 0.9000000000000004 0  5 1 0  5 1.1 0  5 1.2 0  5 1.3 0  5 1.4 0  5 1.5 0  5 1.6 0  5 1.7 0  5 1.8 0  5 1.9 0  5 2 0  5 2.1 0  5 2.2 0  5 2.3 0  5 2.4 0  5 2.5 0  5 2.6 0  5 2.7 0  5 2.8 0  5 2.9 0  5 3 0  5 3.1 0  5 3.199999999999999 0  5 3.300000000000001 0  5 3.4 0  5 3.5 0  5 3.6 0  5 3.699999999999999 0  5 3.800000000000001 0  5 3.9 0  5 4 0  5 4.1 0  5 4.199999999999999 0  5 4.300000000000001 0  5 4.4 0  5 4.5 0  5 4.6 0  5 4.699999999999999 0  5 4.800000000000001 0  5 4.9 0  4.9 5 0  4.8 5 0  4.7 5 0  4.6 5 0  4.5 5 0  4.4 5 0  4.3 5 0  4.2 5 0  4.1 5 0  4 5 0  3.9 5 0  3.8 5 0  3.7 5 0  3.6 5 0  3.5 5 0  3.4 5 0  3.3 5 0  3.2 5 0  3.1 5 0  3 5 0  2.9 5 0  2.8 5 0  2.7 5 0  2.6 5 0  2.5 5 0  2.4 5 0  2.3 5 0  2.2 5 0  2.1 5 0  2 5 0  1.9 5 0  1.8 5 0  1.7 5 0  1.6 5 0  1.5 5 0  1.4 5 0  1.3 5 0  1.2 5 0  1.1 5 0  1 5 0  0.9000000000000004 5 0  0.7999999999999998 5 0  0.7000000000000002 5 0  0.5999999999999996 5 0  0.5 5 0  0.4000000000000004 5 0  0.2999999999999998 5 0  0.2000000000000002 5 0  0.09999999999999964 5 0  0 5 0  -0.09999999999999964 5 0  -0.2000000000000002 5 0  -0.2999999999999998 5 0  -0.4000000000000004 5 0  -0.5 5 0  -0.5999999999999996 5 0  -0.7000000000000002 5 0  -0.7999999999999998 5 0  -0.9000000000000004 5 0  -1 5 0  -1.1 5 0  -1.2 5 0  -1.3 5 0  -1.4 5 0  -1.5 5 0  -1.6 5 0  -1.7 5 0  -1.8 5 0  -1.9 5 0  -2 5 0  -2.1 5 0  -2.2 5 0  -2.3 5 0  -2.4 5 0  -2.5 5 0  -2.6 5 0  -2.7 5 0  -2.8 5 0  -2.9 5 0  -3 5 0  -3.1 5 0  -3.199999999999999 5 0  -3.300000000000001 5 0  -3.4 5 0  -3.5 5 0  -3.6 5 0  -3.699999999999999 5 0  -3.800000000000001 5 0  -3.9 5 0  -4 5 0  -4.1 5 0  -4.199999999999999 5 0  -4.300000000000001 5 0  -4.4 5 0  -4.5 5 0  -4.6 5 0  -4.699999999999999 5 0  -4.800000000000001 5 0  -4.9 5 0  -5 4.9 0  -5 4.8 0  -5 4.7 0  -5 4.6 0  -5 4.5 0  -5 4.4 0  -5 4.3 0  -5 4.2 0  -5 4.1 0  -5 4 0  -5 3.9 0  -5 3.8 0  -5 3.7 0  -5 3.6 0  -5 3.5 0  -5 3.4 0  -5 3.3 0  -5 3.2 0  -5 3.1 0  -5 3 0  -5 2.9 0  -5 2.8 0  -5 2.7 0  -5 2.6 0  -5 2.5 0  -5 2.4 0  -5 2.3 0  -5 2.2 0  -5 2.1 0  -5 2 0  -5 1.9 0  -5 1.8 0  -5 1.7 0  -5 1.6 0  -5 1.5 0  -5 1.4 0  -5 1.3 0  -5 1.2 0  -5 1.1 0  -5 1 0  -5 0.9000000000000004 0  -5 0.7999999999999998 0  -5 0.7000000000000002 0  -5 0.5999999999999996 0  -5 0.5 0  -5 0.4000000000000004 0  -5 0.2999999999999998 0  -5 0.2000000000000002 0  -5 0.09999999999999964 0  -5 0 0  -5 -0.09999999999999964 0  -5 -0.2000000000000002 0  -5 -0.2999999999999998 0  -5 -0.4000000000000004 0  -5 -0.5 0  -5 -0.5999999999999996 0  -5 -0.7000000000000002 0  -5 -0.7999999999999998 0  -5 -0.9000000000000004 0  -5 -1 0  -5 -1.1 0  -5 -1.2 0  -5 -1.3 0  -5 -1.4 0  -5 -1.5 0  -5 -1.6 0  -5 -1.7 0  -5 -1.8 0  -5 -1.9 0  -5 -2 0  -5 -2.1 0  -5 -2.2 0  -5 -2.3 0  -5 -2.4 0  -5 -2.5 0  -5 -2.6 0  -5 -2.7 0  -5 -2.8 0  -5 -2.9 0  -5 -3 0  -5 -3.1 0  -5 -3.199999999999999 0  -5 -3.300000000000001 0  -5 -3.4 0  -5 -3.5 0  -5 -3.6 0  -5 -3.699999999999999 0  -5 -3.800000000000001 0  -5 -3.9 0  -5 -4 0  -5 -4.1 0  -5 -4.199999999999999 0  -5 -4.300000000000001 0  -5 -4.4 0  -5 -4.5 0  -5 -4.6 0  -5 -4.699999999999999 0  -5 -4.800000000000001 0  -5 -4.9 0  1.24662505883653 0.09541839748407481 0  1.225306088755385 0.1928341169899559 0  1.191972484454693 0.2893474002613823 0  1.149188813855146 0.3783825434946425 0  1.091741471507556 0.4690999430593712 0  1.026342529136418 0.5535892481436024 0  0.9484535123328633 0.6334299389877981 0  0.8620656457287836 0.7077932556060579 0  0.770382558897255 0.7731967729848087 0  0.6681553694782483 0.8306024328963358 0  0.5570956137798532 0.882899704840737 0  0.4449613321283614 0.9269113224486561 0  0.3322690477278075 0.9593334734786686 0  0.208534248394654 0.9808715425506263 0  0.08923402832132414 0.9995571234559496 0  -0.0273067190637772 1.002772241683319 0  -0.1450607111625409 0.9892933515714426 0  -0.2712315340389019 0.9705979878141584 0  -0.3901357048567278 0.9461713563808186 0  -0.5009711351356869 0.9099777036141494 0  -0.6099457019361626 0.863560324258091 0  -0.7121030801539112 0.8090520789475324 0  -0.8066707767532016 0.7442936175093213 0  -0.8972278582697019 0.6711858606497445 0  -0.9821433042804468 0.5917140110289282 0  -1.05583221759769 0.5106195810503714 0  -1.117464247645643 0.4249743078174775 0  -1.169892867407442 0.3330313302828105 0  -1.207850040606708 0.2429041883173284 0  -1.232350384808848 0.1485399665880147 0  -1.243777242489311 0.0512553378206286 0  -1.243726225250377 -0.04915669712290115 0  -1.232300582569624 -0.1457357011657082 0  -1.207557829798779 -0.2387987762823036 0  -1.166797533248492 -0.3336203103463891 0  -1.117755843302345 -0.4251104516524055 0  -1.057385623209734 -0.5103876557266221 0  -0.9844872034370802 -0.5906811520495833 0  -0.9001933818117618 -0.6689795568702077 0  -0.8100498457075932 -0.7404283544357061 0  -0.7140941128509269 -0.8014254668140418 0  -0.609600758040967 -0.8545788700497785 0  -0.4965787760078236 -0.9039203412532444 0  -0.3837824256393549 -0.943486750453386 0  -0.2679593436884378 -0.9701834497474627 0  -0.1436575495301147 -0.9889887105891653 0  -0.02796046235773767 -1.001958877782731 0  0.08887073730306499 -0.9949010174026374 0  0.2135617889789932 -0.9776792935547249 0  0.3347035308275128 -0.9577726979906097 0  0.4490829677814993 -0.9255827328017041 0  0.5594236299376663 -0.8820550529186797 0  0.6690623929485142 -0.8306591870226315 0  0.7703644856427531 -0.7743352607040819 0  0.8621779087804946 -0.7087741018598285 0  0.9477050428416923 -0.6334636362236172 0  1.023762709342546 -0.5526947733828274 0  1.092262975891951 -0.4680633186524693 0  1.150066031241727 -0.3786221211639964 0  1.193712820134083 -0.2873343059151699 0  1.225939259600792 -0.1919547037290882 0  1.246921783384949 -0.09512898949574421 0  -2.448571547347718 4.918132441241664 0  -2.448446653890573 -4.910512457510245 0  4.910437251806789 2.447906517497666 0  4.918562102325263 -2.449366960764442 0  2.446178128507335 -4.895747142919554 0  2.440611284565181 4.899509172738927 0  -4.910464145323193 -2.447932765945036 0  -4.910461455180039 2.447936659439261 0  -1.748526041218978 4.911028720550086 0  -1.744312278425107 -4.914469256351297 0  4.920618050986786 1.744080212402189 0  4.909149597996301 -1.747842770027009 0  -4.909443608905721 -1.747576892436988 0  -4.91026601027411 1.74732161721204 0  1.745799566008631 4.904886189003618 0  1.747213827404919 -4.893032406606197 0  -1.148834889446699 4.908815369308462 0  -1.129692034728544 -4.916731179335903 0  -4.909159433259351 -1.1479034385103 0  -4.908977720038687 1.1477038084432 0  1.143829956307444 -4.91291512182559 0  1.148844811854475 4.908802081858956 0  4.909299327830493 1.146178742176458 0  4.920134743449722 -1.151963501094944 0  -0.5466655032881564 -4.910005470541008 0  -0.5464484323023379 4.918692114427905 0  -4.907890527400914 -0.5486949570557891 0  -4.907914500120999 0.5472526548351838 0  4.907209358285861 -0.5490131173801081 0  4.918872012328513 0.5457722519379967 0  0.5424474891024627 -4.896879661943524 0  0.5511770545266631 4.9155139759491 0  -4.91188780651219 -3.048289043407706 0  4.918459173446805 3.046305509768569 0  4.911395539592615 -3.048264692796488 0  -4.912735644621624 3.045380649101275 0  3.055296598649192 -4.917382598712002 0  -3.048627156006978 -4.911318137071469 0  3.052194515437718 4.913396060347694 0  -3.048072804996834 4.912207981682698 0  -4.906998074046728 -0.04990642804399863 0  0.04511957967566255 -4.91195546537848 0  0.04956722798215404 4.918984856410906 0  4.914056741062536 -0.05128856319589141 0  3.545616001964966 -4.919026702840306 0  -3.548896211045136 4
[...]
<PointData  Scalars="f_27"> 
<DataArray  type="Float64"  Name="f_27"  format="ascii">0.0000000000000000e+00  0.0000000000000000e+00  0.0000000000000000e+00  0.0000000000000000e+00  9.7093954154696727e-01  0.0000000000000000e+00  0.0000000000000000e+00  0.0000000000000000e+00  0.0000000000000000e+00  0.0000000000000000e+00  0.0000000000000000e+00  0.0000000000000000e+00  0.0000000000000000e+00  0.0000000000000000e+00  0.0000000000000000e+00  0.0000000000000000e+00  0.0000000000000000e+00  0.0000000000000000e+00  0.0000000000000000e+00  0.0000000000000000e+00  0.0000000000000000e+00  0.0000000000000000e+00  0.0000000000000000e+00  0.0000000000000000e+00  0.0000000000000000e+00  0.0000000000000000e+00  0.0000000000000000e+00  0.0000000000000000e+00  0.0000000000000000e+00  0.0000000000000000e+00  0.0000000000000000e+00  0.0000000000000000e+00  0.0000000000000000e+00  0.0000000000000000e+00  0.0000000000000000e+00  0.0000000000000000e+00  0.0000000000000000e+00  0.0000000000000000e+00  0.0000000000000000e+00  0.0000000000000000e+00  0.0000000000000000e+00  0.0000000000000000e+00  0.0000000000000000e+00  0.0000000000000000e+00  0.0000000000000000e+00  0.0000000000000000e+00  0.0000000000000000e+00  0.0000000000000000e+00  0.0000000000000000e+00  0.0000000000000000e+00  0.0000000000000000e+00  0.0000000000000000e+00  0.0000000000000000e+00  0.0000000000000000e+00  0.0000000000000000e+00  0.0000000000000000e+00  0.0000000000000000e+00  0.0000000000000000e+00  0.0000000000000000e+00  0.0000000000000000e+00  0.0000000000000000e+00  0.0000000000000000e+00  0.0000000000000000e+00  0.0000000000000000e+00  0.0000000000000000e+00  0.0000000000000000e+00  0.0000000000000000e+00  0.0000000000000000e+00  0.0000000000000000e+00  0.0000000000000000e+00  0.0000000000000000e+00  0.0000000000000000e+00  0.0000000000000000e+00  0.0000000000000000e+00  0.0000000000000000e+00  0.0000000000000000e+00  0.0000000000000000e+00  0.0000000000000000e+00  0.0000000000000000e+00  0.0000000000000000e+00  0.0000000000000000e+00  0.0000000000000000e+00  0.0000000000000000e+00  0.0000000000000000e+00  0.0000000000000000e+00  0.0000000000000000e+00  0.0000000000000000e+00  0.0000000000000000e+00  0.0000000000000000e+00  0.0000000000000000e+00  0.0000000000000000e+00  0.0000000000000000e+00  0.0000000000000000e+00  0.0000000000000000e+00  0.0000000000000000e+00  0.0000000000000000e+00  0.0000000000000000e+00  0.0000000000000000e+00  0.0000000000000000e+00  0.0000000000000000e+00  0.0000000000000000e+00  0.0000000000000000e+00  0.0000000000000000e+00  0.0000000000000000e+00  0.0000000000000000e+00  0.0000000000000000e+00  0.0000000000000000e+00  0.0000000000000000e+00  0.0000000000000000e+00  0.0000000000000000e+00  0.0000000000000000e+00  0.0000000000000000e+00  0.0000000000000000e+00  0.0000000000000000e+00  0.0000000000000000e+00  0.0000000000000000e+00  0.0000000000000000e+00  0.0000000000000000e+00  0.0000000000000000e+00  0.0000000000000000e+00  0.0000000000000000e+00  0.0000000000000000e+00  0.0000000000000000e+00  0.0000000000000000e+00  0.0000000000000000e+00  0.0000000000000000e+00  0.0000000000000000e+00  0.0000000000000000e+00  0.0000000000000000e+00  0.0000000000000000e+00  0.0000000000000000e+00  0.0000000000000000e+00  0.0000000000000000e+00  0.0000000000000000e+00  0.0000000000000000e+00  0.0000000000000000e+00  0.0000000000000000e+00  0.0000000000000000e+00  0.0000000000000000e+00  0.0000000000000000e+00  0.0000000000000000e+00  0.0000000000000000e+00  0.0000000000000000e+00  0.0000000000000000e+00  0.0000000000000000e+00  0.0000000000000000e+00  0.0000000000000000e+00  0.0000000000000000e+00  0.0000000000000000e+00  0.0000000000000000e+00  0.0000000000000000e+00  0.0000000000000000e+00  0.0000000000000000e+00  0.0000000000000000e+00  0.0000000000000000e+00  0.0000000000000000e+00  0.0000000000000000e+00  0.0000000000000000e+00  0.0000000000000000e+00  0.0000000000000000e+00  0.0000000000000000e+00  0.0000000000000000e+00  0.0000000000000000e+00  0.0000000000000000e+00  0.0000000000000000e+00  0.0000000000000000e+00  0.0000000000000000e+00  0.0000000000000000e+00  0.0000000000000000e+00  0.0000000000000000e+00  0.0000000000000000e+00  0.0000000000000000e+00  0.0000000000000000e+00  0.0000000000000000e+00  0.0000000000000000e+00  0.0000000000000000e+00  0.0000000000000000e+00  0.0000000000000000e+00  0.0000000000000000e+00  0.0000000000000000e+00  0.0000000000000000e+00  0.0000000000000000e+00  0.0000000000000000e+00  0.0000000000000000e+00  0.0000000000000000e+00  0.0000000000000000e+00  0.0000000000000000e+00  0.0000000000000000e+00  0.0000000000000000e+00  0.0000000000000000e+00  0.0000000000000000e+00  0.0000000000000000e+00  0.0000000000000000e+00  0.0000000000000000e+00  0.0000000000000000e+00  0.0000000000000000e+00  0.0000000000000000e+00  0.0000000000000000e+00  0.0000000000000000e+00  0.0000000000000000e+00  0.0000000000000000e+00  0.0000000000000000e+00  0.0000000000000000e+00  0.0000000000000000e+00  0.0000000000000000e+00  0.0000000000000000e+00  0.0000000000000000e+00  0.0000000000000000e+00  0.0000000000000000e+00  0.0000000000000000e+00  0.0000000000000000e+00  0.0000000000000000e+00  0.0000000000000000e+00  0.0000000000000000e+00  0.0000000000000000e+00  0.0000000000000000e+00  0.0000000000000000e+00  0.0000000000000000e+00  0.0000000000000000e+00  0.0000000000000000e+00  0.0000000000000000e+00  0.0000000000000000e+00  0.0000000000000000e+00  0.0000000000000000e+00  0.0000000000000000e+00  0.0000000000000000e+00  0.0000000000000000e+00  0.0000000000000000e+00  0.0000000000000000e+00  0.0000000000000000e+00  0.0000000000000000e+00  0.0000000000000000e+00  0.0000000000000000e+00  0.0000000000000000e+00  0.0000000000000000e+00  0.0000000000000000e+00  0.0000000000000000e+00  0.0000000000000000e+00  0.0000000000000000e+00  0.0000000000000000e+00  0.0000000000000000e+00  0.0000000000000000e+00  0.0000000000000000e+00  0.0000000000000000e+00  0.0000000000000000e+00  0.0000000000000000e+00  0.0000000000000000e+00  0.0000000000000000e+00  0.0000000000000000e+00  0.0000000000000000e+00  0.0000000000000000e+00  0.0000000000000000e+00  0.0000000000000000e+00  0.0000000000000000e+00  0.0000000000000000e+00  0.0000000000000000e+00  0.0000000000000000e+00  0.0000000000000000e+00  0.0000000000000000e+00  0.0000000000000000e+00  0.0000000000000000e+00  0.0000000000000000e+00  0.0000000000000000e+00  0.0000000000000000e+00  0.0000000000000000e+00  0.0000000000000000e+00  0.0000000000000000e+00  0.0000000000000000e+00  0.0000000000000000e+00  0.0000000000000000e+00  0.0000000000000000e+00  0.0000000000000000e+00  0.0000000000000000e+00  0.0000000000000000e+00  0.0000000000000000e+00  0.0000000000000000e+00  0.0000000000000000e+00  0.0000000000000000e+00  0.0000000000000000e+00  0.0000000000000000e+00  0.0000000000000000e+00  0.0000000000000000e+00  0.0000000000000000e+00  0.0000000000000000e+00  0.0000000000000000e+00  0.0000000000000000e+00  0.0000000000000000e+00  0.0000000000000000e+00  0.0000000000000000e+00  0.0000000000000000e+00  0.0000000000000000e+00  0.0000000000000000e+00  0.0000000000000000e+00  0.0000000000000000e+00  0.0000000000000000e+00  0.0000000000000000e+00  0.0000000000000000e+00  0.0000000000000000e+00  0.0000000000000000e+00  0.0000000000000000e+00  0.0000000000000000e+00  0.0000000000000000e+00  0.0000000000000000e+00  0.0000000000000000e+00  0.0000000000000000e+00  0.0000000000000000e+00  0.0000000000000000e+00  0.0000000000000000e+00  0.0000000000000000e+00  0.0000000000000000e+00  0.0000000000000000e+00  0.0000000000000000e+00  0.0000000000000000e+00  0.0000000000000000e+00  0.0000000000000000e+00  0.0000000000000000e+00  0.0000000000000000e+00  0.0000000000000000e+00  0.0000000000000000e+00  0.0000000000000000e+00  0.0000000000000000e+00  0.0000000000000000e+00  0.0000000000000000e+00  0.0000000000000000e+00  0.0000000000000000e+00  0.0000000000000000e+00  0.0000000000000000e+00  0.0000000000000000e+00  0.0000000000000000e+00  0.0000000000000000e+00  0.0000000000000000e+00  0.0000000000000000e+00  0.0000000000000000e+00  0.0000000000000000e+00  0.0000000000000000e+00  0.0000000000000000e+00  0.0000000000000000e+00  0.0000000000000000e+00  0.0000000000000000e+00  0.0000000000000000e+00  0.0000000000000000e+00  0.0000000000000000e+00  0.0000000000000000e+00  0.0000000000000000e+00  0.0000000000000000e+00  0.0000000000000000e+00  0.0000000000000000e+00  0.0000000000000000e+00  0.0000000000000000e+00  0.0000000000000000e+00  0.0000000000000000e+00  0.0000000000000000e+00  0.0000000000000000e+00  0.0000000000000000e+00  0.0000000000000000e+00  0.0000000000000000e+00  0.0000000000000000e+00  0.0000000000000000e+00  0.0000000000000000e+00  0.0000000000000000e+00  0.0000000000000000e+00  0.0000000000000000e+00  0.0000000000000000e+00  0.0000000000000000e+00  0.0000000000000000e+00  0.0000000000000000e+00  0.0000000000000000e+00  0.0000000000000000e+00  0.0000000000000000e+00  0.0000000000000000e+00  0.0000000000000000e+00  0.0000000000000000e+00  0.0000000000000000e+00  0.0000000000000000e+00  0.0000000000000000e+00  0.0000000000000000e+00  0.0000000000000000e+00  0.0000000000000000e+00  0.0000000000000000e+00  0.0000000000000000e+00  0.0000000000000000e+00  0.0000000000000000e+00  0.0000000000000000e+00  0.0000000000000000e+00  0.0000000000000000e+00  0.0000000000000000e+00  0.0000000000000000e+00  0.0000000000000000e+00  0.0000000000000000e+00  0.0000000000000000e+00  0.0000000000000000e+00  0.0000000000000000e+00  0.0000000000000000e+00  0.0000000000000000e+00  0.0000000000000000e+00  0.0000000000000000e+00  0.0000000000000000e+00  0.0000000000000000e+00  0.0000000000000000e+00  0.0000000000000000e+00  0.0000000000000000e+00  9.7089367887268596e-01  9.7583573813708802e-01  9.7813336335882439e-01  9.8220340263800443e-01  9.7710515323562475e-01  9.6815130047825326e-01  9.7194373822372604e-01  9.7603374893198269e-01  9.7323284121183495e-01  9.7007363498515387e-01  9.7337295029838855e-01  9.6933715802052800e-01  9.6714537783465138e-01  9.7615155835536738e-01  9.7321474072460856e-01  9.7075266558485096e-01  9.7842403956406743e-01  9.7828774193212265e-01  9.6983139172978938e-01  9.7304549320685907e-01  9.7489615965289611e-01  9.7403038254045193e-01  9.7187581644913401e-01  9.7223484363903978e-01  9.7437740194605904e-01  9.7473136372873126e-01  9.7388890850110810e-01  9.7560675122621454e-01  9.7758124449417727e-01  9.7673443585188724e-01  9.7622337524836811e-01  9.7431565359599970e-01  9.7190013733428571e-01  9.6640230966133134e-01  9.7401883334901795e-01  9.6997730556892514e-01  9.7243042761638254e-01  9.7133521613793405e-01  9.7251307907446438e-01  9.7235004121099289e-01  9.7700819821384000e-01  9.6869104126767203e-01  9.7509366187246516e-01  9.6769204230649575e-01  9.7501393858192886e-01  9.7443978428270994e-01  9.5052700512267063e-01  9.7022772786154010e-01  9.7492214566572999e-01  9.7060422661911461e-01  9.7338194767149488e-01  9.7742577141351994e-01  9.7446396363644205e-01  9.6567102024193030e-01  9.7304085196791412e-01  9.7525872206875619e-01  9.7529237063616170e-01  9.7659975323111226e-01  9.6714901849573343e-01  9.6963814625984235e-01  9.7197951140552774e-01  9.7207736412743329e-01  -2.0057972418279262e-32  2.2081068861540773e-32  2.9658160886774167e-35  6.1889530932884846e-35  2.8437413806946977e-32  4.8255408790857788e-32  7.1089635144139626e-36  2.5575596508971771e-36  -9.3250768046793949e-32  -4.3353229354264866e-32  5.9307323803188674e-33  1.2361091490823869e-32  8.0815394467845054e-33  9.3893271486996359e-33  5.5141673543215390e-31  2.8292440042220842e-31  -8.0423990322239799e-31  -3.3215169608525730e-33  -1.1044709402881783e-30  -1.4928147682301934e-30  -2.4017171499347625e-31  -3.8185039392860930e-31  -5.1267191604299049e-31  -8.7741554193387396e-31  -3.6187330161734080e-31  -4.1821048144812821e-31  -2.5738502639988783e-29  -7.3975427781013231e-30  -1.5936097081591721e-30  -2.4297364553724999e-29  1.0643831276103622e-30  -3.9370586792063622e-31  -5.3210708445615442e-37  4.1554653858773818e-37  3.6625469788041717e-37  -5.4135560237567861e-37  5.7109404562953301e-34  3.2194471062699483e-34  3.7567278199901515e-34  3.6158782725644137e-34  -1.0955772080589417e-28  1.2115359550869274e-30  -4.7171504542321427e-33  2.1106477316578218e-28  1.5090413851437094e-36  1.0972555868849959e-36  1.7656032448059219e-36  -4.7880542522917405e-39  -1.0991726263787420e-39  -5.6997664912297622e-39  5.0931489723248626e-40  2.9766778211651006e-38  1.3331757716721977e-40  -2.0624309525866731e-38  -1.6830875547982017e-39  -1.5097867746650414e-40  -2.1997393211997259e-38  1.6318594635407674e-40  -1.0388619021661977e-38  -2.0578119034376418e-40  -5.8559778547508421e-41  -6.3531613174960129e-41  -6.0250830846719937e-41  -2.4660652709908469e-42  -1.3014249619047286e-42  5.5428836098818057e-42  6.8088697261947737e-42  -5.9291575685812900e-41  1.9420409543338476e-28  3.7948540577499500e-31  -1.5026053894329585e-31  1.9607874611657135e-28  4.1732835309880872e-31  1.9643429050610495e-31  2.4384867555539933e-30  2.1602388179654794e-30  2.1197912999530839e-31  2.6448937460958510e-31  -2.9059412837941277e-31  -1.2574056318119960e-30  -3.0728406400534376e-31  -5.5752025519500648e-32  4.6351118531043419e-30  6.5795610274024475e-30  -4.0170474499326914e-32  3.0750784823664750e-31  -2.2263169025264884e-33  1.1122663176396896e-31  -2.3829996363011204e-31  -2.5425346692784379e-31  -2.0117878806903803e-33  -1.8412294050754432e-33  -4.9862485523404352e-32  -4.5805039628546137e-32  1.0203779538036029e-33  1.1185036955647239e-33  5.3366977653564397e-36  -1.7396707019663984e-33  5.0116038059561118e-33  -4.4717897271573292e-36  1.0005667305182574e-33  -4.3425197420590229e-36  4.5426072119434717e-36  4.4839520854062910e-33  2.4138697946434602e-43  1.0060565956072315e-42  -2.1512337457619287e-43  -2.8058185637772500e-43  -1.3457712886187071e-43  -1.2812080026398895e-43  3.7612334423126955e-43  2.9119465955444896e-43  4.6834603654253247e-29  2.0169553183685775e-30  6.7601079686104556e-31  2.3897775786934942e-28  4.2517452971361175e-33  -2.1563432326305400e-34  -2.8900701228435520e-34  -9.4376997120487397e-33  2.5102916361455081e-34  2.0657118854454707e-32  3.6788375389889392e-32  2.2546694898071406e-34  -7.8117403540725342e-38  -1.1069315146852511e-34  -4.7573017747121707e-35  -1.6134760872885371e-38  -5.7718953160177268e-38  6.6219059743631309e-36  -6.4222106729421422e-35  1.8760822169844434e-39  1.8660930618595558e-40  -1.9840456845935152e-41  -1.9150981429038563e-37  -7.6127485650816288e-40  -3.1300681973987401e-38  -5.4080091109590114e-40  1.4107317672185738e-39  -2.0130319410177919e-41  -9.0995344345180276e-38  -6.8815296525962321e-40  -1.7541923609758799e-40  -1.6477762839650427e-41  1.3496001968245756e-39  -1.3485804592728850e-41  -3.6423454954242276e-38  -5.1098176736162081e-40  -9.7754531447343780e-44  5.2312602745849211e-44  -3.9725139124948914e-44  -1.3560615003295326e-43  -3.9035307684226336e-29  -3.9304911229842029e-29  -2.6664133973495032e-28  7.3769645043506834e-28  9.7374673575624015e-28  -3.8504548311474898e-27  -2.5571153138909068e-27  1.3796930152880437e-26  3.6531717449791896e-27  -3.5607012705721582e-26  7.8334728730960422e-27  4.7852058811634666e-26  -8.5305958755773526e-26  1.2403776569284893e-25  4.0342727726246938e-25  -1.2406841506935965e-24  -1.3848781207876289e-24  5.7295167337667305e-24  3.6661732069296807e-24  -1.9364346080110495e-23  -6.8214602210199482e-24  -1.7993741181184422e-23  5.0405959469003989e-23  3.4946639256188192e-24  -9.0839025322603004e-23  3.7220395510913264e-23  2.7392185961752924e-23  -1.8902179595085706e-22  5.6788153628193476e-22  5.2543076067896439e-22  -2.6805741454905032e-21  -7.5557931580203669e-22  9.7483057001513065e-23  7.0879005348865695e-21  -9.7073432083351244e-22  -8.4512932224907780e-21  9.3893225116290345e-21  -2.0493350640088034e-20  -2.7159716735040793e-20  1.4007263012380309e-19  2.6154870150028788e-20  -3.4524193967502312e-19  1.0622545622551615e-19  -3.8795668091037675e-19  1.4726683552948727e-19  -5.0215961142014016e-19  1.9545082771348543e-18  7.0153990333197694e-19  3.2795275268107103e-20  -5.3224412798999505e-19  1.4106959342202388e-18  9.6787529236891785e-19  -1.2270228760090644e-20  -5.3193663195375367e-19  1.0267417182626834e-19  -4.2371381617175803e-21  9.0977896464419679e-19  -5.1690561511305361e-19  9.1288186707896092e-20  4.3858412099451393e-20  -3.2706754902432097e-20  6.2257314327464707e-20  -4.3646059710343295e-19  8.4669048420427877e-20  -3.0609384118214989e-20  2.9576230897117134e-20  -3.1282979938960878e-19  1.0296049969804384e-19  -2.4460190272020129e-20  1.5779536548480354e-21  -1.8914296994417388e-19  1.1158082905253929e-19  -4.6236869477622141e-19  6.2026226133824273e-21  2.7164340951160666e-20  5.1118500292458724e-19  -3.4042916241793779e-19  1.3318762258587195e-18  3.3098885855041125e-20  -3.2530566641223928e-18  2.2389096079858424e-18  -1.3053181867525149e-17  -2.6445318617686518e-19  4.0785600208847761e-18  -1.1708853182663594e-17  -1.7732703953832862e-19  1.9871807294367093e-17  -1.1914567527513329e-17  6.5924412518446047e-17  -2.0445139236858214e-17  7.1321614343688322e-17  -1.2473065110982732e-17  1.1493201647971230e-17  6.6262173677542132e-18  -4.9941426547561939e-17  4.9591242152736567e-18  -5.0752795576163416e-19  -2.8059166316477907e-01  1.3825629231621175e-17  -3.3183443801082275e-17  -6.9601282327081309e-19  4.1490586592464120e-17  -3.3354833026287500e-01  -1.8575055801234387e-17  8.1530964341829436e-17  -2.6297804429200433e-01  -1.9585070914483687e-17  5.2045646995889776e-17  -2.7578599240814614e-16  -9.3949363984814353e-17  3.0709127662725822e-18  4.5230686775124241e-17  -2.9063064714476384e-16  5.7074024129859363e-18  -1.7583997835957252e-17  6.1701088596287135e-17  -2.4705028444373724e-16  -1.6291992206530025e-16  2.4829096913537973e-17  -3.2227904889978565e-17  3.2740811343878597e-16  -1.2544003670975107e-17  1.6793900243240590e-17  -6.0023117848255853e-17  2.3778046444067899e-16  1.1243270231393250e-16  -3.9576881369617505e-18  -4.7745545439128316e-17  1.0458649863012841e-17  1.7213975601051575e-16  -1.7545603301926210e-17  -4.8463511147620509e-17  -1.2088182687049836e-16  2.7700759473321402e-16  -3.8145129823090562e-17  -4.1946825753264291e-17  -3.3132486599567158e-16  3.7849754632364119e-16  -1.3303295769604463e-15  -4.6148327843544601e-16  -4.5549517196662425e-17  4.5022251496808297e-16  -1.7230187698900389e-15  -3.2064330845742635e-16  -8.2855512371341789e-17  4.4657309295294186e-16  -2.2139262702843074e-15  1.3226266649190729e-16  2.9440911327977590e-15  -2.1159816829829984e-15  9.1953451600648632e-15  -4.5493389645186366e-16  5.7557127466814265e-16  -1.0226454579190192e-15  8.0371745597013676e-15  -2.6227107741248975e-15  7.2914216442679073e-15  4.0121439284547726e-16  -1.1035002166722980e-14  4.3461203904703769e-15  -1.1323134456400355e-14  -2.6020867072540275e-15  -6.7297573597157048e-16  3.0295264093209174e-15  -2.1111642615095452e-14  7.9831241787615612e-15  -3.6000855797374729e-14  1.0328324644333619e-14  -3.9106664089633555e-14  1.0635072126601204e-14  -4.1402126330977625e-14  1.2382909914458123e-14  -5.1915665281972328e-14  1.5417262059015041e-14  -6.0153544973582803e-14  1.5474365434749319e-14  -5.0222524670700472e-14  1.0178191439357537e-14  -2.3483124804586643e-14  2.6426653978344029e-15  1.1074476776197021e-15  -1.9244715797805689e-15  9.0344890059612925e-15  -1.9356527961506689e-15  3.7650907035863199e-15  -2.0223997144314378e-16  -1.2644205781412144e-15  2.9049225608273679e-16  -7.4630166609908727e-17  -2.0616069573258037e-17  2.9677767912645020e-17  -4.2067689355231784e-18  -6.0585394771678037e-18  2.0243228164385458e-18  6.8182148522015602e-19  -4.5191873944651430e-19  2.9218480816785113e-20  -5.6257026262363568e-19  5.9247415426164234e-20  -2.8197893804215445e-15  1.3346450147438987e-19  -2.0471357031175141e-19  -7.6613399960434828e-21  1.6248250192589472e-19  -3.6856195490180866e-20  4.7887782522799688e-20  3.2117646439211246e-21