<?xml version="1.0"?>
<VTKFile type="UnstructuredGrid"  version="0.1"  >
<UnstructuredGrid>
<Piece  NumberOfPoints="11902" NumberOfCells="23402">
<Points>
<DataArray  type="Float64"  NumberOfComponents="3"  format="ascii">-5 -5 0  5 -5 0  5 5 0  -5 5 0  1.186036810345479 0.001221421096662017 0  -4.9 -5 0  -4.8 -5 0  -4.7 -5 0  -4.6 -5 0  -4.5 -5 0  -4.4 -5 0  -4.3 -5 0  -4.2 -5 0  -4.1 -5 0  -4 -5 0  -3.9 -5 0  -3.8 -5 0  -3.7 -5 0  -3.6 -5 0  -3.5 -5 0  -3.4 -5 0  -3.3 -5 0  -3.2 -5 0  -3.1 -5 0  -3 -5 0  -2.9 -5 0  -2.8 -5 0  -2.7 -5 0  -2.6 -5 0  -2.5 -5 0  -2.4 -5 0  -2.3 -5 0  -2.2 -5 0  -2.1 -5 0  -2 -5 0  -1.9 -5 0  -1.8 -5 0  -1.7 -5 0  -1.6 -5 0  -1.5 -5 0  -1.4 -5 0  -1.3 -5 0  -1.2 -5 0  -1.1 -5 0  -1 -5 0  -0.9000000000000004 -5 0  -0.7999999999999998 -5 0  -0.7000000000000002 -5 0  -0.5999999999999996 -5 0  -0.5 -5 0  -0.4000000000000004 -5 0  -0.2999999999999998 -5 0  -0.2000000000000002 -5 0  -0.09999999999999964 -5 0  0 -5 0  0.09999999999999964 -5 0  0.2000000000000002 -5 0  0.2999999999999998 -5 0  0.4000000000000004 -5 0  0.5 -5 0  0.5999999999999996 -5 0  0.7000000000000002 -5 0  0.7999999999999998 -5 0  0.9000000000000004 -5 0  1 -5 0  1.1 -5 0  1.2 -5 0  1.3 -5 0  1.4 -5 0  1.5 -5 0  1.6 -5 0  1.7 -5 0  1.8 -5 0  1.9 -5 0  2 -5 0  2.1 -5 0  2.2 -5 0  2.3 -5 0  2.4 -5 0  2.5 -5 0  2.6 -5 0  2.7 -5 0  2.8 -5 0  2.9 -5 0  3 -5 0  3.1 -5 0  3.199999999999999 -5 0  3.300000000000001 -5 0  3.4 -5 0  3.5 -5 0  3.6 -5 0  3.699999999999999 -5 0  3.800000000000001 -5 0  3.9 -5 0  4 -5 0  4.1 -5 0  4.199999999999999 -5 0  4.300000000000001 -5 0  4.4 -5 0  4.5 -5 0  4.6 -5 0  4.699999999999999 -5 0  4.800000000000001 -5 0  4.9 -5 0  5 -4.9 0  5 -4.8 0  5 -4.7 0  5 -4.6 0  5 -4.5 0  5 -4.4 0  5 -4.3 0  5 -4.2 0  5 -4.1 0  5 -4 0  5 -3.9 0  5 -3.8 0  5 -3.7 0  5 -3.6 0  5 -3.5 0  5 -3.4 0  5 -3.3 0  5 -3.2 0  5 -3.1 0  5 -3 0  5 -2.9 0  5 -2.8 0  5 -2.7 0  5 -2.6 0  5 -2.5 0  5 -2.4 0  5 -2.3 0  5 -2.2 0  5 -2.1 0  5 -2 0  5 -1.9 0  5 -1.8 0  5 -1.7 0  5 -1.6 0  5 -1.5 0  5 -1.4 0  5 -1.3 0  5 -1.2 0  5 -1.1 0  5 -1 0  5 -0.9000000000000004 0  5 -0.7999999999999998 0  5 -0.7000000000000002 0  5 -0.5999999999999996 0  5 -0.5 0  5 -0.4000000000000004 0  5 -0.2999999999999998 0  5 -0.2000000000000002 0  5 -0.09999999999999964 0  5 0 0  5 0.09999999999999964 0  5 0.2000000000000002 0  5 0.2999999999999998 0  5 0.4000000000000004 0  5 0.5 0  5 0.5999999999999996 0  5 0.7000000000000002 0  5 0.7999999999999998 0  5 0.9000000000000004 0  5 1 0  5 1.1 0  5 1.2 0  5 1.3 0  5 1.4 0  5 1.5 0  5 1.6 0  5 1.7 0  5 1.8 0  5 1.9 0  5 2 0  5 2.1 0  5 2.2 0  5 2.3 0  5 2.4 0  5 2.5 0  5 2.6 0  5 2.7 0  5 2.8 0  5 2.9 0  5 3 0  5 3.1 0  5 3.199999999999999 0  5 3.300000000000001 0  5 3.4 0  5 3.5 0  5 3.6 0  5 3.699999999999999 0  5 3.800000000000001 0  5 3.9 0  5 4 0  5 4.1 0  5 4.199999999999999 0  5 4.300000000000001 0  5 4.4 0  5 4.5 0  5 4.6 0  5 4.699999999999999 0  5 4.800000000000001 0  5 4.9 0  4.9 5 0  4.8 5 0  4.7 5 0  4.6 5 0  4.5 5 0  4.4 5 0  4.3 5 0  4.2 5 0  4.1 5 0  4 5 0  3.9 5 0  3.8 5 0  3.7 5 0  3.6 5 0  3.5 5 0  3.4 5 0  3.3 5 0  3.2 5 0  3.1 5 0  3 5 0  2.9 5 0  2.8 5 0  2.7 5 0  2.6 5 0  2.5 5 0  2.4 5 0  2.3 5 0  2.2 5 0  2.1 5 0  2 5 0  1.9 5 0  1.8 5 0  1.7 5 0  1.6 5 0  1.5 5 0  1.4 5 0  1.3 5 0  1.2 5 0  1.1 5 0  1 5 0  0.9000000000000004 5 0  0.7999999999999998 5 0  0.7000000000000002 5 0  0.5999999999999996 5 0  0.5 5 0  0.4000000000000004 5 0  0.2999999999999998 5 0  0.2000000000000002 5 0  0.09999999999999964 5 0  0 5 0  -0.09999999999999964 5 0  -0.2000000000000002 5 0  -0.2999999999999998 5 0  -0.4000000000000004 5 0  -0.5 5 0  -0.5999999999999996 5 0  -0.7000000000000002 5 0  -0.7999999999999998 5 0  -0.9000000000000004 5 0  -1 5 0  -1.1 5 0  -1.2 5 0  -1.3 5 0  -1.4 5 0  -1.5 5 0  -1.6 5 0  -1.7 5 0  -1.8 5 0  -1.9 5 0  -2 5 0  -2.1 5 0  -2.2 5 0  -2.3 5 0  -2.4 5 0  -2.5 5 0  -2.6 5 0  -2.7 5 0  -2.8 5 0  -2.9 5 0  -3 5 0  -3.1 5 0  -3.199999999999999 5 0  -3.300000000000001 5 0  -3.4 5 0  -3.5 5 0  -3.6 5 0  -3.699999999999999 5 0  -3.800000000000001 5 0  -3.9 5 0  -4 5 0  -4.1 5 0  -4.199999999999999 5 0  -4.300000000000001 5 0  -4.4 5 0  -4.5 5 0  -4.6 5 0  -4.699999999999999 5 0  -4.800000000000001 5 0  -4.9 5 0  -5 4.9 0  -5 4.8 0  -5 4.7 0  -5 4.6 0  -5 4.5 0  -5 4.4 0  -5 4.3 0  -5 4.2 0  -5 4.1 0  -5 4 0  -5 3.9 0  -5 3.8 0  -5 3.7 0  -5 3.6 0  -5 3.5 0  -5 3.4 0  -5 3.3 0  -5 3.2 0  -5 3.1 0  -5 3 0  -5 2.9 0  -5 2.8 0  -5 2.7 0  -5 2.6 0  -5 2.5 0  -5 2.4 0  -5 2.3 0  -5 2.2 0  -5 2.1 0  -5 2 0  -5 1.9 0  -5 1.8 0  -5 1.7 0  -5 1.6 0  -5 1.5 0  -5 1.4 0  -5 1.3 0  -5 1.2 0  -5 1.1 0  -5 1 0  -5 0.9000000000000004 0  -5 0.7999999999999998 0  -5 0.7000000000000002 0  -5 0.5999999999999996 0  -5 0.5 0  -5 0.4000000000000004 0  -5 0.2999999999999998 0  -5 0.2000000000000002 0  -5 0.09999999999999964 0  -5 0 0  -5 -0.09999999999999964 0  -5 -0.2000000000000002 0  -5 -0.2999999999999998 0  -5 -0.4000000000000004 0  -5 -0.5 0  -5 -0.5999999999999996 0  -5 -0.7000000000000002 0  -5 -0.7999999999999998 0  -5 -0.9000000000000004 0  -5 -1 0  -5 -1.1 0  -5 -1.2 0  -5 -1.3 0  -5 -1.4 0  -5 -1.5 0  -5 -1.6 0  -5 -1.7 0  -5 -1.8 0  -5 -1.9 0  -5 -2 0  -5 -2.1 0  -5 -2.2 0  -5 -2.3 0  -5 -2.4 0  -5 -2.5 0  -5 -2.6 0  -5 -2.7 0  -5 -2.8 0  -5 -2.9 0  -5 -3 0  -5 -3.1 0  -5 -3.199999999999999 0  -5 -3.300000000000001 0  -5 -3.4 0  -5 -3.5 0  -5 -3.6 0  -5 -3.699999999999999 0  -5 -3.800000000000001 0  -5 -3.9 0  -5 -4 0  -5 -4.1 0  -5 -4.199999999999999 0  -5 -4.300000000000001 0  -5 -4.4 0  -5 -4.5 0  -5 -4.6 0  -5 -4.699999999999999 0  -5 -4.800000000000001 0  -5 -4.9 0  1.18019974590992 0.09945931021490913 0  1.161814300825984 0.1979004261635025 0  1.130951395911354 0.2953017008847283 0  1.090909557534426 0.3871889784343926 0  1.038961713341912 0.4779471827715416 0  0.9776321747489727 0.5631711476254044 0  0.9055589508067807 0.6429380775767959 0  0.8241651841834251 0.7157373727394608 0  0.7357159177687695 0.7815434565595195 0  0.6394024362077342 0.8401654153591869 0  0.536043473661824 0.8907706059655616 0  0.4282521597562655 0.9325250868119901 0  0.3180092326037936 0.9652927446535313 0  0.2026624828383171 0.9876965763232813 0  0.08796006282742845 1.001826132691001 0  -0.02764978286022347 1.004554218652198 0  -0.1433338246105217 0.9952604403892208 0  -0.2596477844969989 0.9777282710608306 0  -0.3729913740685849 0.9513618126085706 0  -0.4815358610490702 0.9147910658311214 0  -0.5852050330814103 0.8693148664127833 0  -0.6838076870097431 0.8145901664578462 0  -0.7754276282976652 0.7518416358642146 0  -0.8602958876266363 0.6815519145288818 0  -0.9376745267633627 0.6035744840303513 0  -1.004892486481247 0.5209714345901345 0  -1.062784826752252 0.4338520312176337 0  -1.109441701821306 0.3415632248507608 0  -1.144463952047856 0.2471234042234088 0  -1.168086796524625 0.1501992626600649 0  -1.180084144107912 0.05082474192189702 0  -1.180089656519675 -0.04918730031282036 0  -1.168055438852614 -0.148266333899368 0  -1.14545041145438 -0.2452002477908369 0  -1.10905113302678 -0.341143774808299 0  -1.063158617653906 -0.4325927754122839 0  -1.005813223174443 -0.5200080819724794 0  -0.939044439738425 -0.602193065493676 0  -0.8618995538517746 -0.6790676113652008 0  -0.7765636003156441 -0.7485034490748197 0  -0.6837859512901308 -0.8098788170125414 0  -0.5854824846197599 -0.8643248070346877 0  -0.4790631156424894 -0.9108066716966451 0  -0.3701125233567813 -0.9486950754002307 0  -0.2570010757137243 -0.9762895810903374 0  -0.1419432630005415 -0.9942845129594151 0  -0.02711450724382512 -1.003735876567338 0  0.08857248716184811 -0.9996568668168335 0  0.2052258008854986 -0.9855743816731614 0  0.3194435356426722 -0.9636462944295359 0  0.4314152567126291 -0.9311142818819345 0  0.5375612021637958 -0.8897940146863937 0  0.6400840480927897 -0.839669890691618 0  0.7359102640016707 -0.7824356897286444 0  0.8242527021012716 -0.7163876902362173 0  0.9050869561178829 -0.6423610838220891 0  0.9763387260128514 -0.5624875667870309 0  1.038869288107683 -0.4774193402118279 0  1.091968407619023 -0.3872749446931634 0  1.132304364965947 -0.2939978753316122 0  1.16202952044131 -0.1971086932236259 0  1.180213080908594 -0.09901055115512244 0  -2.448838701180024 4.918623895019787 0  -2.448737626908249 -4.911048485918931 0  4.910985520698997 2.448290677876363 0  4.919059724886708 -2.449716287866677 0  2.446516733926133 -4.896376785207464 0  2.44093874769001 4.900118193450818 0  -4.911008079107465 -2.448312811937172 0  -4.911006619267829 2.448316637603226 0  -1.748802809699663 4.911738186787822 0  -1.744577097925195 -4.915150421546977 0  4.92131146292921 1.744428266672484 0  4.909941404678252 -1.748241743873334 0  -4.910226788767874 -1.74797001375331 0  -4.911043447942008 1.747710636121622 0  1.746093512294131 4.905648556878653 0  1.747543295756271 -4.893888364276942 0  -1.149055556788257 4.909676084061702 0  -1.129890423766673 -4.917518209712207 0  -4.910140804642117 -1.148227193172629 0  -4.909962205059244 1.148027215578578 0  1.144036409582426 -4.913738866502865 0  1.149062939407005 4.909665317211504 0  4.910288608792523 1.146505000855605 0  4.92100386796594 -1.152252071160418 0  -0.5467805301022759 -4.91094160769798 0  -0.546552327338349 4.919540231121876 0  -4.909031510231249 -0.5488750224843113 0  -4.909056040187341 0.5474309131323458 0  4.908369235660679 -0.5491965979373616 0  4.919886646415804 0.5459312298129625 0  0.5425736978075277 -4.897955050423957 0  0.5512829297073515 4.916395997066028 0  -4.912254452655374 -3.048602881629093 0  4.918801276616709 3.046599118064853 0  4.911766297769773 -3.048583563628463 0  -4.913100454157219 3.045691960746324 0  3.0555345217358 -4.91774200016546 0  -3.048882895492152 -4.91170239093785 0  3.052444782379812 4.91377373466059 0  -3.048326929391243 4.912589228680217 0  -4.908198810716354 -0.04992431866094602 0  0.04512678955638453 -4.912899113583411 0  0.04957524686799315 4.919855303658776 0  4.915176399796903 -0.05130535919950475 0  3.545804259561829 -4.91927792516061 0  -3.549100874073341 4
[...]
<PointData  Scalars="f_27"> 
<DataArray  type="Float64"  Name="f_27"  format="ascii">0.0000000000000000e+00  0.0000000000000000e+00  0.0000000000000000e+00  0.0000000000000000e+00  8.3502620284347251e-01  0.0000000000000000e+00  0.0000000000000000e+00  0.0000000000000000e+00  0.0000000000000000e+00  0.0000000000000000e+00  0.0000000000000000e+00  0.0000000000000000e+00  0.0000000000000000e+00  0.0000000000000000e+00  0.0000000000000000e+00  0.0000000000000000e+00  0.0000000000000000e+00  0.0000000000000000e+00  0.0000000000000000e+00  0.0000000000000000e+00  0.0000000000000000e+00  0.0000000000000000e+00  0.0000000000000000e+00  0.0000000000000000e+00  0.0000000000000000e+00  0.0000000000000000e+00  0.0000000000000000e+00  0.0000000000000000e+00  0.0000000000000000e+00  0.0000000000000000e+00  0.0000000000000000e+00  0.0000000000000000e+00  0.0000000000000000e+00  0.0000000000000000e+00  0.0000000000000000e+00  0.0000000000000000e+00  0.0000000000000000e+00  0.0000000000000000e+00  0.0000000000000000e+00  0.0000000000000000e+00  0.0000000000000000e+00  0.0000000000000000e+00  0.0000000000000000e+00  0.0000000000000000e+00  0.0000000000000000e+00  0.0000000000000000e+00  0.0000000000000000e+00  0.0000000000000000e+00  0.0000000000000000e+00  0.0000000000000000e+00  0.0000000000000000e+00  0.0000000000000000e+00  0.0000000000000000e+00  0.0000000000000000e+00  0.0000000000000000e+00  0.0000000000000000e+00  0.0000000000000000e+00  0.0000000000000000e+00  0.0000000000000000e+00  0.0000000000000000e+00  0.0000000000000000e+00  0.0000000000000000e+00  0.0000000000000000e+00  0.0000000000000000e+00  0.0000000000000000e+00  0.0000000000000000e+00  0.0000000000000000e+00  0.0000000000000000e+00  0.0000000000000000e+00  0.0000000000000000e+00  0.0000000000000000e+00  0.0000000000000000e+00  0.0000000000000000e+00  0.0000000000000000e+00  0.0000000000000000e+00  0.0000000000000000e+00  0.0000000000000000e+00  0.0000000000000000e+00  0.0000000000000000e+00  0.0000000000000000e+00  0.0000000000000000e+00  0.0000000000000000e+00  0.0000000000000000e+00  0.0000000000000000e+00  0.0000000000000000e+00  0.0000000000000000e+00  0.0000000000000000e+00  0.0000000000000000e+00  0.0000000000000000e+00  0.0000000000000000e+00  0.0000000000000000e+00  0.0000000000000000e+00  0.0000000000000000e+00  0.0000000000000000e+00  0.0000000000000000e+00  0.0000000000000000e+00  0.0000000000000000e+00  0.0000000000000000e+00  0.0000000000000000e+00  0.0000000000000000e+00  0.0000000000000000e+00  0.0000000000000000e+00  0.0000000000000000e+00  0.0000000000000000e+00  0.0000000000000000e+00  0.0000000000000000e+00  0.0000000000000000e+00  0.0000000000000000e+00  0.0000000000000000e+00  0.0000000000000000e+00  0.0000000000000000e+00  0.0000000000000000e+00  0.0000000000000000e+00  0.0000000000000000e+00  0.0000000000000000e+00  0.0000000000000000e+00  0.0000000000000000e+00  0.0000000000000000e+00  0.0000000000000000e+00  0.0000000000000000e+00  0.0000000000000000e+00  0.0000000000000000e+00  0.0000000000000000e+00  0.0000000000000000e+00  0.0000000000000000e+00  0.0000000000000000e+00  0.0000000000000000e+00  0.0000000000000000e+00  0.0000000000000000e+00  0.0000000000000000e+00  0.0000000000000000e+00  0.0000000000000000e+00  0.0000000000000000e+00  0.0000000000000000e+00  0.0000000000000000e+00  0.0000000000000000e+00  0.0000000000000000e+00  0.0000000000000000e+00  0.0000000000000000e+00  0.0000000000000000e+00  0.0000000000000000e+00  0.0000000000000000e+00  0.0000000000000000e+00  0.0000000000000000e+00  0.0000000000000000e+00  0.0000000000000000e+00  0.0000000000000000e+00  0.0000000000000000e+00  0.0000000000000000e+00  0.0000000000000000e+00  0.0000000000000000e+00  0.0000000000000000e+00  0.0000000000000000e+00  0.0000000000000000e+00  0.0000000000000000e+00  0.0000000000000000e+00  0.0000000000000000e+00  0.0000000000000000e+00  0.0000000000000000e+00  0.0000000000000000e+00  0.0000000000000000e+00  0.0000000000000000e+00  0.0000000000000000e+00  0.0000000000000000e+00  0.0000000000000000e+00  0.0000000000000000e+00  0.0000000000000000e+00  0.0000000000000000e+00  0.0000000000000000e+00  0.0000000000000000e+00  0.0000000000000000e+00  0.0000000000000000e+00  0.0000000000000000e+00  0.0000000000000000e+00  0.0000000000000000e+00  0.0000000000000000e+00  0.0000000000000000e+00  0.0000000000000000e+00  0.0000000000000000e+00  0.0000000000000000e+00  0.0000000000000000e+00  0.0000000000000000e+00  0.0000000000000000e+00  0.0000000000000000e+00  0.0000000000000000e+00  0.0000000000000000e+00  0.0000000000000000e+00  0.0000000000000000e+00  0.0000000000000000e+00  0.0000000000000000e+00  0.0000000000000000e+00  0.0000000000000000e+00  0.0000000000000000e+00  0.0000000000000000e+00  0.0000000000000000e+00  0.0000000000000000e+00  0.0000000000000000e+00  0.0000000000000000e+00  0.0000000000000000e+00  0.0000000000000000e+00  0.0000000000000000e+00  0.0000000000000000e+00  0.0000000000000000e+00  0.0000000000000000e+00  0.0000000000000000e+00  0.0000000000000000e+00  0.0000000000000000e+00  0.0000000000000000e+00  0.0000000000000000e+00  0.0000000000000000e+00  0.0000000000000000e+00  0.0000000000000000e+00  0.0000000000000000e+00  0.0000000000000000e+00  0.0000000000000000e+00  0.0000000000000000e+00  0.0000000000000000e+00  0.0000000000000000e+00  0.0000000000000000e+00  0.0000000000000000e+00  0.0000000000000000e+00  0.0000000000000000e+00  0.0000000000000000e+00  0.0000000000000000e+00  0.0000000000000000e+00  0.0000000000000000e+00  0.0000000000000000e+00  0.0000000000000000e+00  0.0000000000000000e+00  0.0000000000000000e+00  0.0000000000000000e+00  0.0000000000000000e+00  0.0000000000000000e+00  0.0000000000000000e+00  0.0000000000000000e+00  0.0000000000000000e+00  0.0000000000000000e+00  0.0000000000000000e+00  0.0000000000000000e+00  0.0000000000000000e+00  0.0000000000000000e+00  0.0000000000000000e+00  0.0000000000000000e+00  0.0000000000000000e+00  0.0000000000000000e+00  0.0000000000000000e+00  0.0000000000000000e+00  0.0000000000000000e+00  0.0000000000000000e+00  0.0000000000000000e+00  0.0000000000000000e+00  0.0000000000000000e+00  0.0000000000000000e+00  0.0000000000000000e+00  0.0000000000000000e+00  0.0000000000000000e+00  0.0000000000000000e+00  0.0000000000000000e+00  0.0000000000000000e+00  0.0000000000000000e+00  0.0000000000000000e+00  0.0000000000000000e+00  0.0000000000000000e+00  0.0000000000000000e+00  0.0000000000000000e+00  0.0000000000000000e+00  0.0000000000000000e+00  0.0000000000000000e+00  0.0000000000000000e+00  0.0000000000000000e+00  0.0000000000000000e+00  0.0000000000000000e+00  0.0000000000000000e+00  0.0000000000000000e+00  0.0000000000000000e+00  0.0000000000000000e+00  0.0000000000000000e+00  0.0000000000000000e+00  0.0000000000000000e+00  0.0000000000000000e+00  0.0000000000000000e+00  0.0000000000000000e+00  0.0000000000000000e+00  0.0000000000000000e+00  0.0000000000000000e+00  0.0000000000000000e+00  0.0000000000000000e+00  0.0000000000000000e+00  0.0000000000000000e+00  0.0000000000000000e+00  0.0000000000000000e+00  0.0000000000000000e+00  0.0000000000000000e+00  0.0000000000000000e+00  0.0000000000000000e+00  0.0000000000000000e+00  0.0000000000000000e+00  0.0000000000000000e+00  0.0000000000000000e+00  0.0000000000000000e+00  0.0000000000000000e+00  0.0000000000000000e+00  0.0000000000000000e+00  0.0000000000000000e+00  0.0000000000000000e+00  0.0000000000000000e+00  0.0000000000000000e+00  0.0000000000000000e+00  0.0000000000000000e+00  0.0000000000000000e+00  0.0000000000000000e+00  0.0000000000000000e+00  0.0000000000000000e+00  0.0000000000000000e+00  0.0000000000000000e+00  0.0000000000000000e+00  0.0000000000000000e+00  0.0000000000000000e+00  0.0000000000000000e+00  0.0000000000000000e+00  0.0000000000000000e+00  0.0000000000000000e+00  0.0000000000000000e+00  0.0000000000000000e+00  0.0000000000000000e+00  0.0000000000000000e+00  0.0000000000000000e+00  0.0000000000000000e+00  0.0000000000000000e+00  0.0000000000000000e+00  0.0000000000000000e+00  0.0000000000000000e+00  0.0000000000000000e+00  0.0000000000000000e+00  0.0000000000000000e+00  0.0000000000000000e+00  0.0000000000000000e+00  0.0000000000000000e+00  0.0000000000000000e+00  0.0000000000000000e+00  0.0000000000000000e+00  0.0000000000000000e+00  0.0000000000000000e+00  0.0000000000000000e+00  0.0000000000000000e+00  0.0000000000000000e+00  0.0000000000000000e+00  0.0000000000000000e+00  0.0000000000000000e+00  0.0000000000000000e+00  0.0000000000000000e+00  0.0000000000000000e+00  0.0000000000000000e+00  0.0000000000000000e+00  0.0000000000000000e+00  0.0000000000000000e+00  0.0000000000000000e+00  0.0000000000000000e+00  0.0000000000000000e+00  0.0000000000000000e+00  0.0000000000000000e+00  0.0000000000000000e+00  0.0000000000000000e+00  0.0000000000000000e+00  0.0000000000000000e+00  0.0000000000000000e+00  0.0000000000000000e+00  0.0000000000000000e+00  0.0000000000000000e+00  0.0000000000000000e+00  0.0000000000000000e+00  0.0000000000000000e+00  0.0000000000000000e+00  0.0000000000000000e+00  0.0000000000000000e+00  0.0000000000000000e+00  0.0000000000000000e+00  0.0000000000000000e+00  0.0000000000000000e+00  0.0000000000000000e+00  0.0000000000000000e+00  0.0000000000000000e+00  0.0000000000000000e+00  0.0000000000000000e+00  0.0000000000000000e+00  0.0000000000000000e+00  0.0000000000000000e+00  0.0000000000000000e+00  0.0000000000000000e+00  0.0000000000000000e+00  0.0000000000000000e+00  0.0000000000000000e+00  0.0000000000000000e+00  0.0000000000000000e+00  0.0000000000000000e+00  0.0000000000000000e+00  0.0000000000000000e+00  0.0000000000000000e+00  0.0000000000000000e+00  0.0000000000000000e+00  0.0000000000000000e+00  8.2935694451464048e-01  8.3808090055213058e-01  8.7331193373376892e-01  8.7238415309271322e-01  8.5116918316132406e-01  8.1034285571094544e-01  8.1844175301932409e-01  8.5970473195057162e-01  8.4397497823292700e-01  8.0745573057739262e-01  8.2357419378100172e-01  8.3232769274774732e-01  7.9832928891754573e-01  8.4666804700289078e-01  8.4108197109861682e-01  8.4472162679465823e-01  8.6720253420421778e-01  8.3740421025142131e-01  8.2702143089934255e-01  8.4729125323589061e-01  8.3730037341457708e-01  8.4351311126401651e-01  8.3643605004089039e-01  8.2010404098045853e-01  8.3713664504985863e-01  8.5570489020276852e-01  8.3174159882268173e-01  8.4275379364449154e-01  8.6518788514937028e-01  8.5399071129433290e-01  8.4221981073785668e-01  8.3876163650698399e-01  8.4834281074019124e-01  7.9125319008964312e-01  8.4621457570135428e-01  8.2763799606435151e-01  8.4315242717116123e-01  8.1966416976829837e-01  8.2149362777971746e-01  8.4543365276258176e-01  8.7929210771377653e-01  8.0936472769382029e-01  8.5017305513460095e-01  8.2231827688737069e-01  8.3042117141985738e-01  8.4329492979765508e-01  7.7458142203778391e-01  8.0632836309948119e-01  8.3761114089156485e-01  8.2716813700934533e-01  8.4363184934397073e-01  8.5798628029899338e-01  8.4313028358677511e-01  8.1535266515979088e-01  8.3297395055715184e-01  8.3923673843403990e-01  8.5650519489569588e-01  8.3889054672473784e-01  7.9359453899772914e-01  8.2732713397290591e-01  8.3248555237150446e-01  8.2254609363058739e-01  -1.3730048162119597e-31  1.0069851560475812e-31  1.9569127573223401e-34  3.3290843188291935e-34  1.6941079414201826e-31  2.3170348688886272e-31  2.7870339181823185e-36  -2.8294497186146783e-35  -2.6787556096050897e-31  -9.6283980074072611e-32  4.5996512882336520e-32  6.4910393835355728e-32  3.5782796285386018e-32  4.2675738219590706e-32  2.2278359363718191e-30  1.1930704940684699e-30  -3.5504472026250645e-30  1.3932222106454312e-31  -5.1381302738785001e-30  -7.1793195999914473e-30  -1.1857518885386752e-30  -1.2940196162259137e-30  -3.4425336556365378e-30  -4.2934829098653174e-30  -2.5274745074567585e-30  -1.8790359884916654e-30  -6.0581751289719017e-29  1.1232665530380694e-29  -2.8690237382555372e-29  -1.5003273938591243e-28  5.3604122228757845e-30  -1.2424639073359346e-30  -3.1709156396253940e-36  2.1543164342686139e-36  1.7194368939031620e-36  -3.1374266986019615e-36  3.0742688507164262e-33  2.0117133188235784e-33  1.6923617822126901e-33  1.9972949949213032e-33  -6.7924069213560086e-28  7.2708965386328687e-30  -3.1555249322340972e-31  1.1633760480255538e-27  6.9976549995904481e-36  4.1629354898507369e-36  9.1386413661983156e-36  -2.8731689147637584e-38  1.0419520043199988e-39  -3.1463578296444043e-38  1.0713884831239972e-38  -1.7228585837951247e-36  5.8607549504794897e-40  -1.1073693541308341e-37  -2.5119863662386143e-38  -9.7304345359122531e-40  -1.1761197503483740e-37  8.4271182621841837e-40  -6.5524469238383812e-38  -1.3091339746805553e-39  -2.7213206930380308e-40  -3.4425565441512663e-40  -2.8049594017024937e-40  -9.5241356002992346e-42  -1.5234800147333912e-42  3.1306356948710528e-41  4.0347669811022360e-41  -3.5962717611825017e-40  1.1183280394176726e-27  1.5160277877546751e-30  -9.1946992758153756e-31  1.0432562752136911e-27  1.9726624209832129e-30  1.0824130055259561e-30  5.1869572992241828e-30  4.7822726618153196e-30  1.1503637259357264e-30  1.1345242697346447e-30  -9.1150943877470264e-31  -6.5191565303111963e-30  -1.1430397392203953e-30  -3.2368778329030395e-31  2.2544895975362544e-29  3.7119409334118884e-29  -2.2520284829976577e-31  1.1860814900397718e-30  -8.3943151117950908e-31  5.0091290227352875e-31  -1.4292890404304217e-30  -1.1015743919046810e-30  -1.1423019632652084e-32  -1.0458541240151364e-32  -2.8270174202967644e-31  -3.1609435373833727e-31  5.9614294849530980e-33  5.8858193213864284e-33  2.7189566429566167e-35  -1.1351298938778805e-32  1.8639655371115288e-32  -2.7505518864957129e-35  6.3270135212816069e-33  -2.7320939791450558e-35  2.5391577870573680e-35  2.5328019928272245e-32  1.5119348575067197e-42  5.5140631352269338e-42  -1.1202670331297339e-42  -2.2770004015912687e-42  -5.9596464885092641e-43  -1.6625686054762547e-42  2.4418666069370888e-42  1.8002439966221144e-42  2.2006741041831566e-28  1.0869331417243444e-29  1.9568420949176998e-30  1.1819875404168805e-27  4.2601511720152280e-32  -1.3087209065003212e-33  -1.5248001398581644e-33  -1.1856009094538913e-31  1.5134051777210196e-33  1.1916120336730892e-31  2.0484737877879055e-31  1.3785405146803169e-33  -4.2515213028523732e-37  -6.6104895869376340e-34  -2.9942263396790044e-34  -4.0852649813943658e-39  -3.4628034672109310e-37  -8.7354803474122110e-36  -4.0899098948640422e-34  1.0152147796818767e-37  2.2617530235469581e-39  -1.3448090975150763e-40  -1.1964258127535309e-36  -2.2795980217612597e-39  -4.6335016000980883e-37  -2.1550995772652945e-39  7.1560339008349049e-39  -7.7999279545820017e-41  -5.7754352559896745e-37  -3.1313399306854496e-39  6.5773884026289137e-41  -1.1869109525825813e-40  6.6822644477626458e-39  -3.7606187422236378e-41  -2.9681641457161600e-37  -2.9633414844424758e-39  -5.6804323463892212e-43  2.4649399191575434e-43  -3.6303472400022061e-43  -8.5110645595858652e-43  -2.9471964925413063e-28  4.3670731680405012e-29  -1.4543081686493100e-27  3.4801007472777494e-27  5.8624835674818561e-27  -2.0972976010075751e-26  -1.7766564318435811e-26  8.2980374776267751e-26  3.8305365061125186e-26  -2.4821940027536188e-25  -2.9218624687641698e-26  5.2131877494009165e-25  -2.2810113683055657e-25  -3.4125035528025069e-25  1.5471651249524513e-24  -3.4390187852963862e-24  -6.1322065494035030e-24  2.2221107467240202e-23  1.7980915913437971e-23  -8.6354291987044098e-23  -3.7731796108624253e-23  -5.1614995855031362e-23  2.4952912115850355e-22  3.2989578869760180e-23  -5.0850830600674944e-22  1.5504775467367839e-22  3.5117268292137186e-22  -9.5248329655506089e-22  2.4752269669915382e-21  2.9098773062976041e-21  -1.3775368017058039e-20  -4.8094984912994578e-21  3.3722606886760834e-21  3.9874774307891835e-20  -3.1387922022504237e-21  -5.6169181914221671e-20  4.8134128604433841e-20  -8.4682888067672334e-20  -1.5067687456545519e-19  7.3384996216807819e-19  1.6786230282163349e-19  -1.9388674999578258e-18  5.1464409380265910e-19  -1.7888491594838216e-18  1.1399047287588010e-18  -2.6704373840697512e-18  9.8865018515388146e-18  3.9706247843747836e-18  1.2367893512670852e-19  -2.8012102659967134e-18  6.8729500201225761e-18  5.4774140760749430e-18  -1.4227417655846366e-19  -2.7704368457180211e-18  5.6837292569628604e-19  -1.5471816413781386e-19  5.4675619533089679e-18  -2.7221149508464683e-18  5.2731784289025417e-19  7.1548287642433572e-20  -1.6103856916964875e-19  3.9857183879659650e-19  -2.4736279962538450e-18  3.6310753280333886e-19  -1.6522634127628258e-19  2.1064659862478502e-19  -1.8508190917578181e-18  5.2027949298522025e-19  -1.3768855699268976e-19  3.7327577871792717e-20  -1.0712231580959469e-18  5.2636822093162267e-19  -1.7167144584773918e-18  2.8876637139081800e-20  -2.1851850908396752e-19  4.2607664594777775e-18  -2.0171784230586662e-18  6.1927900340604757e-18  1.1072868488769539e-18  -2.2792833519083454e-17  1.3387866039946707e-17  -7.1924936314863661e-17  -1.7990681453391605e-18  2.0394235777562166e-17  -4.7562855296563679e-17  -7.8264014342071426e-18  1.4045995974791040e-16  -7.3823743504052288e-17  3.8937842341879819e-16  -1.1779840274910179e-16  4.0662849829003541e-16  -7.2185563144674899e-17  7.8360677971568804e-17  3.1643739197303620e-17  -2.5861593601138140e-16  2.8364746500677109e-17  9.5137893146485660e-18  -2.3942963841766468e-01  7.4928657898435178e-17  -1.9827418249968414e-16  7.3920397075566447e-18  1.6328129046058714e-16  -2.5186823885379883e-01  -8.1790583350641373e-17  3.7539669612773297e-16  -2.3606487391396963e-01  -9.3226906931043480e-17  2.5914066978045275e-16  -1.3131693672601186e-15  -5.1977278797816760e-16  3.6586195108289187e-17  1.4060514175858934e-16  -1.6726451997800320e-15  2.6255078435942097e-17  -6.9207663729248924e-17  2.6452630949466754e-16  -9.7696610778046380e-16  -7.4506706157455309e-16  1.2056357088215133e-16  -1.7520678590273056e-16  1.6052834490078608e-15  -3.3397431565925411e-18  7.0075133349145469e-17  -2.5979796964578905e-16  1.0371559825518911e-15  3.9910968463878848e-16  1.9083504239373001e-17  -3.3999708350957559e-16  6.6474206849935340e-16  9.4332545102719976e-16  -6.0886623466369616e-17  -4.1044923899479654e-16  -4.4236219368855965e-17  1.7002653941071950e-15  -1.9550825225090109e-16  -3.8321762388583236e-16  -1.3406900008012288e-15  2.2895647876833683e-15  -9.2678684880307822e-15  -2.0270988922399500e-15  -3.9678456606288074e-16  2.5813086481608686e-15  -1.0950220265908947e-14  -1.1992668116684647e-15  -5.6556274066781292e-16  2.3772954671558470e-15  -1.2499647512397108e-14  1.0500958327547029e-15  1.3948229096276654e-14  -1.0731080400696402e-14  4.7691345256469239e-14  -2.6503995264214776e-15  2.8759957017953336e-15  -4.5554245140533150e-15  3.2853830980333260e-14  -8.1245016029841723e-15  4.9218475231661837e-15  1.3403588274950581e-14  -9.8261741365158650e-14  2.8319826503509291e-14  -4.9836815438754765e-14  -2.5327996212929038e-14  -2.7564617861546091e-15  2.0589139721096978e-14  -1.3086709204305150e-13  4.6914164553558579e-14  -2.0617490507494793e-13  5.9344154478932488e-14  -2.2831795080105749e-13  6.3194897533655342e-14  -2.4560640668219343e-13  7.0531870883572601e-14  -2.8163993006580458e-13  8.0220440064427969e-14  -3.0725633601440876e-13  8.0505978112039018e-14  -2.7365786735347093e-13  6.0052985724413966e-14  -1.5833862599091040e-13  2.3065382821365463e-14  -1.9825918324382689e-14  -6.8052773243692084e-15  4.8070282187452628e-14  -1.2196223030461717e-14  2.9350910664616294e-14  -2.9957830098661684e-15  -3.4097629374619677e-15  2.1936003943983826e-15  -1.2301633995454428e-16  -2.5160871357243298e-16  1.3923181467277923e-16  -4.5134020939387828e-19  -3.5480789107509080e-17  8.8790353188592128e-18  5.0594735054327947e-18  -2.5559451832070261e-18  -1.1170334978436731e-19  -2.8916158771085965e-18  4.1495222189379023e-19  -1.6496950943349487e-14  8.1000844105647312e-19  -1.5943634210377053e-18  4.5235307325638426e-20  8.1964191716819976e-19  -2.1918469299209678e-19  3.6763329745454368e-19  7.2714044369304590e-22 