<?xml version="1.0"?>
<VTKFile type="UnstructuredGrid"  version="0.1"  >
<UnstructuredGrid>
<Piece  NumberOfPoints="11902" NumberOfCells="23402">
<Points>
<DataArray  type="Float64"  NumberOfComponents="3"  format="ascii">-5 -5 0  5 -5 0  5 5 0  -5 5 0  1.256579332779437 0.001349686648796464 0  -4.9 -5 0  -4.8 -5 0  -4.7 -5 0  -4.6 -5 0  -4.5 -5 0  -4.4 -5 0  -4.3 -5 0  -4.2 -5 0  -4.1 -5 0  -4 -5 0  -3.9 -5 0  -3.8 -5 0  -3.7 -5 0  -3.6 -5 0  -3.5 -5 0  -3.4 -5 0  -3.3 -5 0  -3.2 -5 0  -3.1 -5 0  -3 -5 0  -2.9 -5 0  -2.8 -5 0  -2.7 -5 0  -2.6 -5 0  -2.5 -5 0  -2.4 -5 0  -2.3 -5 0  -2.2 -5 0  -2.1 -5 0  -2 -5 0  -1.9 -5 0  -1.8 -5 0  -1.7 -5 0  -1.6 -5 0  -1.5 -5 0  -1.4 -5 0  -1.3 -5 0  -1.2 -5 0  -1.1 -5 0  -1 -5 0  -0.9000000000000004 -5 0  -0.7999999999999998 -5 0  -0.7000000000000002 -5 0  -0.5999999999999996 -5 0  -0.5 -5 0  -0.4000000000000004 -5 0  -0.2999999999999998 -5 0  -0.2000000000000002 -5 0  -0.09999999999999964 -5 0  0 -5 0  0.09999999999999964 -5 0  0.2000000000000002 -5 0  0.2999999999999998 -5 0  0.4000000000000004 -5 0  0.5 -5 0  0.5999999999999996 -5 0  0.7000000000000002 -5 0  0.7999999999999998 -5 0  0.9000000000000004 -5 0  1 -5 0  1.1 -5 0  1.2 -5 0  1.3 -5 0  1.4 -5 0  1.5 -5 0  1.6 -5 0  1.7 -5 0  1.8 -5 0  1.9 -5 0  2 -5 0  2.1 -5 0  2.2 -5 0  2.3 -5 0  2.4 -5 0  2.5 -5 0  2.6 -5 0  2.7 -5 0  2.8 -5 0  2.9 -5 0  3 -5 0  3.1 -5 0  3.199999999999999 -5 0  3.300000000000001 -5 0  3.4 -5 0  3.5 -5 0  3.6 -5 0  3.699999999999999 -5 0  3.800000000000001 -5 0  3.9 -5 0  4 -5 0  4.1 -5 0  4.199999999999999 -5 0  4.300000000000001 -5 0  4.4 -5 0  4.5 -5 0  4.6 -5 0  4.699999999999999 -5 0  4.800000000000001 -5 0  4.9 -5 0  5 -4.9 0  5 -4.8 0  5 -4.7 0  5 -4.6 0  5 -4.5 0  5 -4.4 0  5 -4.3 0  5 -4.2 0  5 -4.1 0  5 -4 0  5 -3.9 0  5 -3.8 0  5 -3.7 0  5 -3.6 0  5 -3.5 0  5 -3.4 0  5 -3.3 0  5 -3.2 0  5 -3.1 0  5 -3 0  5 -2.9 0  5 -2.8 0  5 -2.7 0  5 -2.6 0  5 -2.5 0  5 -2.4 0  5 -2.3 0  5 -2.2 0  5 -2.1 0  5 -2 0  5 -1.9 0  5 -1.8 0  5 -1.7 0  5 -1.6 0  5 -1.5 0  5 -1.4 0  5 -1.3 0  5 -1.2 0  5 -1.1 0  5 -1 0  5 -0.9000000000000004 0  5 -0.7999999999999998 0  5 -0.7000000000000002 0  5 -0.5999999999999996 0  5 -0.5 0  5 -0.4000000000000004 0  5 -0.2999999999999998 0  5 -0.2000000000000002 0  5 -0.09999999999999964 0  5 0 0  5 0.09999999999999964 0  5 0.2000000000000002 0  5 0.2999999999999998 0  5 0.4000000000000004 0  5 0.5 0  5 0.5999999999999996 0  5 0.7000000000000002 0  5 0.7999999999999998 0  5 0.9000000000000004 0  5 1 0  5 1.1 0  5 1.2 0  5 1.3 0  5 1.4 0  5 1.5 0  5 1.6 0  5 1.7 0  5 1.8 0  5 1.9 0  5 2 0  5 2.1 0  5 2.2 0  5 2.3 0  5 2.4 0  5 2.5 0  5 2.6 0  5 2.7 0  5 2.8 0  5 2.9 0  5 3 0  5 3.1 0  5 3.199999999999999 0  5 3.300000000000001 0  5 3.4 0  5 3.5 0  5 3.6 0  5 3.699999999999999 0  5 3.800000000000001 0  5 3.9 0  5 4 0  5 4.1 0  5 4.199999999999999 0  5 4.300000000000001 0  5 4.4 0  5 4.5 0  5 4.6 0  5 4.699999999999999 0  5 4.800000000000001 0  5 4.9 0  4.9 5 0  4.8 5 0  4.7 5 0  4.6 5 0  4.5 5 0  4.4 5 0  4.3 5 0  4.2 5 0  4.1 5 0  4 5 0  3.9 5 0  3.8 5 0  3.7 5 0  3.6 5 0  3.5 5 0  3.4 5 0  3.3 5 0  3.2 5 0  3.1 5 0  3 5 0  2.9 5 0  2.8 5 0  2.7 5 0  2.6 5 0  2.5 5 0  2.4 5 0  2.3 5 0  2.2 5 0  2.1 5 0  2 5 0  1.9 5 0  1.8 5 0  1.7 5 0  1.6 5 0  1.5 5 0  1.4 5 0  1.3 5 0  1.2 5 0  1.1 5 0  1 5 0  0.9000000000000004 5 0  0.7999999999999998 5 0  0.7000000000000002 5 0  0.5999999999999996 5 0  0.5 5 0  0.4000000000000004 5 0  0.2999999999999998 5 0  0.2000000000000002 5 0  0.09999999999999964 5 0  0 5 0  -0.09999999999999964 5 0  -0.2000000000000002 5 0  -0.2999999999999998 5 0  -0.4000000000000004 5 0  -0.5 5 0  -0.5999999999999996 5 0  -0.7000000000000002 5 0  -0.7999999999999998 5 0  -0.9000000000000004 5 0  -1 5 0  -1.1 5 0  -1.2 5 0  -1.3 5 0  -1.4 5 0  -1.5 5 0  -1.6 5 0  -1.7 5 0  -1.8 5 0  -1.9 5 0  -2 5 0  -2.1 5 0  -2.2 5 0  -2.3 5 0  -2.4 5 0  -2.5 5 0  -2.6 5 0  -2.7 5 0  -2.8 5 0  -2.9 5 0  -3 5 0  -3.1 5 0  -3.199999999999999 5 0  -3.300000000000001 5 0  -3.4 5 0  -3.5 5 0  -3.6 5 0  -3.699999999999999 5 0  -3.800000000000001 5 0  -3.9 5 0  -4 5 0  -4.1 5 0  -4.199999999999999 5 0  -4.300000000000001 5 0  -4.4 5 0  -4.5 5 0  -4.6 5 0  -4.699999999999999 5 0  -4.800000000000001 5 0  -4.9 5 0  -5 4.9 0  -5 4.8 0  -5 4.7 0  -5 4.6 0  -5 4.5 0  -5 4.4 0  -5 4.3 0  -5 4.2 0  -5 4.1 0  -5 4 0  -5 3.9 0  -5 3.8 0  -5 3.7 0  -5 3.6 0  -5 3.5 0  -5 3.4 0  -5 3.3 0  -5 3.2 0  -5 3.1 0  -5 3 0  -5 2.9 0  -5 2.8 0  -5 2.7 0  -5 2.6 0  -5 2.5 0  -5 2.4 0  -5 2.3 0  -5 2.2 0  -5 2.1 0  -5 2 0  -5 1.9 0  -5 1.8 0  -5 1.7 0  -5 1.6 0  -5 1.5 0  -5 1.4 0  -5 1.3 0  -5 1.2 0  -5 1.1 0  -5 1 0  -5 0.9000000000000004 0  -5 0.7999999999999998 0  -5 0.7000000000000002 0  -5 0.5999999999999996 0  -5 0.5 0  -5 0.4000000000000004 0  -5 0.2999999999999998 0  -5 0.2000000000000002 0  -5 0.09999999999999964 0  -5 0 0  -5 -0.09999999999999964 0  -5 -0.2000000000000002 0  -5 -0.2999999999999998 0  -5 -0.4000000000000004 0  -5 -0.5 0  -5 -0.5999999999999996 0  -5 -0.7000000000000002 0  -5 -0.7999999999999998 0  -5 -0.9000000000000004 0  -5 -1 0  -5 -1.1 0  -5 -1.2 0  -5 -1.3 0  -5 -1.4 0  -5 -1.5 0  -5 -1.6 0  -5 -1.7 0  -5 -1.8 0  -5 -1.9 0  -5 -2 0  -5 -2.1 0  -5 -2.2 0  -5 -2.3 0  -5 -2.4 0  -5 -2.5 0  -5 -2.6 0  -5 -2.7 0  -5 -2.8 0  -5 -2.9 0  -5 -3 0  -5 -3.1 0  -5 -3.199999999999999 0  -5 -3.300000000000001 0  -5 -3.4 0  -5 -3.5 0  -5 -3.6 0  -5 -3.699999999999999 0  -5 -3.800000000000001 0  -5 -3.9 0  -5 -4 0  -5 -4.1 0  -5 -4.199999999999999 0  -5 -4.300000000000001 0  -5 -4.4 0  -5 -4.5 0  -5 -4.6 0  -5 -4.699999999999999 0  -5 -4.800000000000001 0  -5 -4.9 0  1.248595792802613 0.0951337222894187 0  1.227107964856496 0.1926246634815305 0  1.193730733723957 0.2891252793225094 0  1.150909585746839 0.3780108102077177 0  1.093235108983507 0.4687789999864024 0  1.027678675628163 0.5531796942902311 0  0.9495814251854253 0.6330779641920289 0  0.8630142889395133 0.7075640316625234 0  0.7712916649402779 0.7729805981684359 0  0.6689911527703305 0.8303559978243163 0  0.5575825007846491 0.8826461480655858 0  0.4452892755806503 0.9268508808529836 0  0.3327250408872612 0.9591695191826691 0  0.2086342625138724 0.980721612206559 0  0.08912081430386076 0.999531727538379 0  -0.02721296741698046 1.002786030772613 0  -0.1449543882721689 0.9891747982862655 0  -0.2715940115468847 0.9703657614646009 0  -0.3906656980283487 0.9460314898911493 0  -0.5014488886348053 0.9099126357549681 0  -0.6106106319405554 0.8634728819058743 0  -0.7127786535977487 0.8089088589707348 0  -0.8073937493676844 0.7440932394551163 0  -0.8981474610925195 0.6708240371724912 0  -0.9833486259691209 0.5912409352204105 0  -1.057303215024247 0.5101570284579534 0  -1.118998849664459 0.4246488512382563 0  -1.171795853594634 0.3325542426791702 0  -1.20977185477421 0.2428244875175162 0  -1.234267125650028 0.1485361957219103 0  -1.245532415869198 0.05139080242059244 0  -1.245482138006438 -0.04929741188216285 0  -1.234231174334905 -0.1457001791526324 0  -1.209457498801676 -0.238491419701334 0  -1.168406359173029 -0.3332958352086237 0  -1.119319301995377 -0.424907160907304 0  -1.058914743288604 -0.50995756141242 0  -0.9857351758362104 -0.5902133807268117 0  -0.9011603584164867 -0.6686495609455904 0  -0.8108541564716716 -0.7401954623513518 0  -0.7148992526273756 -0.8012101633714241 0  -0.6103025544604678 -0.8543223687403821 0  -0.4969349948455513 -0.9037428583658691 0  -0.3841043140887543 -0.9434227048426794 0  -0.268323838584018 -0.969999672154889 0  -0.1435207959756738 -0.9889251862654683 0  -0.02794012270714932 -1.0019844912072 0  0.08861316337512211 -0.9948319414017913 0  0.2138317410307639 -0.9774427286591083 0  0.3352040948684977 -0.9576023813113967 0  0.4494215116777313 -0.9255244369143842 0  0.5599374183424081 -0.8818261337363617 0  0.6699157634552568 -0.8304207345482323 0  0.7712596389428857 -0.7741069142369762 0  0.8631201866280568 -0.7085633958606006 0  0.9487699143134328 -0.6331490285267779 0  1.025074856387053 -0.5522311124427486 0  1.093869652120166 -0.4677138555518611 0  1.151772327385682 -0.3782885273156661 0  1.19548042498633 -0.2871135217653724 0  1.227761687091228 -0.1917528640779118 0  1.248918170669232 -0.09487043134289116 0  -2.448563504256104 4.918117857689361 0  -2.448437878074723 -4.910496533587937 0  4.910420947697915 2.447895233261477 0  4.918547309060286 -2.449356710131256 0  2.446167927157037 -4.8957284713344 0  2.44060140743999 4.899491106259029 0  -4.910447947635619 -2.447921584184177 0  -4.910445235267433 2.447925494413838 0  -1.748517675182745 4.911007588818731 0  -1.744304254958267 -4.914448947365218 0  4.920597466265721 1.744069996771271 0  4.909126096415977 -1.747831076384182 0  -4.909420323811901 -1.747565336469838 0  -4.910242911828719 1.747310197635001 0  1.745790651410921 4.904863488277062 0  1.747203852036788 -4.893006923240434 0  -1.148828202568678 4.908789657602408 0  -1.129686002787647 -4.916707647703404 0  -4.909130288440751 -1.147893926471417 0  -4.908948496796096 1.147694321567766 0  1.143823679620753 -4.912890519222844 0  1.148838163156458 4.90877630075582 0  4.909269993445744 1.146169168773613 0  4.920108974867834 -1.151955051711703 0  -0.5466619994124535 -4.909977431499431 0  -0.5464452874931471 4.918666727778278 0  -4.907856667815077 -0.548689666007701 0  -4.90788063214018 0.5472474301524465 0  4.907174991627037 -0.5490077535195907 0  4.918841947914141 0.5457675830796338 0  0.5424436390080428 -4.89684746830758 0  0.5511738063162427 4.915487577794673 0  -4.911876873547619 -3.048279802110661 0  4.918448985240169 3.046296878764669 0  4.911384502432481 -3.048255326826428 0  -4.912724777685534 3.045371494083154 0  3.055289457988584 -4.91737197418851 0  -3.04861947016566 -4.911306754511266 0  3.052186997596406 4.91338489051765 0  -3.048065179366377 4.912196701400681 0  -4.90696245174404 -0.04990589672363903 0  0.04511935641793358 -4.91192719062841 0  0.04956696110126593 4.918958785808542 0  4.914023572164314 -0.05128808290819392 0  3.545610366002323 -4.919019291663539 0  -3.548890083800462 4.911
[...]
<PointData  Scalars="f_27"> 
<DataArray  type="Float64"  Name="f_27"  format="ascii">0.0000000000000000e+00  0.0000000000000000e+00  0.0000000000000000e+00  0.0000000000000000e+00  9.7334557412373479e-01  0.0000000000000000e+00  0.0000000000000000e+00  0.0000000000000000e+00  0.0000000000000000e+00  0.0000000000000000e+00  0.0000000000000000e+00  0.0000000000000000e+00  0.0000000000000000e+00  0.0000000000000000e+00  0.0000000000000000e+00  0.0000000000000000e+00  0.0000000000000000e+00  0.0000000000000000e+00  0.0000000000000000e+00  0.0000000000000000e+00  0.0000000000000000e+00  0.0000000000000000e+00  0.0000000000000000e+00  0.0000000000000000e+00  0.0000000000000000e+00  0.0000000000000000e+00  0.0000000000000000e+00  0.0000000000000000e+00  0.0000000000000000e+00  0.0000000000000000e+00  0.0000000000000000e+00  0.0000000000000000e+00  0.0000000000000000e+00  0.0000000000000000e+00  0.0000000000000000e+00  0.0000000000000000e+00  0.0000000000000000e+00  0.0000000000000000e+00  0.0000000000000000e+00  0.0000000000000000e+00  0.0000000000000000e+00  0.0000000000000000e+00  0.0000000000000000e+00  0.0000000000000000e+00  0.0000000000000000e+00  0.0000000000000000e+00  0.0000000000000000e+00  0.0000000000000000e+00  0.0000000000000000e+00  0.0000000000000000e+00  0.0000000000000000e+00  0.0000000000000000e+00  0.0000000000000000e+00  0.0000000000000000e+00  0.0000000000000000e+00  0.0000000000000000e+00  0.0000000000000000e+00  0.0000000000000000e+00  0.0000000000000000e+00  0.0000000000000000e+00  0.0000000000000000e+00  0.0000000000000000e+00  0.0000000000000000e+00  0.0000000000000000e+00  0.0000000000000000e+00  0.0000000000000000e+00  0.0000000000000000e+00  0.0000000000000000e+00  0.0000000000000000e+00  0.0000000000000000e+00  0.0000000000000000e+00  0.0000000000000000e+00  0.0000000000000000e+00  0.0000000000000000e+00  0.0000000000000000e+00  0.0000000000000000e+00  0.0000000000000000e+00  0.0000000000000000e+00  0.0000000000000000e+00  0.0000000000000000e+00  0.0000000000000000e+00  0.0000000000000000e+00  0.0000000000000000e+00  0.0000000000000000e+00  0.0000000000000000e+00  0.0000000000000000e+00  0.0000000000000000e+00  0.0000000000000000e+00  0.0000000000000000e+00  0.0000000000000000e+00  0.0000000000000000e+00  0.0000000000000000e+00  0.0000000000000000e+00  0.0000000000000000e+00  0.0000000000000000e+00  0.0000000000000000e+00  0.0000000000000000e+00  0.0000000000000000e+00  0.0000000000000000e+00  0.0000000000000000e+00  0.0000000000000000e+00  0.0000000000000000e+00  0.0000000000000000e+00  0.0000000000000000e+00  0.0000000000000000e+00  0.0000000000000000e+00  0.0000000000000000e+00  0.0000000000000000e+00  0.0000000000000000e+00  0.0000000000000000e+00  0.0000000000000000e+00  0.0000000000000000e+00  0.0000000000000000e+00  0.0000000000000000e+00  0.0000000000000000e+00  0.0000000000000000e+00  0.0000000000000000e+00  0.0000000000000000e+00  0.0000000000000000e+00  0.0000000000000000e+00  0.0000000000000000e+00  0.0000000000000000e+00  0.0000000000000000e+00  0.0000000000000000e+00  0.0000000000000000e+00  0.0000000000000000e+00  0.0000000000000000e+00  0.0000000000000000e+00  0.0000000000000000e+00  0.0000000000000000e+00  0.0000000000000000e+00  0.0000000000000000e+00  0.0000000000000000e+00  0.0000000000000000e+00  0.0000000000000000e+00  0.0000000000000000e+00  0.0000000000000000e+00  0.0000000000000000e+00  0.0000000000000000e+00  0.0000000000000000e+00  0.0000000000000000e+00  0.0000000000000000e+00  0.0000000000000000e+00  0.0000000000000000e+00  0.0000000000000000e+00  0.0000000000000000e+00  0.0000000000000000e+00  0.0000000000000000e+00  0.0000000000000000e+00  0.0000000000000000e+00  0.0000000000000000e+00  0.0000000000000000e+00  0.0000000000000000e+00  0.0000000000000000e+00  0.0000000000000000e+00  0.0000000000000000e+00  0.0000000000000000e+00  0.0000000000000000e+00  0.0000000000000000e+00  0.0000000000000000e+00  0.0000000000000000e+00  0.0000000000000000e+00  0.0000000000000000e+00  0.0000000000000000e+00  0.0000000000000000e+00  0.0000000000000000e+00  0.0000000000000000e+00  0.0000000000000000e+00  0.0000000000000000e+00  0.0000000000000000e+00  0.0000000000000000e+00  0.0000000000000000e+00  0.0000000000000000e+00  0.0000000000000000e+00  0.0000000000000000e+00  0.0000000000000000e+00  0.0000000000000000e+00  0.0000000000000000e+00  0.0000000000000000e+00  0.0000000000000000e+00  0.0000000000000000e+00  0.0000000000000000e+00  0.0000000000000000e+00  0.0000000000000000e+00  0.0000000000000000e+00  0.0000000000000000e+00  0.0000000000000000e+00  0.0000000000000000e+00  0.0000000000000000e+00  0.0000000000000000e+00  0.0000000000000000e+00  0.0000000000000000e+00  0.0000000000000000e+00  0.0000000000000000e+00  0.0000000000000000e+00  0.0000000000000000e+00  0.0000000000000000e+00  0.0000000000000000e+00  0.0000000000000000e+00  0.0000000000000000e+00  0.0000000000000000e+00  0.0000000000000000e+00  0.0000000000000000e+00  0.0000000000000000e+00  0.0000000000000000e+00  0.0000000000000000e+00  0.0000000000000000e+00  0.0000000000000000e+00  0.0000000000000000e+00  0.0000000000000000e+00  0.0000000000000000e+00  0.0000000000000000e+00  0.0000000000000000e+00  0.0000000000000000e+00  0.0000000000000000e+00  0.0000000000000000e+00  0.0000000000000000e+00  0.0000000000000000e+00  0.0000000000000000e+00  0.0000000000000000e+00  0.0000000000000000e+00  0.0000000000000000e+00  0.0000000000000000e+00  0.0000000000000000e+00  0.0000000000000000e+00  0.0000000000000000e+00  0.0000000000000000e+00  0.0000000000000000e+00  0.0000000000000000e+00  0.0000000000000000e+00  0.0000000000000000e+00  0.0000000000000000e+00  0.0000000000000000e+00  0.0000000000000000e+00  0.0000000000000000e+00  0.0000000000000000e+00  0.0000000000000000e+00  0.0000000000000000e+00  0.0000000000000000e+00  0.0000000000000000e+00  0.0000000000000000e+00  0.0000000000000000e+00  0.0000000000000000e+00  0.0000000000000000e+00  0.0000000000000000e+00  0.0000000000000000e+00  0.0000000000000000e+00  0.0000000000000000e+00  0.0000000000000000e+00  0.0000000000000000e+00  0.0000000000000000e+00  0.0000000000000000e+00  0.0000000000000000e+00  0.0000000000000000e+00  0.0000000000000000e+00  0.0000000000000000e+00  0.0000000000000000e+00  0.0000000000000000e+00  0.0000000000000000e+00  0.0000000000000000e+00  0.0000000000000000e+00  0.0000000000000000e+00  0.0000000000000000e+00  0.0000000000000000e+00  0.0000000000000000e+00  0.0000000000000000e+00  0.0000000000000000e+00  0.0000000000000000e+00  0.0000000000000000e+00  0.0000000000000000e+00  0.0000000000000000e+00  0.0000000000000000e+00  0.0000000000000000e+00  0.0000000000000000e+00  0.0000000000000000e+00  0.0000000000000000e+00  0.0000000000000000e+00  0.0000000000000000e+00  0.0000000000000000e+00  0.0000000000000000e+00  0.0000000000000000e+00  0.0000000000000000e+00  0.0000000000000000e+00  0.0000000000000000e+00  0.0000000000000000e+00  0.0000000000000000e+00  0.0000000000000000e+00  0.0000000000000000e+00  0.0000000000000000e+00  0.0000000000000000e+00  0.0000000000000000e+00  0.0000000000000000e+00  0.0000000000000000e+00  0.0000000000000000e+00  0.0000000000000000e+00  0.0000000000000000e+00  0.0000000000000000e+00  0.0000000000000000e+00  0.0000000000000000e+00  0.0000000000000000e+00  0.0000000000000000e+00  0.0000000000000000e+00  0.0000000000000000e+00  0.0000000000000000e+00  0.0000000000000000e+00  0.0000000000000000e+00  0.0000000000000000e+00  0.0000000000000000e+00  0.0000000000000000e+00  0.0000000000000000e+00  0.0000000000000000e+00  0.0000000000000000e+00  0.0000000000000000e+00  0.0000000000000000e+00  0.0000000000000000e+00  0.0000000000000000e+00  0.0000000000000000e+00  0.0000000000000000e+00  0.0000000000000000e+00  0.0000000000000000e+00  0.0000000000000000e+00  0.0000000000000000e+00  0.0000000000000000e+00  0.0000000000000000e+00  0.0000000000000000e+00  0.0000000000000000e+00  0.0000000000000000e+00  0.0000000000000000e+00  0.0000000000000000e+00  0.0000000000000000e+00  0.0000000000000000e+00  0.0000000000000000e+00  0.0000000000000000e+00  0.0000000000000000e+00  0.0000000000000000e+00  0.0000000000000000e+00  0.0000000000000000e+00  0.0000000000000000e+00  0.0000000000000000e+00  0.0000000000000000e+00  0.0000000000000000e+00  0.0000000000000000e+00  0.0000000000000000e+00  0.0000000000000000e+00  0.0000000000000000e+00  0.0000000000000000e+00  0.0000000000000000e+00  0.0000000000000000e+00  0.0000000000000000e+00  0.0000000000000000e+00  0.0000000000000000e+00  0.0000000000000000e+00  0.0000000000000000e+00  0.0000000000000000e+00  0.0000000000000000e+00  0.0000000000000000e+00  0.0000000000000000e+00  0.0000000000000000e+00  0.0000000000000000e+00  0.0000000000000000e+00  0.0000000000000000e+00  0.0000000000000000e+00  0.0000000000000000e+00  0.0000000000000000e+00  0.0000000000000000e+00  0.0000000000000000e+00  0.0000000000000000e+00  0.0000000000000000e+00  0.0000000000000000e+00  0.0000000000000000e+00  0.0000000000000000e+00  0.0000000000000000e+00  0.0000000000000000e+00  0.0000000000000000e+00  0.0000000000000000e+00  0.0000000000000000e+00  0.0000000000000000e+00  0.0000000000000000e+00  0.0000000000000000e+00  0.0000000000000000e+00  0.0000000000000000e+00  0.0000000000000000e+00  0.0000000000000000e+00  0.0000000000000000e+00  0.0000000000000000e+00  0.0000000000000000e+00  0.0000000000000000e+00  0.0000000000000000e+00  0.0000000000000000e+00  0.0000000000000000e+00  0.0000000000000000e+00  0.0000000000000000e+00  0.0000000000000000e+00  0.0000000000000000e+00  0.0000000000000000e+00  0.0000000000000000e+00  0.0000000000000000e+00  0.0000000000000000e+00  0.0000000000000000e+00  0.0000000000000000e+00  0.0000000000000000e+00  9.7372462784030500e-01  9.7856393751016024e-01  9.8113836208507954e-01  9.8357048911274592e-01  9.8077281962126717e-01  9.7197694480526509e-01  9.7616138491639393e-01  9.7911574100845389e-01  9.7656013352234450e-01  9.7450602899879135e-01  9.7730801491308494e-01  9.7332174145535399e-01  9.6918869308535183e-01  9.8030144566861332e-01  9.7495613881265430e-01  9.7245216398553946e-01  9.8168539245465003e-01  9.8200605896656457e-01  9.7152667528894487e-01  9.7688974396638983e-01  9.7703254424782260e-01  9.7578119148462783e-01  9.7578157168540058e-01  9.7629021153026352e-01  9.7813541177016317e-01  9.7780518984365106e-01  9.7774995529976794e-01  9.7951358405035538e-01  9.7894097616657549e-01  9.7919688284641282e-01  9.7989123800296940e-01  9.7793101683127581e-01  9.7519386169081357e-01  9.7149493025445288e-01  9.7736697750456258e-01  9.7377080158173379e-01  9.7584688586981971e-01  9.7555004233846665e-01  9.7657727633357594e-01  9.7559056783508802e-01  9.7947128856676235e-01  9.7316826628440356e-01  9.7869105277865509e-01  9.6922350819077274e-01  9.7885127599996968e-01  9.7828639759235481e-01  9.5289720059080985e-01  9.7486256951851202e-01  9.7883557191927462e-01  9.7256951020161608e-01  9.7510957242314134e-01  9.8075776308905782e-01  9.7803376922847662e-01  9.6764724354473497e-01  9.7629301966031290e-01  9.7897555466805442e-01  9.7854308507598475e-01  9.7932574872315814e-01  9.6968979972854641e-01  9.7373766369021764e-01  9.7591798769853988e-01  9.7508104705994270e-01  -1.7192318725348528e-32  1.9539244866966571e-32  2.3498695679953244e-35  5.2265403493092759e-35  2.6800191652348751e-32  4.2040426156596359e-32  7.5177416688068828e-36  3.1617694850150544e-36  -8.6392854566502242e-32  -4.2925693018530044e-32  4.4141495176380319e-33  1.0378691185560397e-32  7.1258431262500226e-33  8.1742574112566638e-33  5.1139105721481344e-31  2.6912398765408321e-31  -7.3182600034776196e-31  1.6198945730931580e-34  -9.5265195762787959e-31  -1.2890748273282984e-30  -2.2314140837369422e-31  -3.7666943029741522e-31  -4.0995199738039187e-31  -7.5392261497806376e-31  -3.0553239319220021e-31  -3.6738164159700235e-31  -2.6225329889758298e-29  -9.1562103197435143e-30  -1.2037425229834599e-30  -2.0370588595052115e-29  9.5066246628561771e-31  -3.5238621921733284e-31  -4.3205879618634520e-37  3.5282308584781566e-37  3.1915630187781703e-37  -4.4673637091649785e-37  4.8708103777525145e-34  2.7231127282578967e-34  3.3474924008851491e-34  3.2826769348336690e-34  -9.2477622005427894e-29  1.0401155367425622e-30  5.1332339284596983e-32  1.8215650497725578e-28  1.2998835315235562e-36  1.0197633354821408e-36  1.5062126280074188e-36  -3.9714140835471931e-39  -1.1495970297500579e-39  -4.8297474347602268e-39  2.4783082486675336e-40  7.7009693088227682e-38  1.1783409553863525e-40  -1.7585542996828176e-38  -1.0868613204915382e-39  -1.2135184780176746e-40  -1.8893811406343872e-38  1.3967068791910823e-40  -8.6783192119487213e-39  -1.6662865492115931e-40  -5.0504551025528056e-41  -5.4091509239729693e-41  -5.2218408485341409e-41  -2.1988539597896461e-42  -1.2801354838141543e-42  4.6263096789567141e-42  5.5859308074512678e-42  -4.9264939019940011e-41  1.6172430712977602e-28  3.3669890482140784e-31  -8.1427959287140276e-32  1.7036623996214923e-28  4.6066377720142434e-31  1.6008787018271075e-31  2.5023877769252060e-30  2.1716940459096382e-30  1.7404016017683010e-31  2.5085056775992662e-31  -1.7200581688244802e-31  -1.1321547008518324e-30  -2.9612113675845345e-31  -4.3778082922410401e-32  3.9960889819438576e-30  5.4641900017136536e-30  -3.0527851511518221e-32  2.7901867859917667e-31  -1.3569317049435928e-33  1.0341257450750680e-31  -2.1114673770301983e-31  -2.2910097599298480e-31  -1.6318724057672528e-33  -1.4998426416024392e-33  -4.4522486050544150e-32  -3.9128077312602830e-32  8.1487711785983294e-34  9.1911054337289301e-34  4.5613046063376499e-36  -1.3243142299913023e-33  4.4542338861730403e-33  -3.6516133627888600e-36  9.3312728305008765e-34  -3.4578745788853762e-36  3.7718860745773276e-36  3.9268496826920735e-33  1.9731567161872259e-43  8.4344997152237363e-43  -1.8256474667736698e-43  -2.0820299045505500e-43  -1.1721530030384713e-43  -6.6298239531791955e-44  3.0420484778546306e-43  2.3858738206116881e-43  4.1323807931042277e-29  1.7754496650727408e-30  6.8371161429546572e-31  2.0570712989873703e-28  3.2148664542609899e-33  -1.7234391079130920e-34  -2.4153856013130414e-34  -4.0987508990285246e-33  1.9991814646386101e-34  1.9737674787381949e-32  3.1423562878839151e-32  1.8161354987543812e-34  -6.6444932803902086e-38  -9.2462620610987579e-35  -3.9005342472519645e-35  -1.6290503912492440e-38  -4.7777764356725767e-38  6.2748230386713073e-36  -5.3755037919508526e-35  -3.4939842888255961e-40  1.1509862025903770e-40  -1.5884463003786132e-41  -1.5609214444609311e-37  -7.0853969322778208e-40  -2.0639058229582949e-38  -4.7524025827687646e-40  1.1942123841927470e-39  -1.7901694712643570e-41  -7.2911227167771921e-38  -6.1736205840011169e-40  -1.8085226318667774e-40  -1.3059428377487110e-41  1.1370288618372174e-39  -1.2044185894086282e-41  -2.8559635407479480e-38  -4.2989694397438558e-40  -8.1275256571968418e-44  4.4576071197076548e-44  -2.9685558160843056e-44  -1.1066044719527180e-43  -3.0546079499589629e-29  -4.3728679380798888e-29  -2.2587667898307838e-28  6.5098336150934122e-28  7.9441998616714621e-28  -3.2639420035064547e-27  -1.9482751121887352e-27  1.1256311646045750e-26  2.0371167790518557e-27  -2.7056423313434447e-26  1.0732037047734070e-26  2.5473606430758701e-26  -8.5376753109832987e-26  1.6315657813895531e-25  3.7598166336389978e-25  -1.2346970174630829e-24  -1.2406107101388834e-24  5.3233969917874886e-24  3.1781237095642667e-24  -1.7302363926692876e-23  -5.6689097291535348e-24  -1.7805364781535270e-23  4.3540432808052500e-23  2.2018074174447736e-24  -7.5143627178467812e-23  3.3273016457077318e-23  1.2668835590306415e-23  -1.6019925801465226e-22  5.0116760701178795e-22  4.3145576300491975e-22  -2.2554530967252571e-21  -5.9041233750891367e-22  -5.8801016383221875e-23  5.7860315041303362e-21  -8.9357685961043789e-22  -6.4971448361704306e-21  7.8312425275661317e-21  -1.8007611226997827e-20  -2.2104025082300082e-20  1.1606503474478851e-19  2.0126371669830535e-20  -2.7984872566435245e-19  9.0495511046729958e-20  -3.3231754468724959e-19  1.0306751276402755e-19  -4.1561727327073816e-19  1.6448222326340313e-18  5.6745840989750871e-19  3.0277153551044671e-20  -4.4451952557178158e-19  1.2086840862421065e-18  7.9075502284169995e-19  -6.5528525299258327e-21  -4.4649158134544923e-19  8.4795069638355533e-20  1.3467592961889676e-21  7.3683777189232558e-19  -4.3291258563617129e-19  7.4878531627385482e-20  4.1705312425205885e-20  -2.7759925183369586e-20  5.0151497072203639e-20  -3.6116687761563843e-19  7.3416332052453544e-20  -2.5620858481306309e-20  2.3594217770150918e-20  -2.6072861976366724e-19  8.9384085395028970e-20  -2.0624990424569881e-20  -3.1207378928818675e-22  -1.5453470216385591e-19  9.5888602824117421e-20  -4.1445089230131229e-19  5.4985965250025676e-21  3.5164962878806553e-20  3.8231816137637718e-19  -2.8379156638721463e-19  1.1788175296084363e-18  -1.2550647857174308e-20  -2.5311462566518779e-18  1.8398846434263749e-18  -1.0968898343310790e-17  -2.0819773036910864e-19  3.5018107911830551e-18  -1.0402800217778471e-17  5.1795436361508949e-20  1.5938560012332100e-17  -9.8738723190025628e-18  5.5253682973960877e-17  -1.7243809109986572e-17  6.0418576890452800e-17  -1.0603973247372584e-17  9.9444596244830769e-18  5.5429876385241495e-18  -4.1856105560992149e-17  4.1987798417612887e-18  -9.6871620424941540e-19  -2.7685383709968492e-01  1.1462853197302932e-17  -2.6506550527188428e-17  -1.2343811229628631e-18  3.8184793698703129e-17  -3.3199037990186636e-01  -1.6598477937635734e-17  7.1965190356241713e-17  -2.6736255229982753e-01  -1.7130550487837100e-17  4.4953566441786884e-17  -2.4124162469755744e-16  -7.8481554513127830e-17  1.5124612415443206e-18  4.3793592274975676e-17  -2.4519635705211676e-16  5.0389579964984425e-18  -1.6263865542221524e-17  5.5984613239642586e-17  -2.2841960381868207e-16  -1.4535625983609792e-16  2.1710247550627307e-17  -2.6801477883660922e-17  2.8525185945510489e-16  -1.5684227242428357e-17  1.5435038192443824e-17  -5.3231442468818711e-17  2.1596120990834207e-16  9.8881382848513264e-17  -3.6787335858030819e-18  -4.0108024978165333e-17  2.8236466939348986e-18  1.4696525314846631e-16  -1.5371235981166542e-17  -3.9599403878070799e-17  -1.1195682842406753e-16  2.3576528892852316e-16  -3.3160474972738908e-17  -3.3063795823499808e-17  -2.9772180423243302e-16  3.2424445408697599e-16  -1.1085158228603703e-15  -4.1771475009761603e-16  -3.5766738868485597e-17  3.9158786342806222e-16  -1.4662476835256684e-15  -3.0033462266090652e-16  -6.9481873114459122e-17  3.9723204269828899e-16  -1.9472156540907239e-15  1.0621038191867146e-16  2.6964198288692028e-15  -1.9211381502901855e-15  8.3282273047811169e-15  -4.0703701832947146e-16  5.2590396615446707e-16  -9.5517425454838376e-16  7.6045431840936972e-15  -2.5637601475709932e-15  7.6593950308277761e-15  3.8512598058955625e-17  -8.8267189356290521e-15  3.6965176102551855e-15  -9.3602651793413440e-15  -2.8064424967463849e-15  -5.3825559623977597e-16  2.9834111653558996e-15  -2.0508641031688998e-14  7.6999474912216975e-15  -3.4355965103310365e-14  9.6611034877340966e-15  -3.5572249488279751e-14  9.3584585304802464e-15  -3.5443674166567153e-14  1.0513005434554496e-14  -4.4214338589029024e-14  1.3234461314190906e-14  -5.1953997515863057e-14  1.3360523058918195e-14  -4.3147125537841116e-14  8.6476632634715141e-15  -1.9531197569648613e-14  2.0951718115919368e-15  1.4243704387178920e-15  -1.7022629669934488e-15  7.6660690826379411e-15  -1.6018048355864396e-15  2.9892347347509521e-15  -1.2823219927069056e-16  -1.1511257622628388e-15  2.3225904653273660e-16  -6.9665937853537602e-17  -1.4309090663375503e-17  2.5629853373675599e-17  -4.0714154870191096e-18  -5.0661425612396222e-18  1.7620194327149485e-18  5.4465328380396290e-19  -3.8005669114960996e-19  3.1130483474667659e-20  -4.7941376399502277e-19  4.7949226254884512e-20  -2.5633927354804474e-15  1.1057271500387510e-19  -1.6016001097482440e-19  -8.7692917240770074e-21  1.3871525348860930e-19  -3.0483131547553320e-20  3.6871920093448905e-20  3.2742296647643369e-21