<?xml version="1.0"?>
<VTKFile type="UnstructuredGrid"  version="0.1"  >
<UnstructuredGrid>
<Piece  NumberOfPoints="11902" NumberOfCells="23402">
<Points>
<DataArray  type="Float64"  NumberOfComponents="3"  format="ascii">-5 -5 0  5 -5 0  5 5 0  -5 5 0  1.265215780407599 0.001268149056653459 0  -4.9 -5 0  -4.8 -5 0  -4.7 -5 0  -4.6 -5 0  -4.5 -5 0  -4.4 -5 0  -4.3 -5 0  -4.2 -5 0  -4.1 -5 0  -4 -5 0  -3.9 -5 0  -3.8 -5 0  -3.7 -5 0  -3.6 -5 0  -3.5 -5 0  -3.4 -5 0  -3.3 -5 0  -3.2 -5 0  -3.1 -5 0  -3 -5 0  -2.9 -5 0  -2.8 -5 0  -2.7 -5 0  -2.6 -5 0  -2.5 -5 0  -2.4 -5 0  -2.3 -5 0  -2.2 -5 0  -2.1 -5 0  -2 -5 0  -1.9 -5 0  -1.8 -5 0  -1.7 -5 0  -1.6 -5 0  -1.5 -5 0  -1.4 -5 0  -1.3 -5 0  -1.2 -5 0  -1.1 -5 0  -1 -5 0  -0.9000000000000004 -5 0  -0.7999999999999998 -5 0  -0.7000000000000002 -5 0  -0.5999999999999996 -5 0  -0.5 -5 0  -0.4000000000000004 -5 0  -0.2999999999999998 -5 0  -0.2000000000000002 -5 0  -0.09999999999999964 -5 0  0 -5 0  0.09999999999999964 -5 0  0.2000000000000002 -5 0  0.2999999999999998 -5 0  0.4000000000000004 -5 0  0.5 -5 0  0.5999999999999996 -5 0  0.7000000000000002 -5 0  0.7999999999999998 -5 0  0.9000000000000004 -5 0  1 -5 0  1.1 -5 0  1.2 -5 0  1.3 -5 0  1.4 -5 0  1.5 -5 0  1.6 -5 0  1.7 -5 0  1.8 -5 0  1.9 -5 0  2 -5 0  2.1 -5 0  2.2 -5 0  2.3 -5 0  2.4 -5 0  2.5 -5 0  2.6 -5 0  2.7 -5 0  2.8 -5 0  2.9 -5 0  3 -5 0  3.1 -5 0  3.199999999999999 -5 0  3.300000000000001 -5 0  3.4 -5 0  3.5 -5 0  3.6 -5 0  3.699999999999999 -5 0  3.800000000000001 -5 0  3.9 -5 0  4 -5 0  4.1 -5 0  4.199999999999999 -5 0  4.300000000000001 -5 0  4.4 -5 0  4.5 -5 0  4.6 -5 0  4.699999999999999 -5 0  4.800000000000001 -5 0  4.9 -5 0  5 -4.9 0  5 -4.8 0  5 -4.7 0  5 -4.6 0  5 -4.5 0  5 -4.4 0  5 -4.3 0  5 -4.2 0  5 -4.1 0  5 -4 0  5 -3.9 0  5 -3.8 0  5 -3.7 0  5 -3.6 0  5 -3.5 0  5 -3.4 0  5 -3.3 0  5 -3.2 0  5 -3.1 0  5 -3 0  5 -2.9 0  5 -2.8 0  5 -2.7 0  5 -2.6 0  5 -2.5 0  5 -2.4 0  5 -2.3 0  5 -2.2 0  5 -2.1 0  5 -2 0  5 -1.9 0  5 -1.8 0  5 -1.7 0  5 -1.6 0  5 -1.5 0  5 -1.4 0  5 -1.3 0  5 -1.2 0  5 -1.1 0  5 -1 0  5 -0.9000000000000004 0  5 -0.7999999999999998 0  5 -0.7000000000000002 0  5 -0.5999999999999996 0  5 -0.5 0  5 -0.4000000000000004 0  5 -0.2999999999999998 0  5 -0.2000000000000002 0  5 -0.09999999999999964 0  5 0 0  5 0.09999999999999964 0  5 0.2000000000000002 0  5 0.2999999999999998 0  5 0.4000000000000004 0  5 0.5 0  5 0.5999999999999996 0  5 0.7000000000000002 0  5 0.7999999999999998 0  5 0.9000000000000004 0  5 1 0  5 1.1 0  5 1.2 0  5 1.3 0  5 1.4 0  5 1.5 0  5 1.6 0  5 1.7 0  5 1.8 0  5 1.9 0  5 2 0  5 2.1 0  5 2.2 0  5 2.3 0  5 2.4 0  5 2.5 0  5 2.6 0  5 2.7 0  5 2.8 0  5 2.9 0  5 3 0  5 3.1 0  5 3.199999999999999 0  5 3.300000000000001 0  5 3.4 0  5 3.5 0  5 3.6 0  5 3.699999999999999 0  5 3.800000000000001 0  5 3.9 0  5 4 0  5 4.1 0  5 4.199999999999999 0  5 4.300000000000001 0  5 4.4 0  5 4.5 0  5 4.6 0  5 4.699999999999999 0  5 4.800000000000001 0  5 4.9 0  4.9 5 0  4.8 5 0  4.7 5 0  4.6 5 0  4.5 5 0  4.4 5 0  4.3 5 0  4.2 5 0  4.1 5 0  4 5 0  3.9 5 0  3.8 5 0  3.7 5 0  3.6 5 0  3.5 5 0  3.4 5 0  3.3 5 0  3.2 5 0  3.1 5 0  3 5 0  2.9 5 0  2.8 5 0  2.7 5 0  2.6 5 0  2.5 5 0  2.4 5 0  2.3 5 0  2.2 5 0  2.1 5 0  2 5 0  1.9 5 0  1.8 5 0  1.7 5 0  1.6 5 0  1.5 5 0  1.4 5 0  1.3 5 0  1.2 5 0  1.1 5 0  1 5 0  0.9000000000000004 5 0  0.7999999999999998 5 0  0.7000000000000002 5 0  0.5999999999999996 5 0  0.5 5 0  0.4000000000000004 5 0  0.2999999999999998 5 0  0.2000000000000002 5 0  0.09999999999999964 5 0  0 5 0  -0.09999999999999964 5 0  -0.2000000000000002 5 0  -0.2999999999999998 5 0  -0.4000000000000004 5 0  -0.5 5 0  -0.5999999999999996 5 0  -0.7000000000000002 5 0  -0.7999999999999998 5 0  -0.9000000000000004 5 0  -1 5 0  -1.1 5 0  -1.2 5 0  -1.3 5 0  -1.4 5 0  -1.5 5 0  -1.6 5 0  -1.7 5 0  -1.8 5 0  -1.9 5 0  -2 5 0  -2.1 5 0  -2.2 5 0  -2.3 5 0  -2.4 5 0  -2.5 5 0  -2.6 5 0  -2.7 5 0  -2.8 5 0  -2.9 5 0  -3 5 0  -3.1 5 0  -3.199999999999999 5 0  -3.300000000000001 5 0  -3.4 5 0  -3.5 5 0  -3.6 5 0  -3.699999999999999 5 0  -3.800000000000001 5 0  -3.9 5 0  -4 5 0  -4.1 5 0  -4.199999999999999 5 0  -4.300000000000001 5 0  -4.4 5 0  -4.5 5 0  -4.6 5 0  -4.699999999999999 5 0  -4.800000000000001 5 0  -4.9 5 0  -5 4.9 0  -5 4.8 0  -5 4.7 0  -5 4.6 0  -5 4.5 0  -5 4.4 0  -5 4.3 0  -5 4.2 0  -5 4.1 0  -5 4 0  -5 3.9 0  -5 3.8 0  -5 3.7 0  -5 3.6 0  -5 3.5 0  -5 3.4 0  -5 3.3 0  -5 3.2 0  -5 3.1 0  -5 3 0  -5 2.9 0  -5 2.8 0  -5 2.7 0  -5 2.6 0  -5 2.5 0  -5 2.4 0  -5 2.3 0  -5 2.2 0  -5 2.1 0  -5 2 0  -5 1.9 0  -5 1.8 0  -5 1.7 0  -5 1.6 0  -5 1.5 0  -5 1.4 0  -5 1.3 0  -5 1.2 0  -5 1.1 0  -5 1 0  -5 0.9000000000000004 0  -5 0.7999999999999998 0  -5 0.7000000000000002 0  -5 0.5999999999999996 0  -5 0.5 0  -5 0.4000000000000004 0  -5 0.2999999999999998 0  -5 0.2000000000000002 0  -5 0.09999999999999964 0  -5 0 0  -5 -0.09999999999999964 0  -5 -0.2000000000000002 0  -5 -0.2999999999999998 0  -5 -0.4000000000000004 0  -5 -0.5 0  -5 -0.5999999999999996 0  -5 -0.7000000000000002 0  -5 -0.7999999999999998 0  -5 -0.9000000000000004 0  -5 -1 0  -5 -1.1 0  -5 -1.2 0  -5 -1.3 0  -5 -1.4 0  -5 -1.5 0  -5 -1.6 0  -5 -1.7 0  -5 -1.8 0  -5 -1.9 0  -5 -2 0  -5 -2.1 0  -5 -2.2 0  -5 -2.3 0  -5 -2.4 0  -5 -2.5 0  -5 -2.6 0  -5 -2.7 0  -5 -2.8 0  -5 -2.9 0  -5 -3 0  -5 -3.1 0  -5 -3.199999999999999 0  -5 -3.300000000000001 0  -5 -3.4 0  -5 -3.5 0  -5 -3.6 0  -5 -3.699999999999999 0  -5 -3.800000000000001 0  -5 -3.9 0  -5 -4 0  -5 -4.1 0  -5 -4.199999999999999 0  -5 -4.300000000000001 0  -5 -4.4 0  -5 -4.5 0  -5 -4.6 0  -5 -4.699999999999999 0  -5 -4.800000000000001 0  -5 -4.9 0  1.257258923302831 0.09257412308996371 0  1.23507590388933 0.1903364039043774 0  1.201143435217355 0.2872225585709529 0  1.158472129153212 0.3757379573808967 0  1.09967187412003 0.4669471918644665 0  1.032831590541472 0.5502147628835631 0  0.9543198196350327 0.630803842512441 0  0.8670546393487241 0.70567437992965 0  0.7752310880225586 0.7707820758860633 0  0.6735698425410344 0.8282583050827067 0  0.5598629978477617 0.8805011003693795 0  0.4460159571572163 0.9255708840618305 0  0.3358582035181304 0.9570157739634112 0  0.2088142593556371 0.9798324347087667 0  0.08717440573461981 0.9980618705868869 0  -0.02614429809811794 1.001678048434073 0  -0.1438139983525313 0.9881419775104591 0  -0.2744460987356984 0.9680231777909706 0  -0.3948632380953829 0.9437555844168927 0  -0.5039933205629968 0.9088682328416943 0  -0.6133955566845583 0.8624968401028186 0  -0.7152885492415469 0.8072554588993364 0  -0.8096163185573778 0.7430057428673011 0  -0.9013198765985766 0.6692405177235486 0  -0.988096053444952 0.5887960175273721 0  -1.0631127706812 0.5069297107235519 0  -1.125447703839445 0.4228130084551858 0  -1.181201292596953 0.3283660249355931 0  -1.218390529092524 0.2420531218048417 0  -1.242641887197745 0.1485482558284644 0  -1.252756091761335 0.05284274746663315 0  -1.25269025555886 -0.05053625332237067 0  -1.242480835740966 -0.1455058206699657 0  -1.218031159125328 -0.2357635403082443 0  -1.175588497693595 -0.3313131517409124 0  -1.125743875883104 -0.4239565820878219 0  -1.065395676979918 -0.5066936931299335 0  -0.9906912290131504 -0.5878137855341983 0  -0.90451312049628 -0.6672126246394029 0  -0.8138284512151945 -0.7383484353665812 0  -0.718747076203514 -0.7988200685502351 0  -0.6142544977203269 -0.8522900563884026 0  -0.4978385861524662 -0.902083259574867 0  -0.3856079357864514 -0.9419609444707324 0  -0.2711334904182274 -0.9678913089009293 0  -0.1420094983596507 -0.9882307114760179 0  -0.02744240491472084 -1.000907363607454 0  0.08533795526490175 -0.9935208304471317 0  0.2156735480198088 -0.9754566876952993 0  0.338925723331026 -0.9550855970753329 0  0.450279875825274 -0.9242304948412391 0  0.5627246945037713 -0.8797046071955039 0  0.6749230819777264 -0.8280410792084124 0  0.7749171463591595 -0.772044346703416 0  0.865908336507528 -0.707548997646978 0  0.9515179064879223 -0.6317853063793725 0  1.030503470418171 -0.54868665618679 0  1.101617465545605 -0.4649458456267399 0  1.159401221305422 -0.3759310648833092 0  1.20299930850927 -0.2853092540418102 0  1.235818490094745 -0.189768130295573 0  1.257674346401374 -0.09278590914289542 0  -2.448513483648456 4.918029311051028 0  -2.44838299503963 -4.910399678452791 0  4.910320295846904 2.447826996585302 0  4.918455987565911 -2.449294986692962 0  2.446104354039197 -4.895614961092972 0  2.440539674552911 4.899381049681632 0  -4.910347615674696 -2.447854193594081 0  -4.910344936068593 2.447858403566605 0  -1.748465650661174 4.910878898669454 0  -1.744253943555187 -4.914325091831358 0  4.920470679060767 1.744008292360714 0  4.908981327099479 -1.747760826552289 0  -4.909276410798874 -1.74749581212804 0  -4.910100322250191 1.747241738764585 0  1.745734656414937 4.904724903008767 0  1.747141532572362 -4.892851580260094 0  -1.148786731506068 4.908632693077085 0  -1.129648092816567 -4.916563836352459 0  -4.908950478775011 -1.147836752255721 0  -4.908768343288529 1.147637570906683 0  1.143784400535113 -4.912740217291977 0  1.148796132170376 4.908618653321147 0  4.909089617584939 1.146111352685833 0  4.919950504551946 -1.15190441245041 0  -0.5466399212590841 -4.909805841352905 0  -0.5464260225112617 4.918511459143035 0  -4.907648041840362 -0.5486578280414166 0  -4.907672032258913 0.5472162763380194 0  4.906963893572175 -0.5489757557551689 0  4.918657290221669 0.5457393040674317 0  0.5424195469135222 -4.896650484194939 0  0.5511529719146478 4.915325995463521 0  -4.911809036856356 -3.048224022317077 0  4.918385972069057 3.046244628495275 0  4.911316254560242 -3.048198835719292 0  -4.912657495524571 3.04531638286274 0  3.055245049626992 -4.917307521494846 0  -3.048571502359457 -4.911237663562233 0  3.052140158954471 4.913316964682084 0  -3.048017792513701 4.912128367187308 0  -4.906743079057162 -0.04990256924619765 0  0.0451180223763677 -4.911754091889658 0  0.04956480413497968 4.918799192777533 0  4.913819911522038 -0.05128542856504999 0  3.545575363281805 -4.918974394599832 0  -3.548852037399385 4.91187
[...]
<PointData  Scalars="f_27"> 
<DataArray  type="Float64"  Name="f_27"  format="ascii">0.0000000000000000e+00  0.0000000000000000e+00  0.0000000000000000e+00  0.0000000000000000e+00  9.8346978248236916e-01  0.0000000000000000e+00  0.0000000000000000e+00  0.0000000000000000e+00  0.0000000000000000e+00  0.0000000000000000e+00  0.0000000000000000e+00  0.0000000000000000e+00  0.0000000000000000e+00  0.0000000000000000e+00  0.0000000000000000e+00  0.0000000000000000e+00  0.0000000000000000e+00  0.0000000000000000e+00  0.0000000000000000e+00  0.0000000000000000e+00  0.0000000000000000e+00  0.0000000000000000e+00  0.0000000000000000e+00  0.0000000000000000e+00  0.0000000000000000e+00  0.0000000000000000e+00  0.0000000000000000e+00  0.0000000000000000e+00  0.0000000000000000e+00  0.0000000000000000e+00  0.0000000000000000e+00  0.0000000000000000e+00  0.0000000000000000e+00  0.0000000000000000e+00  0.0000000000000000e+00  0.0000000000000000e+00  0.0000000000000000e+00  0.0000000000000000e+00  0.0000000000000000e+00  0.0000000000000000e+00  0.0000000000000000e+00  0.0000000000000000e+00  0.0000000000000000e+00  0.0000000000000000e+00  0.0000000000000000e+00  0.0000000000000000e+00  0.0000000000000000e+00  0.0000000000000000e+00  0.0000000000000000e+00  0.0000000000000000e+00  0.0000000000000000e+00  0.0000000000000000e+00  0.0000000000000000e+00  0.0000000000000000e+00  0.0000000000000000e+00  0.0000000000000000e+00  0.0000000000000000e+00  0.0000000000000000e+00  0.0000000000000000e+00  0.0000000000000000e+00  0.0000000000000000e+00  0.0000000000000000e+00  0.0000000000000000e+00  0.0000000000000000e+00  0.0000000000000000e+00  0.0000000000000000e+00  0.0000000000000000e+00  0.0000000000000000e+00  0.0000000000000000e+00  0.0000000000000000e+00  0.0000000000000000e+00  0.0000000000000000e+00  0.0000000000000000e+00  0.0000000000000000e+00  0.0000000000000000e+00  0.0000000000000000e+00  0.0000000000000000e+00  0.0000000000000000e+00  0.0000000000000000e+00  0.0000000000000000e+00  0.0000000000000000e+00  0.0000000000000000e+00  0.0000000000000000e+00  0.0000000000000000e+00  0.0000000000000000e+00  0.0000000000000000e+00  0.0000000000000000e+00  0.0000000000000000e+00  0.0000000000000000e+00  0.0000000000000000e+00  0.0000000000000000e+00  0.0000000000000000e+00  0.0000000000000000e+00  0.0000000000000000e+00  0.0000000000000000e+00  0.0000000000000000e+00  0.0000000000000000e+00  0.0000000000000000e+00  0.0000000000000000e+00  0.0000000000000000e+00  0.0000000000000000e+00  0.0000000000000000e+00  0.0000000000000000e+00  0.0000000000000000e+00  0.0000000000000000e+00  0.0000000000000000e+00  0.0000000000000000e+00  0.0000000000000000e+00  0.0000000000000000e+00  0.0000000000000000e+00  0.0000000000000000e+00  0.0000000000000000e+00  0.0000000000000000e+00  0.0000000000000000e+00  0.0000000000000000e+00  0.0000000000000000e+00  0.0000000000000000e+00  0.0000000000000000e+00  0.0000000000000000e+00  0.0000000000000000e+00  0.0000000000000000e+00  0.0000000000000000e+00  0.0000000000000000e+00  0.0000000000000000e+00  0.0000000000000000e+00  0.0000000000000000e+00  0.0000000000000000e+00  0.0000000000000000e+00  0.0000000000000000e+00  0.0000000000000000e+00  0.0000000000000000e+00  0.0000000000000000e+00  0.0000000000000000e+00  0.0000000000000000e+00  0.0000000000000000e+00  0.0000000000000000e+00  0.0000000000000000e+00  0.0000000000000000e+00  0.0000000000000000e+00  0.0000000000000000e+00  0.0000000000000000e+00  0.0000000000000000e+00  0.0000000000000000e+00  0.0000000000000000e+00  0.0000000000000000e+00  0.0000000000000000e+00  0.0000000000000000e+00  0.0000000000000000e+00  0.0000000000000000e+00  0.0000000000000000e+00  0.0000000000000000e+00  0.0000000000000000e+00  0.0000000000000000e+00  0.0000000000000000e+00  0.0000000000000000e+00  0.0000000000000000e+00  0.0000000000000000e+00  0.0000000000000000e+00  0.0000000000000000e+00  0.0000000000000000e+00  0.0000000000000000e+00  0.0000000000000000e+00  0.0000000000000000e+00  0.0000000000000000e+00  0.0000000000000000e+00  0.0000000000000000e+00  0.0000000000000000e+00  0.0000000000000000e+00  0.0000000000000000e+00  0.0000000000000000e+00  0.0000000000000000e+00  0.0000000000000000e+00  0.0000000000000000e+00  0.0000000000000000e+00  0.0000000000000000e+00  0.0000000000000000e+00  0.0000000000000000e+00  0.0000000000000000e+00  0.0000000000000000e+00  0.0000000000000000e+00  0.0000000000000000e+00  0.0000000000000000e+00  0.0000000000000000e+00  0.0000000000000000e+00  0.0000000000000000e+00  0.0000000000000000e+00  0.0000000000000000e+00  0.0000000000000000e+00  0.0000000000000000e+00  0.0000000000000000e+00  0.0000000000000000e+00  0.0000000000000000e+00  0.0000000000000000e+00  0.0000000000000000e+00  0.0000000000000000e+00  0.0000000000000000e+00  0.0000000000000000e+00  0.0000000000000000e+00  0.0000000000000000e+00  0.0000000000000000e+00  0.0000000000000000e+00  0.0000000000000000e+00  0.0000000000000000e+00  0.0000000000000000e+00  0.0000000000000000e+00  0.0000000000000000e+00  0.0000000000000000e+00  0.0000000000000000e+00  0.0000000000000000e+00  0.0000000000000000e+00  0.0000000000000000e+00  0.0000000000000000e+00  0.0000000000000000e+00  0.0000000000000000e+00  0.0000000000000000e+00  0.0000000000000000e+00  0.0000000000000000e+00  0.0000000000000000e+00  0.0000000000000000e+00  0.0000000000000000e+00  0.0000000000000000e+00  0.0000000000000000e+00  0.0000000000000000e+00  0.0000000000000000e+00  0.0000000000000000e+00  0.0000000000000000e+00  0.0000000000000000e+00  0.0000000000000000e+00  0.0000000000000000e+00  0.0000000000000000e+00  0.0000000000000000e+00  0.0000000000000000e+00  0.0000000000000000e+00  0.0000000000000000e+00  0.0000000000000000e+00  0.0000000000000000e+00  0.0000000000000000e+00  0.0000000000000000e+00  0.0000000000000000e+00  0.0000000000000000e+00  0.0000000000000000e+00  0.0000000000000000e+00  0.0000000000000000e+00  0.0000000000000000e+00  0.0000000000000000e+00  0.0000000000000000e+00  0.0000000000000000e+00  0.0000000000000000e+00  0.0000000000000000e+00  0.0000000000000000e+00  0.0000000000000000e+00  0.0000000000000000e+00  0.0000000000000000e+00  0.0000000000000000e+00  0.0000000000000000e+00  0.0000000000000000e+00  0.0000000000000000e+00  0.0000000000000000e+00  0.0000000000000000e+00  0.0000000000000000e+00  0.0000000000000000e+00  0.0000000000000000e+00  0.0000000000000000e+00  0.0000000000000000e+00  0.0000000000000000e+00  0.0000000000000000e+00  0.0000000000000000e+00  0.0000000000000000e+00  0.0000000000000000e+00  0.0000000000000000e+00  0.0000000000000000e+00  0.0000000000000000e+00  0.0000000000000000e+00  0.0000000000000000e+00  0.0000000000000000e+00  0.0000000000000000e+00  0.0000000000000000e+00  0.0000000000000000e+00  0.0000000000000000e+00  0.0000000000000000e+00  0.0000000000000000e+00  0.0000000000000000e+00  0.0000000000000000e+00  0.0000000000000000e+00  0.0000000000000000e+00  0.0000000000000000e+00  0.0000000000000000e+00  0.0000000000000000e+00  0.0000000000000000e+00  0.0000000000000000e+00  0.0000000000000000e+00  0.0000000000000000e+00  0.0000000000000000e+00  0.0000000000000000e+00  0.0000000000000000e+00  0.0000000000000000e+00  0.0000000000000000e+00  0.0000000000000000e+00  0.0000000000000000e+00  0.0000000000000000e+00  0.0000000000000000e+00  0.0000000000000000e+00  0.0000000000000000e+00  0.0000000000000000e+00  0.0000000000000000e+00  0.0000000000000000e+00  0.0000000000000000e+00  0.0000000000000000e+00  0.0000000000000000e+00  0.0000000000000000e+00  0.0000000000000000e+00  0.0000000000000000e+00  0.0000000000000000e+00  0.0000000000000000e+00  0.0000000000000000e+00  0.0000000000000000e+00  0.0000000000000000e+00  0.0000000000000000e+00  0.0000000000000000e+00  0.0000000000000000e+00  0.0000000000000000e+00  0.0000000000000000e+00  0.0000000000000000e+00  0.0000000000000000e+00  0.0000000000000000e+00  0.0000000000000000e+00  0.0000000000000000e+00  0.0000000000000000e+00  0.0000000000000000e+00  0.0000000000000000e+00  0.0000000000000000e+00  0.0000000000000000e+00  0.0000000000000000e+00  0.0000000000000000e+00  0.0000000000000000e+00  0.0000000000000000e+00  0.0000000000000000e+00  0.0000000000000000e+00  0.0000000000000000e+00  0.0000000000000000e+00  0.0000000000000000e+00  0.0000000000000000e+00  0.0000000000000000e+00  0.0000000000000000e+00  0.0000000000000000e+00  0.0000000000000000e+00  0.0000000000000000e+00  0.0000000000000000e+00  0.0000000000000000e+00  0.0000000000000000e+00  0.0000000000000000e+00  0.0000000000000000e+00  0.0000000000000000e+00  0.0000000000000000e+00  0.0000000000000000e+00  0.0000000000000000e+00  0.0000000000000000e+00  0.0000000000000000e+00  0.0000000000000000e+00  0.0000000000000000e+00  0.0000000000000000e+00  0.0000000000000000e+00  0.0000000000000000e+00  0.0000000000000000e+00  0.0000000000000000e+00  0.0000000000000000e+00  0.0000000000000000e+00  0.0000000000000000e+00  0.0000000000000000e+00  0.0000000000000000e+00  0.0000000000000000e+00  0.0000000000000000e+00  0.0000000000000000e+00  0.0000000000000000e+00  0.0000000000000000e+00  0.0000000000000000e+00  0.0000000000000000e+00  0.0000000000000000e+00  0.0000000000000000e+00  0.0000000000000000e+00  0.0000000000000000e+00  0.0000000000000000e+00  0.0000000000000000e+00  0.0000000000000000e+00  0.0000000000000000e+00  0.0000000000000000e+00  0.0000000000000000e+00  0.0000000000000000e+00  0.0000000000000000e+00  0.0000000000000000e+00  0.0000000000000000e+00  0.0000000000000000e+00  0.0000000000000000e+00  0.0000000000000000e+00  0.0000000000000000e+00  0.0000000000000000e+00  0.0000000000000000e+00  0.0000000000000000e+00  0.0000000000000000e+00  0.0000000000000000e+00  0.0000000000000000e+00  9.8357445851000769e-01  9.8704698449998007e-01  9.8982786383188437e-01  9.8935978470468122e-01  9.8815915300481694e-01  9.8531209096477346e-01  9.8560506769676814e-01  9.8911431239446990e-01  9.8626827040330689e-01  9.8552450076486686e-01  9.9090539653184084e-01  9.8334371923248176e-01  9.7923710940630204e-01  9.9617671123810647e-01  9.8365266465232837e-01  9.8107825142364213e-01  9.9487764097118125e-01  9.9165261086771661e-01  9.8301686885286022e-01  9.8583342611505409e-01  9.8430342191814546e-01  9.8562901403128689e-01  9.8714184100060542e-01  9.8779818609897097e-01  9.8994166638509162e-01  9.8856472015127717e-01  9.8817835549620225e-01  9.8811421957068879e-01  9.8600551795767721e-01  9.8731490065551142e-01  9.8933369475421096e-01  9.8861778622920360e-01  9.8911626587977719e-01  9.8544123926333038e-01  9.9106780163258112e-01  9.8454153330463701e-01  9.8686087994923410e-01  9.8872705624031587e-01  9.8623337219232676e-01  9.8527793586497103e-01  9.9055384146993353e-01  9.8818044860517174e-01  9.9096719023181457e-01  9.7893255137734003e-01  9.8797594740413541e-01  9.9335955204360527e-01  9.6821650998180375e-01  9.8509674264682046e-01  9.9598054562232652e-01  9.8192065858775823e-01  9.8345799632031550e-01  9.9138370369062367e-01  9.8556457139505960e-01  9.8071146491105021e-01  9.8421472163456136e-01  9.8910944621247310e-01  9.9252307756657654e-01  9.8565860320125187e-01  9.8133893094249980e-01  9.8490156422197039e-01  9.8753915090919575e-01  9.8473862312004146e-01  -6.9855004198683450e-33  9.7475560894992588e-33  3.9069443789823784e-36  6.0984422918494826e-36  1.2239230766370543e-32  1.1504446161172421e-32  7.5565239372597576e-36  1.6090899402963680e-36  -4.5776213441044167e-32  -3.5918866333681277e-32  -1.5137926253907089e-35  3.8426522616049806e-34  2.9721249530367972e-33  2.2558468156742480e-33  1.8629528627583721e-31  7.1567236461673333e-32  -2.9533693125070949e-31  8.4173450655626469e-32  -2.1405668399669985e-31  -2.6466556348913467e-31  -1.5828079191306569e-32  -1.7691737962905363e-31  -3.2956834277764619e-32  -7.2158601619601084e-32  -1.5502579978562901e-31  -1.3719714575195995e-31  -4.1103353459842856e-30  -2.9203754562579276e-30  -2.7084695179588009e-30  -3.7415108168660128e-30  1.0310106587389427e-31  -1.3846416507131610e-31  -6.6085326172585557e-38  9.0482360629735739e-38  8.5656294005138574e-38  -1.0578782329228002e-37  2.7196437959576038e-34  2.0508656123542877e-34  8.9522856091302964e-35  2.4017735465667882e-34  3.0293103068106149e-29  2.7221648265747652e-31  3.5726706417755946e-32  5.6165930027378016e-29  7.0778880705574945e-37  6.3080088540396842e-37  6.8620714255814921e-37  -1.4486521433638720e-39  -6.6620714480002371e-40  -1.3973128097151095e-39  2.3075890088508504e-40  1.5757708684647788e-37  3.8413323058480756e-41  -1.0264212904867812e-38  -1.8845681527692220e-39  -3.4094191578349502e-41  -1.0166769060144141e-38  4.8213747608118296e-41  -3.3305443008913662e-39  -5.3644092113168956e-41  -1.7783621467471951e-41  -2.4178399636666055e-41  -2.7988904682246753e-41  -6.9340124330747988e-43  -3.4810336403687157e-43  1.6609236633618959e-42  1.8146769086258375e-42  -2.9625770148033581e-41  6.8852239182680783e-29  -1.0664675189763520e-31  -2.7953018451165441e-32  6.2332989515592248e-29  1.1729269459739705e-31  1.4514693239892535e-32  1.1296631469783045e-30  5.6548753456628316e-31  8.3060767385184865e-33  5.6252887755498282e-32  6.2379495159632765e-33  -3.2495488416182547e-31  -1.2680972837687035e-31  -1.8215489489464645e-34  4.9528164774154634e-31  8.9041258938064178e-31  5.3711752948951773e-33  1.2775248912754164e-31  -2.5681885746093818e-31  8.7632694792720699e-32  -9.2050616459458353e-32  -1.0698285564902379e-31  -1.0630318632696240e-34  -3.8002166431202548e-35  -1.1838824576321873e-32  -1.2979372549042820e-32  -2.6838988182112096e-36  2.6293989440375821e-37  8.8154923141475276e-37  -3.4784073855689491e-34  7.5721069643488690e-34  -6.9026900566915954e-37  8.5747479219579868e-34  -1.7648389411804856e-37  7.9868315276408983e-37  1.8367465919187309e-33  8.4506217636996887e-44  2.5916467542985190e-43  -6.0368824948051479e-44  -1.9827066368276319e-43  -2.3798207509466594e-44  -1.0809401051272082e-43  1.1471000478527770e-43  8.6543221266692004e-44  2.8862644582123066e-29  3.3547633029429864e-31  2.9905162560613874e-31  4.9197302051527470e-29  5.3002228418074123e-35  -9.7615943775855958e-36  -1.5020875372282718e-35  -4.5202803525157827e-34  -2.1087125447357538e-36  8.9191595704658168e-33  8.9302461331584752e-33  4.4881944400288927e-36  -1.7694973445094223e-38  -5.2162202874866267e-35  -2.0128055692635250e-35  -9.8294651229215999e-39  -1.6886834687361247e-38  1.9061937042342895e-36  -1.5386964012335574e-35  2.2692504378316872e-39  -2.2213104299984509e-42  -4.2746914391566431e-42  -6.4588187337291801e-38  -3.5691666718382657e-40  -2.7721843277135361e-38  -1.5956183436242617e-40  3.6519756708048405e-40  -6.3681639900513942e-42  -4.0430055454149298e-38  -2.4628527264615621e-40  -3.9210557691842598e-41  -4.9302566938725604e-42  3.2098038952777293e-40  -2.9231387384680052e-42  1.3631693759693609e-38  -2.9567213422860474e-40  -4.0739670721417811e-44  1.2859433917107709e-44  -2.3870139769407619e-44  -4.7821027811534142e-44  2.7467006956088008e-29  -1.1436626993056484e-28  -1.0902976551776224e-28  4.3746690878489459e-28  3.4353887567727118e-28  -1.5487521217775550e-27  -8.9830548445105526e-28  4.8554076664178906e-27  1.6520861819413296e-27  -1.2590208848327541e-26  -2.6142726990204696e-28  2.2529164427738182e-26  -1.4592897869702461e-26  -3.7636592828079168e-28  8.0144952934905495e-26  -2.1793887957610479e-25  -2.7911885461593771e-25  1.1513174462758819e-24  6.9511768521878509e-25  -3.8974562664296660e-24  -1.0645597037877340e-24  -3.2545609703968424e-24  9.3757669212603045e-24  -3.5604301582173081e-25  -1.3129717325686785e-23  8.5760014106622408e-24  -1.0709059748148924e-23  -2.9197045390731367e-23  1.2562287772961554e-22  4.7459387007911856e-23  -3.8284658043460470e-22  2.9654014912682831e-23  -2.2381859877786978e-22  5.1954611796847576e-22  -4.3183361303519083e-22  8.0917329874195889e-22  1.2796091167577410e-21  -6.3154348248301624e-21  -1.3843605937027091e-21  1.6004346879530209e-20  -4.1762253723032650e-21  -1.1082797227646064e-20  2.4408855384194975e-20  -8.9075324091313671e-20  -7.3220545990962424e-20  -5.7713295302926074e-20  3.4432475864667744e-19  3.0204627502371408e-20  1.6230330209160005e-20  -7.9834207307647516e-20  3.1078865704172160e-19  1.0263861731093341e-19  8.6482141258747108e-21  -9.4699056734356949e-20  1.4570258808678703e-20  1.1609539243439862e-20  1.0706424880407380e-19  -1.0411789555073673e-19  1.4247505185693014e-20  2.2119768656754701e-20  -7.8949680145519312e-21  9.2107100080084602e-21  -8.8128532219388500e-20  2.5266607301805806e-20  -7.1694362645693598e-21  5.5978680322747013e-21  -7.7800602882624181e-20  3.1836247676484599e-20  -6.8251449036579969e-21  -5.2894606792286889e-22  -5.5279330920919263e-20  3.6788668514120458e-20  -1.4452270267633016e-19  2.0425028674016304e-21  -5.5644147469661369e-21  3.2226981247214731e-19  -2.0016063262060513e-19  9.0915066109143641e-19  -1.1804389870480018e-19  -7.7350146517130667e-19  7.7894469783972343e-19  -4.8970681397928101e-18  -6.9989931587779573e-20  1.5509313318191537e-18  -4.2021308931056138e-18  -3.3746286397649739e-19  9.7283092434985087e-18  -5.5149826297113937e-18  3.0316623660773826e-17  -9.5645810822067489e-18  3.4808223366635163e-17  -6.9010971162460593e-18  1.2028899063442722e-17  7.9527535036985693e-19  -1.4165674983797071e-17  2.4378909923744577e-18  -2.0858842639092889e-18  -2.5848423040990026e-01  4.3740946963484971e-18  -1.0265330501918702e-17  -9.5416558529621264e-19  1.9242963943122427e-17  -2.8956315821289730e-01  -8.3062952385533508e-18  3.6283836475022253e-17  -2.3693673206908145e-01  -8.6792650064801347e-18  2.2745671570515569e-17  -1.2283910143688739e-16  -3.7981794747741573e-17  -1.6742302526252726e-19  2.6194336052576147e-17  -1.3536057358866457e-16  2.5353185475448479e-18  -8.7826004682990316e-18  2.7355491753397477e-17  -1.2436930566286088e-16  -5.8187478730613657e-17  5.7759985545398091e-18  3.6718193677524348e-18  6.5936976782842983e-17  -4.1672759322435335e-17  9.1294807156240737e-18  -1.2192868173985147e-17  1.1060383745934537e-16  -1.1781930908371206e-17  7.0350829944920232e-18  -1.7690860671307919e-17  9.7101783771092577e-17  6.0440571196173513e-18  6.1890588721511547e-18  -2.9167918359722715e-17  1.0749561909289795e-16  5.0334359149385634e-17  2.5592873225226393e-19  -3.2426931702471456e-17  5.3772980234623765e-17  8.9184405507213561e-17  -5.2413265539854595e-16  8.5430180137951947e-18  -3.3764181543567232e-17  1.1094643312569590e-16  -6.3050550484096119e-16  4.1813118861427984e-17  -4.1956384827938866e-17  1.0167917596505159e-16  -7.0929582158191280e-16  1.5678546148799205e-16  2.0151622622488756e-16  -5.2199504418831755e-16  3.0774715472245152e-15  -5.5970001262993594e-16  2.1035232491200228e-16  -1.5111374185200026e-16  1.8892171502525563e-15  -7.5157535985393552e-16  2.4356733476868379e-15  4.7483217689460677e-17  -3.0315549327050486e-15  1.1601365855813698e-15  -1.3656923397555293e-15  -2.3389935070286508e-15  -2.9682495751662992e-17  1.7048082090971382e-15  -1.0659494493228599e-14  3.7710582882027142e-15  -1.6040797748943233e-14  4.3011363423352036e-15  -1.5331113998162479e-14  4.0834733672886893e-15  -1.6314192456874724e-14  5.2246951316519481e-15  -2.3301163647261936e-14  7.1754220891452579e-15  -2.8520644205269287e-14  7.3723810965714274e-15  -2.3960619891442164e-14  4.9121338855598440e-15  -1.1677258606024834e-14  1.4516977498687319e-15  -2.6057009300836844e-16  -7.6435170230525231e-16  4.0931417051672793e-15  -9.5945759939524508e-16  2.1801273029253308e-15  -2.1073137593195741e-16  -2.6869135375197096e-16  1.6401203978503750e-16  -1.1212679340261460e-17  -1.7777149294140985e-17  1.0497901875736038e-17  -2.4985291264144623e-19  -2.6722760680641663e-18  6.8939179654768349e-19  4.0885923242477063e-19  -1.9540729599849552e-19  -2.4114026883610721e-20  -1.3896305025393325e-19  3.3274299993456862e-20  -1.1112252420673090e-15  4.4195854480763009e-20  -9.1629301283425409e-20  5.4227706695339683e-21  2.9197325463418862e-20  -7.8089433578344507e-21  8.5844612254020245e-21  1.0046143804014807e-21 