<?xml version="1.0"?>
<VTKFile type="UnstructuredGrid"  version="0.1"  >
<UnstructuredGrid>
<Piece  NumberOfPoints="11902" NumberOfCells="23402">
<Points>
<DataArray  type="Float64"  NumberOfComponents="3"  format="ascii">-5 -5 0  5 -5 0  5 5 0  -5 5 0  1.093139592288615 0.0006203329760325213 0  -4.9 -5 0  -4.8 -5 0  -4.7 -5 0  -4.6 -5 0  -4.5 -5 0  -4.4 -5 0  -4.3 -5 0  -4.2 -5 0  -4.1 -5 0  -4 -5 0  -3.9 -5 0  -3.8 -5 0  -3.7 -5 0  -3.6 -5 0  -3.5 -5 0  -3.4 -5 0  -3.3 -5 0  -3.2 -5 0  -3.1 -5 0  -3 -5 0  -2.9 -5 0  -2.8 -5 0  -2.7 -5 0  -2.6 -5 0  -2.5 -5 0  -2.4 -5 0  -2.3 -5 0  -2.2 -5 0  -2.1 -5 0  -2 -5 0  -1.9 -5 0  -1.8 -5 0  -1.7 -5 0  -1.6 -5 0  -1.5 -5 0  -1.4 -5 0  -1.3 -5 0  -1.2 -5 0  -1.1 -5 0  -1 -5 0  -0.9000000000000004 -5 0  -0.7999999999999998 -5 0  -0.7000000000000002 -5 0  -0.5999999999999996 -5 0  -0.5 -5 0  -0.4000000000000004 -5 0  -0.2999999999999998 -5 0  -0.2000000000000002 -5 0  -0.09999999999999964 -5 0  0 -5 0  0.09999999999999964 -5 0  0.2000000000000002 -5 0  0.2999999999999998 -5 0  0.4000000000000004 -5 0  0.5 -5 0  0.5999999999999996 -5 0  0.7000000000000002 -5 0  0.7999999999999998 -5 0  0.9000000000000004 -5 0  1 -5 0  1.1 -5 0  1.2 -5 0  1.3 -5 0  1.4 -5 0  1.5 -5 0  1.6 -5 0  1.7 -5 0  1.8 -5 0  1.9 -5 0  2 -5 0  2.1 -5 0  2.2 -5 0  2.3 -5 0  2.4 -5 0  2.5 -5 0  2.6 -5 0  2.7 -5 0  2.8 -5 0  2.9 -5 0  3 -5 0  3.1 -5 0  3.199999999999999 -5 0  3.300000000000001 -5 0  3.4 -5 0  3.5 -5 0  3.6 -5 0  3.699999999999999 -5 0  3.800000000000001 -5 0  3.9 -5 0  4 -5 0  4.1 -5 0  4.199999999999999 -5 0  4.300000000000001 -5 0  4.4 -5 0  4.5 -5 0  4.6 -5 0  4.699999999999999 -5 0  4.800000000000001 -5 0  4.9 -5 0  5 -4.9 0  5 -4.8 0  5 -4.7 0  5 -4.6 0  5 -4.5 0  5 -4.4 0  5 -4.3 0  5 -4.2 0  5 -4.1 0  5 -4 0  5 -3.9 0  5 -3.8 0  5 -3.7 0  5 -3.6 0  5 -3.5 0  5 -3.4 0  5 -3.3 0  5 -3.2 0  5 -3.1 0  5 -3 0  5 -2.9 0  5 -2.8 0  5 -2.7 0  5 -2.6 0  5 -2.5 0  5 -2.4 0  5 -2.3 0  5 -2.2 0  5 -2.1 0  5 -2 0  5 -1.9 0  5 -1.8 0  5 -1.7 0  5 -1.6 0  5 -1.5 0  5 -1.4 0  5 -1.3 0  5 -1.2 0  5 -1.1 0  5 -1 0  5 -0.9000000000000004 0  5 -0.7999999999999998 0  5 -0.7000000000000002 0  5 -0.5999999999999996 0  5 -0.5 0  5 -0.4000000000000004 0  5 -0.2999999999999998 0  5 -0.2000000000000002 0  5 -0.09999999999999964 0  5 0 0  5 0.09999999999999964 0  5 0.2000000000000002 0  5 0.2999999999999998 0  5 0.4000000000000004 0  5 0.5 0  5 0.5999999999999996 0  5 0.7000000000000002 0  5 0.7999999999999998 0  5 0.9000000000000004 0  5 1 0  5 1.1 0  5 1.2 0  5 1.3 0  5 1.4 0  5 1.5 0  5 1.6 0  5 1.7 0  5 1.8 0  5 1.9 0  5 2 0  5 2.1 0  5 2.2 0  5 2.3 0  5 2.4 0  5 2.5 0  5 2.6 0  5 2.7 0  5 2.8 0  5 2.9 0  5 3 0  5 3.1 0  5 3.199999999999999 0  5 3.300000000000001 0  5 3.4 0  5 3.5 0  5 3.6 0  5 3.699999999999999 0  5 3.800000000000001 0  5 3.9 0  5 4 0  5 4.1 0  5 4.199999999999999 0  5 4.300000000000001 0  5 4.4 0  5 4.5 0  5 4.6 0  5 4.699999999999999 0  5 4.800000000000001 0  5 4.9 0  4.9 5 0  4.8 5 0  4.7 5 0  4.6 5 0  4.5 5 0  4.4 5 0  4.3 5 0  4.2 5 0  4.1 5 0  4 5 0  3.9 5 0  3.8 5 0  3.7 5 0  3.6 5 0  3.5 5 0  3.4 5 0  3.3 5 0  3.2 5 0  3.1 5 0  3 5 0  2.9 5 0  2.8 5 0  2.7 5 0  2.6 5 0  2.5 5 0  2.4 5 0  2.3 5 0  2.2 5 0  2.1 5 0  2 5 0  1.9 5 0  1.8 5 0  1.7 5 0  1.6 5 0  1.5 5 0  1.4 5 0  1.3 5 0  1.2 5 0  1.1 5 0  1 5 0  0.9000000000000004 5 0  0.7999999999999998 5 0  0.7000000000000002 5 0  0.5999999999999996 5 0  0.5 5 0  0.4000000000000004 5 0  0.2999999999999998 5 0  0.2000000000000002 5 0  0.09999999999999964 5 0  0 5 0  -0.09999999999999964 5 0  -0.2000000000000002 5 0  -0.2999999999999998 5 0  -0.4000000000000004 5 0  -0.5 5 0  -0.5999999999999996 5 0  -0.7000000000000002 5 0  -0.7999999999999998 5 0  -0.9000000000000004 5 0  -1 5 0  -1.1 5 0  -1.2 5 0  -1.3 5 0  -1.4 5 0  -1.5 5 0  -1.6 5 0  -1.7 5 0  -1.8 5 0  -1.9 5 0  -2 5 0  -2.1 5 0  -2.2 5 0  -2.3 5 0  -2.4 5 0  -2.5 5 0  -2.6 5 0  -2.7 5 0  -2.8 5 0  -2.9 5 0  -3 5 0  -3.1 5 0  -3.199999999999999 5 0  -3.300000000000001 5 0  -3.4 5 0  -3.5 5 0  -3.6 5 0  -3.699999999999999 5 0  -3.800000000000001 5 0  -3.9 5 0  -4 5 0  -4.1 5 0  -4.199999999999999 5 0  -4.300000000000001 5 0  -4.4 5 0  -4.5 5 0  -4.6 5 0  -4.699999999999999 5 0  -4.800000000000001 5 0  -4.9 5 0  -5 4.9 0  -5 4.8 0  -5 4.7 0  -5 4.6 0  -5 4.5 0  -5 4.4 0  -5 4.3 0  -5 4.2 0  -5 4.1 0  -5 4 0  -5 3.9 0  -5 3.8 0  -5 3.7 0  -5 3.6 0  -5 3.5 0  -5 3.4 0  -5 3.3 0  -5 3.2 0  -5 3.1 0  -5 3 0  -5 2.9 0  -5 2.8 0  -5 2.7 0  -5 2.6 0  -5 2.5 0  -5 2.4 0  -5 2.3 0  -5 2.2 0  -5 2.1 0  -5 2 0  -5 1.9 0  -5 1.8 0  -5 1.7 0  -5 1.6 0  -5 1.5 0  -5 1.4 0  -5 1.3 0  -5 1.2 0  -5 1.1 0  -5 1 0  -5 0.9000000000000004 0  -5 0.7999999999999998 0  -5 0.7000000000000002 0  -5 0.5999999999999996 0  -5 0.5 0  -5 0.4000000000000004 0  -5 0.2999999999999998 0  -5 0.2000000000000002 0  -5 0.09999999999999964 0  -5 0 0  -5 -0.09999999999999964 0  -5 -0.2000000000000002 0  -5 -0.2999999999999998 0  -5 -0.4000000000000004 0  -5 -0.5 0  -5 -0.5999999999999996 0  -5 -0.7000000000000002 0  -5 -0.7999999999999998 0  -5 -0.9000000000000004 0  -5 -1 0  -5 -1.1 0  -5 -1.2 0  -5 -1.3 0  -5 -1.4 0  -5 -1.5 0  -5 -1.6 0  -5 -1.7 0  -5 -1.8 0  -5 -1.9 0  -5 -2 0  -5 -2.1 0  -5 -2.2 0  -5 -2.3 0  -5 -2.4 0  -5 -2.5 0  -5 -2.6 0  -5 -2.7 0  -5 -2.8 0  -5 -2.9 0  -5 -3 0  -5 -3.1 0  -5 -3.199999999999999 0  -5 -3.300000000000001 0  -5 -3.4 0  -5 -3.5 0  -5 -3.6 0  -5 -3.699999999999999 0  -5 -3.800000000000001 0  -5 -3.9 0  -5 -4 0  -5 -4.1 0  -5 -4.199999999999999 0  -5 -4.300000000000001 0  -5 -4.4 0  -5 -4.5 0  -5 -4.6 0  -5 -4.699999999999999 0  -5 -4.800000000000001 0  -5 -4.9 0  1.087824812887748 0.1004056233402572 0  1.071395337623339 0.1997186386708339 0  1.043727548845172 0.2973753865933812 0  1.006810976381716 0.391030785558317 0  0.959607731188901 0.4819113196140744 0  0.9032611318931565 0.567634763306048 0  0.837421643853921 0.6474588188472442 0  0.7627114046256133 0.7206560342325357 0  0.6811247232652463 0.7870200233861553 0  0.5927659917667761 0.845835375021627 0  0.4981166500974179 0.8958441806868046 0  0.398456074130124 0.937096750217702 0  0.2958461870305109 0.9694192495707805 0  0.1895601361365683 0.9914892421308125 0  0.08211703364867216 1.00420581280227 0  -0.02649124838033926 1.006769463682491 0  -0.1348450318229199 0.9989067670566285 0  -0.2420023395102995 0.9818355366816192 0  -0.3467387671985624 0.9548933798585069 0  -0.4478700338552527 0.9181422707052963 0  -0.5443868999088509 0.8726966040653905 0  -0.635715114321949 0.8181998866230132 0  -0.7207377164448303 0.7557695736982356 0  -0.7986933025512538 0.6859673582725849 0  -0.868922775637271 0.6085858219166044 0  -0.930163577628617 0.5254481896755749 0  -0.982723976035962 0.437507785809317 0  -1.025032708931618 0.3447604291169539 0  -1.056961506645047 0.2489831068049068 0  -1.078650993704384 0.1507689857837612 0  -1.089662858509163 0.0507004906958041 0  -1.089686093297741 -0.04992989578917593 0  -1.078698371180802 -0.1498754824680845 0  -1.058002410469418 -0.2480585908296153 0  -1.025002613356904 -0.3443005653710134 0  -0.9829221825338513 -0.4365984659416552 0  -0.9305645971419689 -0.5247072650077352 0  -0.8694119197832795 -0.6076119136509656 0  -0.7991482307956337 -0.6844741627952701 0  -0.7208240380742107 -0.7540967110076228 0  -0.6353722844935277 -0.8160472139064175 0  -0.5446702261944596 -0.8708486330522465 0  -0.446965931475707 -0.9163628995173027 0  -0.3457577798136229 -0.9534834041791351 0  -0.240837909278179 -0.9806978419339892 0  -0.1339501461840732 -0.9981055076758644 0  -0.02588648465180593 -1.006416050492051 0  0.0823877777324325 -1.003495892670994 0  0.1904477551645782 -0.9905288298501528 0  0.296237232612975 -0.968397418942012 0  0.3998808048416312 -0.9361552379165423 0  0.4986351850331261 -0.8950209876393382 0  0.593116380954105 -0.8451128918147577 0  0.6813444905041903 -0.7872933336446303 0  0.7628899506542375 -0.7209097016730189 0  0.837153329169202 -0.6470849370174661 0  0.9027149909047312 -0.5670085562017154 0  0.9597913064987575 -0.4815181844825525 0  1.007693754595575 -0.3910897375299567 0  1.044504427178518 -0.2969608977617674 0  1.071457907388624 -0.1993256919877434 0  1.087861062039286 -0.100212409941224 0  -2.449329093119672 4.919532192436219 0  -2.449271380889121 -4.912038767807014 0  4.911999384380024 2.449005496565937 0  4.919979725937922 -2.450366324371962 0  2.447137797269898 -4.897540406868859 0  2.441539674222176 4.901243902030096 0  -4.912013351725559 -2.449019679596673 0  -4.91201457481932 2.449023367144561 0  -1.749308355703333 4.913043357530062 0  -1.745060489803369 -4.916402955283665 0  4.922591141767968 1.745074474759528 0  4.911402350798909 -1.748982620605096 0  -4.911671364975501 -1.748699700804407 0  -4.912477876653523 1.748432552750872 0  1.74663020102933 4.907051207727253 0  1.748144442596947 -4.895462795704383 0  -1.149457139481796 4.911253953901345 0  -1.130251237274978 -4.91896021250223 0  -4.911947783277024 -1.148827085952537 0  -4.911775298073436 1.148626149315133 0  1.144411496002698 -4.915248609955542 0  1.149459609011351 4.911247946432529 0  4.91211095106865 1.147109569675394 0  4.92260472659048 -1.152786985389507 0  -0.5469893825438104 -4.91265285862521 0  -0.546740975535621 4.921091284135858 0  -4.911129601044669 -0.5492083336064582 0  -4.911155369371589 0.5477604245861039 0  4.91050273631061 -0.5495363308542495 0  4.921753112932082 0.5462253223575153 0  0.5428021606443703 -4.899921059250505 0  0.5514748661441008 4.918009135409059 0  -4.912933024957714 -3.049187480172878 0  4.91943482613599 3.047146310702113 0  4.912452687760765 -3.049177811588466 0  -4.913775946485058 3.04627190314139 0  3.055972780922876 -4.918408836727897 0  -3.049353908957811 -4.912415000272465 0  3.052905982249959 4.914474574092005 0  -3.048795270077497 4.913296494682031 0  -4.910405863227938 -0.04995765146022466 0  0.04513951538938322 -4.914622889367857 0  0.04958962671615368 4.921446016531772 0  4.917235053997915 -0.05133657813658522 0  3.546152060693144 -4.919745339470856 0  -3.549479158009271 4.91270
[...]
<PointData  Scalars="f_27"> 
<DataArray  type="Float64"  Name="f_27"  format="ascii">0.0000000000000000e+00  0.0000000000000000e+00  0.0000000000000000e+00  0.0000000000000000e+00  6.4882440574645606e-01  0.0000000000000000e+00  0.0000000000000000e+00  0.0000000000000000e+00  0.0000000000000000e+00  0.0000000000000000e+00  0.0000000000000000e+00  0.0000000000000000e+00  0.0000000000000000e+00  0.0000000000000000e+00  0.0000000000000000e+00  0.0000000000000000e+00  0.0000000000000000e+00  0.0000000000000000e+00  0.0000000000000000e+00  0.0000000000000000e+00  0.0000000000000000e+00  0.0000000000000000e+00  0.0000000000000000e+00  0.0000000000000000e+00  0.0000000000000000e+00  0.0000000000000000e+00  0.0000000000000000e+00  0.0000000000000000e+00  0.0000000000000000e+00  0.0000000000000000e+00  0.0000000000000000e+00  0.0000000000000000e+00  0.0000000000000000e+00  0.0000000000000000e+00  0.0000000000000000e+00  0.0000000000000000e+00  0.0000000000000000e+00  0.0000000000000000e+00  0.0000000000000000e+00  0.0000000000000000e+00  0.0000000000000000e+00  0.0000000000000000e+00  0.0000000000000000e+00  0.0000000000000000e+00  0.0000000000000000e+00  0.0000000000000000e+00  0.0000000000000000e+00  0.0000000000000000e+00  0.0000000000000000e+00  0.0000000000000000e+00  0.0000000000000000e+00  0.0000000000000000e+00  0.0000000000000000e+00  0.0000000000000000e+00  0.0000000000000000e+00  0.0000000000000000e+00  0.0000000000000000e+00  0.0000000000000000e+00  0.0000000000000000e+00  0.0000000000000000e+00  0.0000000000000000e+00  0.0000000000000000e+00  0.0000000000000000e+00  0.0000000000000000e+00  0.0000000000000000e+00  0.0000000000000000e+00  0.0000000000000000e+00  0.0000000000000000e+00  0.0000000000000000e+00  0.0000000000000000e+00  0.0000000000000000e+00  0.0000000000000000e+00  0.0000000000000000e+00  0.0000000000000000e+00  0.0000000000000000e+00  0.0000000000000000e+00  0.0000000000000000e+00  0.0000000000000000e+00  0.0000000000000000e+00  0.0000000000000000e+00  0.0000000000000000e+00  0.0000000000000000e+00  0.0000000000000000e+00  0.0000000000000000e+00  0.0000000000000000e+00  0.0000000000000000e+00  0.0000000000000000e+00  0.0000000000000000e+00  0.0000000000000000e+00  0.0000000000000000e+00  0.0000000000000000e+00  0.0000000000000000e+00  0.0000000000000000e+00  0.0000000000000000e+00  0.0000000000000000e+00  0.0000000000000000e+00  0.0000000000000000e+00  0.0000000000000000e+00  0.0000000000000000e+00  0.0000000000000000e+00  0.0000000000000000e+00  0.0000000000000000e+00  0.0000000000000000e+00  0.0000000000000000e+00  0.0000000000000000e+00  0.0000000000000000e+00  0.0000000000000000e+00  0.0000000000000000e+00  0.0000000000000000e+00  0.0000000000000000e+00  0.0000000000000000e+00  0.0000000000000000e+00  0.0000000000000000e+00  0.0000000000000000e+00  0.0000000000000000e+00  0.0000000000000000e+00  0.0000000000000000e+00  0.0000000000000000e+00  0.0000000000000000e+00  0.0000000000000000e+00  0.0000000000000000e+00  0.0000000000000000e+00  0.0000000000000000e+00  0.0000000000000000e+00  0.0000000000000000e+00  0.0000000000000000e+00  0.0000000000000000e+00  0.0000000000000000e+00  0.0000000000000000e+00  0.0000000000000000e+00  0.0000000000000000e+00  0.0000000000000000e+00  0.0000000000000000e+00  0.0000000000000000e+00  0.0000000000000000e+00  0.0000000000000000e+00  0.0000000000000000e+00  0.0000000000000000e+00  0.0000000000000000e+00  0.0000000000000000e+00  0.0000000000000000e+00  0.0000000000000000e+00  0.0000000000000000e+00  0.0000000000000000e+00  0.0000000000000000e+00  0.0000000000000000e+00  0.0000000000000000e+00  0.0000000000000000e+00  0.0000000000000000e+00  0.0000000000000000e+00  0.0000000000000000e+00  0.0000000000000000e+00  0.0000000000000000e+00  0.0000000000000000e+00  0.0000000000000000e+00  0.0000000000000000e+00  0.0000000000000000e+00  0.0000000000000000e+00  0.0000000000000000e+00  0.0000000000000000e+00  0.0000000000000000e+00  0.0000000000000000e+00  0.0000000000000000e+00  0.0000000000000000e+00  0.0000000000000000e+00  0.0000000000000000e+00  0.0000000000000000e+00  0.0000000000000000e+00  0.0000000000000000e+00  0.0000000000000000e+00  0.0000000000000000e+00  0.0000000000000000e+00  0.0000000000000000e+00  0.0000000000000000e+00  0.0000000000000000e+00  0.0000000000000000e+00  0.0000000000000000e+00  0.0000000000000000e+00  0.0000000000000000e+00  0.0000000000000000e+00  0.0000000000000000e+00  0.0000000000000000e+00  0.0000000000000000e+00  0.0000000000000000e+00  0.0000000000000000e+00  0.0000000000000000e+00  0.0000000000000000e+00  0.0000000000000000e+00  0.0000000000000000e+00  0.0000000000000000e+00  0.0000000000000000e+00  0.0000000000000000e+00  0.0000000000000000e+00  0.0000000000000000e+00  0.0000000000000000e+00  0.0000000000000000e+00  0.0000000000000000e+00  0.0000000000000000e+00  0.0000000000000000e+00  0.0000000000000000e+00  0.0000000000000000e+00  0.0000000000000000e+00  0.0000000000000000e+00  0.0000000000000000e+00  0.0000000000000000e+00  0.0000000000000000e+00  0.0000000000000000e+00  0.0000000000000000e+00  0.0000000000000000e+00  0.0000000000000000e+00  0.0000000000000000e+00  0.0000000000000000e+00  0.0000000000000000e+00  0.0000000000000000e+00  0.0000000000000000e+00  0.0000000000000000e+00  0.0000000000000000e+00  0.0000000000000000e+00  0.0000000000000000e+00  0.0000000000000000e+00  0.0000000000000000e+00  0.0000000000000000e+00  0.0000000000000000e+00  0.0000000000000000e+00  0.0000000000000000e+00  0.0000000000000000e+00  0.0000000000000000e+00  0.0000000000000000e+00  0.0000000000000000e+00  0.0000000000000000e+00  0.0000000000000000e+00  0.0000000000000000e+00  0.0000000000000000e+00  0.0000000000000000e+00  0.0000000000000000e+00  0.0000000000000000e+00  0.0000000000000000e+00  0.0000000000000000e+00  0.0000000000000000e+00  0.0000000000000000e+00  0.0000000000000000e+00  0.0000000000000000e+00  0.0000000000000000e+00  0.0000000000000000e+00  0.0000000000000000e+00  0.0000000000000000e+00  0.0000000000000000e+00  0.0000000000000000e+00  0.0000000000000000e+00  0.0000000000000000e+00  0.0000000000000000e+00  0.0000000000000000e+00  0.0000000000000000e+00  0.0000000000000000e+00  0.0000000000000000e+00  0.0000000000000000e+00  0.0000000000000000e+00  0.0000000000000000e+00  0.0000000000000000e+00  0.0000000000000000e+00  0.0000000000000000e+00  0.0000000000000000e+00  0.0000000000000000e+00  0.0000000000000000e+00  0.0000000000000000e+00  0.0000000000000000e+00  0.0000000000000000e+00  0.0000000000000000e+00  0.0000000000000000e+00  0.0000000000000000e+00  0.0000000000000000e+00  0.0000000000000000e+00  0.0000000000000000e+00  0.0000000000000000e+00  0.0000000000000000e+00  0.0000000000000000e+00  0.0000000000000000e+00  0.0000000000000000e+00  0.0000000000000000e+00  0.0000000000000000e+00  0.0000000000000000e+00  0.0000000000000000e+00  0.0000000000000000e+00  0.0000000000000000e+00  0.0000000000000000e+00  0.0000000000000000e+00  0.0000000000000000e+00  0.0000000000000000e+00  0.0000000000000000e+00  0.0000000000000000e+00  0.0000000000000000e+00  0.0000000000000000e+00  0.0000000000000000e+00  0.0000000000000000e+00  0.0000000000000000e+00  0.0000000000000000e+00  0.0000000000000000e+00  0.0000000000000000e+00  0.0000000000000000e+00  0.0000000000000000e+00  0.0000000000000000e+00  0.0000000000000000e+00  0.0000000000000000e+00  0.0000000000000000e+00  0.0000000000000000e+00  0.0000000000000000e+00  0.0000000000000000e+00  0.0000000000000000e+00  0.0000000000000000e+00  0.0000000000000000e+00  0.0000000000000000e+00  0.0000000000000000e+00  0.0000000000000000e+00  0.0000000000000000e+00  0.0000000000000000e+00  0.0000000000000000e+00  0.0000000000000000e+00  0.0000000000000000e+00  0.0000000000000000e+00  0.0000000000000000e+00  0.0000000000000000e+00  0.0000000000000000e+00  0.0000000000000000e+00  0.0000000000000000e+00  0.0000000000000000e+00  0.0000000000000000e+00  0.0000000000000000e+00  0.0000000000000000e+00  0.0000000000000000e+00  0.0000000000000000e+00  0.0000000000000000e+00  0.0000000000000000e+00  0.0000000000000000e+00  0.0000000000000000e+00  0.0000000000000000e+00  0.0000000000000000e+00  0.0000000000000000e+00  0.0000000000000000e+00  0.0000000000000000e+00  0.0000000000000000e+00  0.0000000000000000e+00  0.0000000000000000e+00  0.0000000000000000e+00  0.0000000000000000e+00  0.0000000000000000e+00  0.0000000000000000e+00  0.0000000000000000e+00  0.0000000000000000e+00  0.0000000000000000e+00  0.0000000000000000e+00  0.0000000000000000e+00  0.0000000000000000e+00  0.0000000000000000e+00  0.0000000000000000e+00  0.0000000000000000e+00  0.0000000000000000e+00  0.0000000000000000e+00  0.0000000000000000e+00  0.0000000000000000e+00  0.0000000000000000e+00  0.0000000000000000e+00  0.0000000000000000e+00  0.0000000000000000e+00  0.0000000000000000e+00  0.0000000000000000e+00  0.0000000000000000e+00  0.0000000000000000e+00  0.0000000000000000e+00  0.0000000000000000e+00  0.0000000000000000e+00  0.0000000000000000e+00  0.0000000000000000e+00  0.0000000000000000e+00  0.0000000000000000e+00  0.0000000000000000e+00  0.0000000000000000e+00  0.0000000000000000e+00  0.0000000000000000e+00  0.0000000000000000e+00  0.0000000000000000e+00  0.0000000000000000e+00  0.0000000000000000e+00  0.0000000000000000e+00  0.0000000000000000e+00  0.0000000000000000e+00  0.0000000000000000e+00  0.0000000000000000e+00  0.0000000000000000e+00  0.0000000000000000e+00  0.0000000000000000e+00  0.0000000000000000e+00  0.0000000000000000e+00  0.0000000000000000e+00  0.0000000000000000e+00  0.0000000000000000e+00  0.0000000000000000e+00  0.0000000000000000e+00  0.0000000000000000e+00  0.0000000000000000e+00  0.0000000000000000e+00  0.0000000000000000e+00  6.3892916856585846e-01  6.5178871432168795e-01  7.2194291314131043e-01  7.1777914931646114e-01  6.7419101220117728e-01  6.0352065323076498e-01  6.1574307566966302e-01  6.9200715437357918e-01  6.6229312237583426e-01  5.9591010879315964e-01  6.2184798451788370e-01  6.4049699441698460e-01  5.7716736030069782e-01  6.6299400869462644e-01  6.5519200620970430e-01  6.6326258633513380e-01  7.0378096473187612e-01  6.4570538507944486e-01  6.3000274988177030e-01  6.6763820993971712e-01  6.4797201065253540e-01  6.5917237427418640e-01  6.4782594621289225e-01  6.1739937946912515e-01  6.4951201304600059e-01  6.8620081009201650e-01  6.4052402300889044e-01  6.6308328783276904e-01  7.0381588250333471e-01  6.8281117972568184e-01  6.6016231377814372e-01  6.5541338977757324e-01  6.7452737783766281e-01  5.7315801621808793e-01  6.6687963732063182e-01  6.3590733133404787e-01  6.6244636670192580e-01  6.1885832243637329e-01  6.2004032570598111e-01  6.6497919324898769e-01  7.3003013582134635e-01  6.0059559329232215e-01  6.7182876422233528e-01  6.2154925938405103e-01  6.3403315745670996e-01  6.5864014799284709e-01  5.4259927492084592e-01  5.9366621780079853e-01  6.4698769132492484e-01  6.2805337373681847e-01  6.5981412164727904e-01  6.8626104482603967e-01  6.5871389927081114e-01  6.1123564490681470e-01  6.4099585265663916e-01  6.5365534212191045e-01  6.8655367189837779e-01  6.5163914938927425e-01  5.7518536488727978e-01  6.3471571664328741e-01  6.4437059208312542e-01  6.2551119589982862e-01  -2.1359905444354605e-31  1.4941607886564756e-31  3.0223658529155968e-34  5.0430911317174513e-34  2.6440198420389243e-31  3.3857610387820414e-31  -2.3793016873100582e-36  -5.8141798056115481e-35  -3.4241351098064255e-31  -1.2101878299923367e-31  7.0857454021780130e-32  9.5798823709739903e-32  5.2849283203153225e-32  6.0942227723523421e-32  3.1864830730912408e-30  1.7031296635391986e-30  -5.3214361785910329e-30  2.8882323958997389e-31  -7.6955725651085071e-30  -1.0667175845362257e-29  -1.7925404046382283e-30  -1.9522509504877340e-30  -5.3299807820730527e-30  -6.1511958258307007e-30  -3.7496806937406229e-30  -2.9822121122326067e-30  -1.0969498526649918e-28  5.5836412326432196e-30  -4.3253837260077129e-29  -2.3891745623312865e-28  7.9763822145608950e-30  -2.0302871578740558e-30  -4.7562146295816467e-36  3.2739693986501146e-36  2.5559225193195277e-36  -4.8176447159324769e-36  4.6972812084474723e-33  3.3557369134227271e-33  2.7176513073101134e-33  3.0470106271342263e-33  -1.0659742195594950e-27  1.0780800320188934e-29  -3.3147967260183277e-31  1.7605610438901602e-27  1.0755600557230421e-35  6.3627609875034523e-36  1.4001828440365300e-35  -4.4043627645964669e-38  3.9601498350260989e-39  -4.7138481331514783e-38  1.8374782003144229e-38  -2.9324747295370204e-36  8.4743451817181301e-40  -1.7165859729993478e-37  -4.2244334360679834e-38  -1.4885324745472831e-39  -1.8154212740382911e-37  1.2860511321470478e-39  -1.0215182659347502e-37  -2.0348780781769696e-39  -4.0225248327079319e-40  -5.3029296982180253e-40  -4.2084747804659018e-40  -1.4309837663962637e-41  -1.0323967904678319e-42  4.7023931556147599e-41  6.1977529442178275e-41  -5.5363251888833386e-40  1.7336164188012580e-27  2.1252151210809503e-30  -1.3851571476079428e-30  1.5724975523190290e-27  3.3269366958918909e-30  1.5857724506886428e-30  8.3979175823881529e-30  8.7482411452336268e-30  1.7101444764738972e-30  1.6482832563312687e-30  -1.2090987390080805e-30  -9.6971482174624672e-30  -1.6728253827696306e-30  -4.6916300257063955e-31  3.2295443530251572e-29  5.6139140304292345e-29  -3.2225565603632567e-31  1.6966592048045376e-30  -1.4886365010865037e-30  7.2776308588162002e-31  -2.1730376626802306e-30  -1.5325413692553491e-30  -1.6735525391268396e-32  -1.5845003462486786e-32  -4.2891477410833641e-31  -4.8681149780099924e-31  8.9113499690289613e-33  8.6887813973992031e-33  4.0863626184838941e-35  -1.5996388497367657e-32  2.7094217182611244e-32  -4.2736170198990155e-35  9.6916315031472201e-33  -4.1240257603659441e-35  3.8691371430331866e-35  3.9296703460766320e-32  2.3204000670837042e-42  8.2768629552547688e-42  -1.7148977930269817e-42  -3.7371887054423732e-42  -8.4556125767435227e-43  -2.5486295505194194e-42  3.8353119783186708e-42  2.7695908297974047e-42  3.5404919677415868e-28  1.6149812351992335e-29  3.7280462022693850e-30  1.7448951401175891e-27  6.9934763687267166e-32  -1.9858975362299301e-33  -2.2827559279306824e-33  -2.0371325758591452e-31  2.2346888381994781e-33  1.8503237755919890e-31  3.1286905098859038e-31  2.1354806820681616e-33  -6.3967574741067698e-37  -1.0255703351901443e-33  -4.5963322861172975e-34  2.2654541731628416e-38  -5.3085459964187513e-37  -1.8435154083648867e-35  -6.4988084827393921e-34  1.7805599726231989e-37  3.5679660496548459e-39  -2.0481320149420111e-40  -1.8005151873407841e-36  -3.4462199968027401e-39  -7.6206392857522141e-37  -3.1073753564769280e-39  1.0374887858175386e-38  -1.0579131315388236e-40  -8.8368685344267752e-37  -4.7271869800096498e-39  1.6201795361331716e-40  -1.8374587874154180e-40  9.9162676045840449e-39  -4.4887592698959297e-41  -4.7409692278639980e-37  -4.5584702994276860e-39  -8.6379328037639456e-43  3.7453723195203736e-43  -5.8773693572685355e-43  -1.3345445220943207e-42  -4.4861822428096740e-28  1.1428270544219804e-29  -2.2805569958893627e-27  5.5952845930638012e-27  9.0391105467983434e-27  -3.2877901429339179e-26  -2.6823122388909714e-26  1.2785973119230250e-25  5.5431320158568444e-26  -3.7421976838713824e-25  -2.9848440844895779e-26  7.5100657981280519e-25  -4.0000434081241589e-25  -3.0858393821578784e-25  2.5004726656359374e-24  -5.9797758799765256e-24  -9.6217977183197451e-24  3.5819362357417426e-23  2.7644414989171978e-23  -1.3522209304587839e-22  -5.6820771452035308e-23  -8.9047588183514849e-23  3.8277240224709902e-22  4.6874851454430696e-23  -7.6408555366058994e-22  2.4179112036586832e-22  4.8922000986625178e-22  -1.4416435219398690e-21  3.8240930311937379e-21  4.3577991149658327e-21  -2.0771953148967327e-20  -7.1791409033343030e-21  4.5448095654620627e-21  5.9615925744339733e-20  -4.5023261866835717e-21  -8.3992702082303798e-20  7.0612700778546641e-20  -1.2255797599970072e-19  -2.2144766575362729e-19  1.0759631415574572e-18  2.4854429607754110e-19  -2.8511120915422225e-18  7.4722739479556547e-19  -2.5981774247578425e-18  1.7086681221054006e-18  -3.9036817373895757e-18  1.4406065770499172e-17  5.8237527837921320e-18  1.7991940622677968e-19  -4.1134034139893436e-18  1.0048741297225862e-17  8.1166564101977753e-18  -2.2229837854125846e-19  -4.0704878996233552e-18  8.4336877373707320e-19  -2.6881593087466833e-19  8.2604671466868958e-18  -4.0048574104389606e-18  7.9222043696126602e-19  4.1560425235961879e-20  -2.3234139816615766e-19  6.1618081264990935e-19  -3.7136974118765549e-18  4.9520959308410496e-19  -2.4503617568272493e-19  3.3922647132008868e-19  -2.8648482353204729e-18  7.8361885565205486e-19  -2.1095500802137160e-19  5.9350647268856813e-20  -1.6079962304657145e-18  7.7084920094099781e-19  -2.4018348621182696e-18  4.3118341730634093e-20  -4.0653376009945270e-19  6.7821939654705750e-18  -3.1370979212779585e-18  9.6603395616707198e-18  1.5971863956309914e-18  -3.4299314325527012e-17  2.0283911923089199e-17  -1.0947931171185587e-16  -2.7066691139335552e-18  3.1211987412379924e-17  -7.3355524617538012e-17  -1.1884201469503975e-17  2.1641144993250426e-16  -1.1443811597176460e-16  6.0731061776060374e-16  -1.8504175785259750e-16  6.4644166308084618e-16  -1.1794285258570737e-16  1.4956132007227521e-16  4.0734731812670316e-17  -3.7030265548338299e-16  4.5087428705929710e-17  1.3512840111041502e-17  -1.7729424517878278e-01  1.0906069401127253e-16  -2.8881275259106541e-16  9.3163135164186088e-18  2.5006353546288181e-16  -1.9529917241644576e-01  -1.2348099441031408e-16  5.6439969350206094e-16  -1.7752004840681881e-01  -1.3981974656325005e-16  3.8895745531618440e-16  -1.9702150022076186e-15  -7.8768249766791028e-16  5.9970998913134188e-17  1.8117800591682268e-16  -2.6288513636072241e-15  3.9444206667551917e-17  -9.4417964870902862e-17  3.6263059835767692e-16  -1.3319528676541781e-15  -1.0176709676544180e-15  1.6422257191089010e-16  -2.3878174063174534e-16  2.1857299702067775e-15  3.8822478041757039e-18  9.1986289888864284e-17  -3.3884143119168266e-16  1.3665019385875146e-15  4.8524778496887643e-16  4.0709406226998371e-17  -5.0601962014507424e-16  1.1271109005504420e-15  1.3566131115725197e-15  -7.9822606799438867e-17  -6.2184084519159736e-16  4.8792464862923634e-17  2.5130764775444894e-15  -2.8387639893754951e-16  -5.8142382264335387e-16  -1.9166507660687179e-15  3.4009258211523966e-15  -1.3887299820957079e-14  -2.9537134192607941e-15  -6.0224288101898797e-16  3.8467968555905546e-15  -1.6419871362239058e-14  -1.7475346595891598e-15  -8.5176498714384848e-16  3.5522443234502941e-15  -1.8746334556967747e-14  1.5911899824908760e-15  2.0818417429559821e-14  -1.6070017073568901e-14  7.1686224403835511e-14  -4.1225040330608792e-15  4.2981263580456643e-15  -6.6205980503973618e-15  4.7024894578454183e-14  -1.0825576787627278e-14  -5.9406110901632983e-16  2.2769485235514456e-14  -1.5635819101524618e-13  4.3179422617402198e-14  -6.7592875974876312e-14  -4.3134344017529318e-14  -3.5897219978054764e-15  3.2967687579188988e-14  -2.0630485137358855e-13  7.3401595411863147e-14  -3.2216977990258867e-13  9.3009798624754422e-14  -3.5979347317028907e-13  9.9824092933200053e-14  -3.8758434392055434e-13  1.1028735516647822e-13  -4.3624815468008963e-13  1.2321163046341073e-13  -4.7047485456541335e-13  1.2353442749548757e-13  -4.2287368112489226e-13  9.3570948712362822e-14  -2.4980357149726048e-13  3.6912728965471519e-14  -3.3717993640013981e-14  -1.0292677217114513e-14  7.5486099651772535e-14  -1.9391274446218326e-14  4.7459034733405729e-14  -5.0368848504608729e-15  -4.5244490994849193e-15  3.5365454443516217e-15  -1.3187370417120376e-16  -4.1856753598404468e-16  2.1099001016416358e-16  3.8064748288314628e-18  -5.5601157053282683e-17  1.3336545523166281e-17  8.2139272164330071e-18  -3.9902533423533686e-18  -2.6845290526324900e-19  -4.2793695652620875e-18  6.6820029462870438e-19  -2.5966773144621796e-14  1.2416366807635923e-18  -2.5353469345411669e-18  9.4343209158367873e-20  1.2034361998037057e-18  -3.3191651734442379e-19  5.7591034264279892e-19  -3.0534964549123506e-21  