<?xml version="1.0"?>
<VTKFile type="UnstructuredGrid"  version="0.1"  >
<UnstructuredGrid>
<Piece  NumberOfPoints="11902" NumberOfCells="23402">
<Points>
<DataArray  type="Float64"  NumberOfComponents="3"  format="ascii">-5 -5 0  5 -5 0  5 5 0  -5 5 0  1.243965896209419 0.001376714555304842 0  -4.9 -5 0  -4.8 -5 0  -4.7 -5 0  -4.6 -5 0  -4.5 -5 0  -4.4 -5 0  -4.3 -5 0  -4.2 -5 0  -4.1 -5 0  -4 -5 0  -3.9 -5 0  -3.8 -5 0  -3.7 -5 0  -3.6 -5 0  -3.5 -5 0  -3.4 -5 0  -3.3 -5 0  -3.2 -5 0  -3.1 -5 0  -3 -5 0  -2.9 -5 0  -2.8 -5 0  -2.7 -5 0  -2.6 -5 0  -2.5 -5 0  -2.4 -5 0  -2.3 -5 0  -2.2 -5 0  -2.1 -5 0  -2 -5 0  -1.9 -5 0  -1.8 -5 0  -1.7 -5 0  -1.6 -5 0  -1.5 -5 0  -1.4 -5 0  -1.3 -5 0  -1.2 -5 0  -1.1 -5 0  -1 -5 0  -0.9000000000000004 -5 0  -0.7999999999999998 -5 0  -0.7000000000000002 -5 0  -0.5999999999999996 -5 0  -0.5 -5 0  -0.4000000000000004 -5 0  -0.2999999999999998 -5 0  -0.2000000000000002 -5 0  -0.09999999999999964 -5 0  0 -5 0  0.09999999999999964 -5 0  0.2000000000000002 -5 0  0.2999999999999998 -5 0  0.4000000000000004 -5 0  0.5 -5 0  0.5999999999999996 -5 0  0.7000000000000002 -5 0  0.7999999999999998 -5 0  0.9000000000000004 -5 0  1 -5 0  1.1 -5 0  1.2 -5 0  1.3 -5 0  1.4 -5 0  1.5 -5 0  1.6 -5 0  1.7 -5 0  1.8 -5 0  1.9 -5 0  2 -5 0  2.1 -5 0  2.2 -5 0  2.3 -5 0  2.4 -5 0  2.5 -5 0  2.6 -5 0  2.7 -5 0  2.8 -5 0  2.9 -5 0  3 -5 0  3.1 -5 0  3.199999999999999 -5 0  3.300000000000001 -5 0  3.4 -5 0  3.5 -5 0  3.6 -5 0  3.699999999999999 -5 0  3.800000000000001 -5 0  3.9 -5 0  4 -5 0  4.1 -5 0  4.199999999999999 -5 0  4.300000000000001 -5 0  4.4 -5 0  4.5 -5 0  4.6 -5 0  4.699999999999999 -5 0  4.800000000000001 -5 0  4.9 -5 0  5 -4.9 0  5 -4.8 0  5 -4.7 0  5 -4.6 0  5 -4.5 0  5 -4.4 0  5 -4.3 0  5 -4.2 0  5 -4.1 0  5 -4 0  5 -3.9 0  5 -3.8 0  5 -3.7 0  5 -3.6 0  5 -3.5 0  5 -3.4 0  5 -3.3 0  5 -3.2 0  5 -3.1 0  5 -3 0  5 -2.9 0  5 -2.8 0  5 -2.7 0  5 -2.6 0  5 -2.5 0  5 -2.4 0  5 -2.3 0  5 -2.2 0  5 -2.1 0  5 -2 0  5 -1.9 0  5 -1.8 0  5 -1.7 0  5 -1.6 0  5 -1.5 0  5 -1.4 0  5 -1.3 0  5 -1.2 0  5 -1.1 0  5 -1 0  5 -0.9000000000000004 0  5 -0.7999999999999998 0  5 -0.7000000000000002 0  5 -0.5999999999999996 0  5 -0.5 0  5 -0.4000000000000004 0  5 -0.2999999999999998 0  5 -0.2000000000000002 0  5 -0.09999999999999964 0  5 0 0  5 0.09999999999999964 0  5 0.2000000000000002 0  5 0.2999999999999998 0  5 0.4000000000000004 0  5 0.5 0  5 0.5999999999999996 0  5 0.7000000000000002 0  5 0.7999999999999998 0  5 0.9000000000000004 0  5 1 0  5 1.1 0  5 1.2 0  5 1.3 0  5 1.4 0  5 1.5 0  5 1.6 0  5 1.7 0  5 1.8 0  5 1.9 0  5 2 0  5 2.1 0  5 2.2 0  5 2.3 0  5 2.4 0  5 2.5 0  5 2.6 0  5 2.7 0  5 2.8 0  5 2.9 0  5 3 0  5 3.1 0  5 3.199999999999999 0  5 3.300000000000001 0  5 3.4 0  5 3.5 0  5 3.6 0  5 3.699999999999999 0  5 3.800000000000001 0  5 3.9 0  5 4 0  5 4.1 0  5 4.199999999999999 0  5 4.300000000000001 0  5 4.4 0  5 4.5 0  5 4.6 0  5 4.699999999999999 0  5 4.800000000000001 0  5 4.9 0  4.9 5 0  4.8 5 0  4.7 5 0  4.6 5 0  4.5 5 0  4.4 5 0  4.3 5 0  4.2 5 0  4.1 5 0  4 5 0  3.9 5 0  3.8 5 0  3.7 5 0  3.6 5 0  3.5 5 0  3.4 5 0  3.3 5 0  3.2 5 0  3.1 5 0  3 5 0  2.9 5 0  2.8 5 0  2.7 5 0  2.6 5 0  2.5 5 0  2.4 5 0  2.3 5 0  2.2 5 0  2.1 5 0  2 5 0  1.9 5 0  1.8 5 0  1.7 5 0  1.6 5 0  1.5 5 0  1.4 5 0  1.3 5 0  1.2 5 0  1.1 5 0  1 5 0  0.9000000000000004 5 0  0.7999999999999998 5 0  0.7000000000000002 5 0  0.5999999999999996 5 0  0.5 5 0  0.4000000000000004 5 0  0.2999999999999998 5 0  0.2000000000000002 5 0  0.09999999999999964 5 0  0 5 0  -0.09999999999999964 5 0  -0.2000000000000002 5 0  -0.2999999999999998 5 0  -0.4000000000000004 5 0  -0.5 5 0  -0.5999999999999996 5 0  -0.7000000000000002 5 0  -0.7999999999999998 5 0  -0.9000000000000004 5 0  -1 5 0  -1.1 5 0  -1.2 5 0  -1.3 5 0  -1.4 5 0  -1.5 5 0  -1.6 5 0  -1.7 5 0  -1.8 5 0  -1.9 5 0  -2 5 0  -2.1 5 0  -2.2 5 0  -2.3 5 0  -2.4 5 0  -2.5 5 0  -2.6 5 0  -2.7 5 0  -2.8 5 0  -2.9 5 0  -3 5 0  -3.1 5 0  -3.199999999999999 5 0  -3.300000000000001 5 0  -3.4 5 0  -3.5 5 0  -3.6 5 0  -3.699999999999999 5 0  -3.800000000000001 5 0  -3.9 5 0  -4 5 0  -4.1 5 0  -4.199999999999999 5 0  -4.300000000000001 5 0  -4.4 5 0  -4.5 5 0  -4.6 5 0  -4.699999999999999 5 0  -4.800000000000001 5 0  -4.9 5 0  -5 4.9 0  -5 4.8 0  -5 4.7 0  -5 4.6 0  -5 4.5 0  -5 4.4 0  -5 4.3 0  -5 4.2 0  -5 4.1 0  -5 4 0  -5 3.9 0  -5 3.8 0  -5 3.7 0  -5 3.6 0  -5 3.5 0  -5 3.4 0  -5 3.3 0  -5 3.2 0  -5 3.1 0  -5 3 0  -5 2.9 0  -5 2.8 0  -5 2.7 0  -5 2.6 0  -5 2.5 0  -5 2.4 0  -5 2.3 0  -5 2.2 0  -5 2.1 0  -5 2 0  -5 1.9 0  -5 1.8 0  -5 1.7 0  -5 1.6 0  -5 1.5 0  -5 1.4 0  -5 1.3 0  -5 1.2 0  -5 1.1 0  -5 1 0  -5 0.9000000000000004 0  -5 0.7999999999999998 0  -5 0.7000000000000002 0  -5 0.5999999999999996 0  -5 0.5 0  -5 0.4000000000000004 0  -5 0.2999999999999998 0  -5 0.2000000000000002 0  -5 0.09999999999999964 0  -5 0 0  -5 -0.09999999999999964 0  -5 -0.2000000000000002 0  -5 -0.2999999999999998 0  -5 -0.4000000000000004 0  -5 -0.5 0  -5 -0.5999999999999996 0  -5 -0.7000000000000002 0  -5 -0.7999999999999998 0  -5 -0.9000000000000004 0  -5 -1 0  -5 -1.1 0  -5 -1.2 0  -5 -1.3 0  -5 -1.4 0  -5 -1.5 0  -5 -1.6 0  -5 -1.7 0  -5 -1.8 0  -5 -1.9 0  -5 -2 0  -5 -2.1 0  -5 -2.2 0  -5 -2.3 0  -5 -2.4 0  -5 -2.5 0  -5 -2.6 0  -5 -2.7 0  -5 -2.8 0  -5 -2.9 0  -5 -3 0  -5 -3.1 0  -5 -3.199999999999999 0  -5 -3.300000000000001 0  -5 -3.4 0  -5 -3.5 0  -5 -3.6 0  -5 -3.699999999999999 0  -5 -3.800000000000001 0  -5 -3.9 0  -5 -4 0  -5 -4.1 0  -5 -4.199999999999999 0  -5 -4.300000000000001 0  -5 -4.4 0  -5 -4.5 0  -5 -4.6 0  -5 -4.699999999999999 0  -5 -4.800000000000001 0  -5 -4.9 0  1.236750609829717 0.09657501183969336 0  1.216153947689815 0.1938363809997128 0  1.183094875501691 0.2904573876632668 0  1.140617349311652 0.3801368027073749 0  1.084284273067244 0.4706763123976305 0  1.01949408672108 0.5554179759982159 0  0.9426544133643714 0.6351686320480835 0  0.8571100658705507 0.7089793708632882 0  0.765629149660098 0.7743382801847016 0  0.6640321201259991 0.8320032782841608 0  0.5544802807360207 0.8841630548947593 0  0.442919409785521 0.927397887712921 0  0.3300403971150227 0.9601490302581511 0  0.2078811026596509 0.9818366454377854 0  0.08941881647076483 0.999671272619843 0  -0.02755111310951553 1.002724443847514 0  -0.1452518311888275 0.9900677014497775 0  -0.2695003398085958 0.971708762274123 0  -0.3875829631260795 0.9468240782104518 0  -0.4984233973430287 0.9104951854430066 0  -0.6065287143712307 0.8642026072776128 0  -0.7084873992439085 0.8097626264555597 0  -0.8027558531186704 0.7454346819899362 0  -0.8924058412811748 0.6730355520458043 0  -0.9759747406245323 0.5940041372057207 0  -1.0483977911026 0.5126755116578767 0  -1.10967288670395 0.4265987012617045 0  -1.160670912794941 0.3349980351033275 0  -1.198269091124748 0.243473243137746 0  -1.222763166773761 0.1487298244679388 0  -1.234703979890273 0.05086476861382165 0  -1.23465813022101 -0.04875898633611352 0  -1.222656220985575 -0.1460208986070794 0  -1.198139612099784 -0.2401500980438803 0  -1.1586418877007 -0.3351480203084636 0  -1.109897820411932 -0.4262419162312959 0  -1.049764881747535 -0.5122723160964692 0  -0.9781426051922447 -0.5929173815162885 0  -0.8951817288748779 -0.670689055496237 0  -0.8057686605584815 -0.7415944756613195 0  -0.7099167895325056 -0.8025589088014391 0  -0.6061874888197691 -0.856021056160604 0  -0.4945082945782618 -0.9048731589435838 0  -0.3820278936633512 -0.9439190540534323 0  -0.2661862251959713 -0.9710740781964423 0  -0.1439076535587313 -0.9895856563192751 0  -0.02795273247008087 -1.001861840737563 0  0.08955037644800813 -0.9953558792219539 0  0.212378424505411 -0.9789153313730641 0  0.3323426449538155 -0.9585607482139937 0  0.4469675098082733 -0.9260507116923322 0  0.5566885710471767 -0.8832661059305799 0  0.664902417690892 -0.8319865072301323 0  0.7656673416603641 -0.7755064153489732 0  0.857192719106571 -0.7099182026564488 0  0.9420370166318622 -0.635017948605505 0  1.01716711215314 -0.5546914056684208 0  1.084410838411932 -0.4697619289068317 0  1.141546050699181 -0.3802550249444187 0  1.184774968707848 -0.2885095702257122 0  1.216691204695506 -0.1929463783520627 0  1.236943057928464 -0.0962008034107442 0  -2.44860982702316 4.918202356979882 0  -2.448488380641175 -4.910588757064244 0  4.910515199741786 2.447960793426696 0  4.918632866626504 -2.449416313016468 0  2.446226689397956 -4.895836695617596 0  2.440658219044197 4.899595781572069 0  -4.910541554539859 -2.447986508319569 0  -4.910538988658012 2.447990387153117 0  -1.748565815650676 4.911129912620608 0  -1.744350363775761 -4.914566469230723 0  4.920716569110638 1.744129370400514 0  4.909262117748865 -1.747899112447123 0  -4.90955499183186 -1.747632455745061 0  -4.910376518239764 1.747376612210628 0  1.745841832974427 4.904994894007428 0  1.747261242075426 -4.893154481707504 0  -1.148866671600451 4.908938381913767 0  -1.129720623587181 -4.916843730603095 0  -4.90929894121559 -1.147949178196918 0  -4.909117618232592 1.147749531111249 0  1.143859758901359 -4.913032860295569 0  1.148876261444036 4.908925428553394 0  4.909439830082727 1.14622481597324 0  4.920258195180619 -1.152004241732563 0  -0.54668208339124 -4.910139518518367 0  -0.5464634114267162 4.918813495386212 0  -4.908052678605634 -0.5487203781358087 0  -4.908076699968674 0.5472778715274642 0  4.907374067825638 -0.5490390135372788 0  4.919016087233723 0.5457947056721061 0  0.5424657683334083 -4.897033612289128 0  0.5511923570690788 4.915640195331556 0  -4.911940015925522 -3.048333442047875 0  4.918507839267574 3.046347006413207 0  4.911448297977902 -3.048309760204201 0  -4.912787554548124 3.045424679421701 0  3.055330630218691 -4.917433604103102 0  -3.048663745531294 -4.911372719499985 0  3.052230294615383 4.913449653948493 0  -3.048109133281184 4.912262109456607 0  -4.907168693864397 -0.04990892718965094 0  0.04512066391058166 -4.912090633126381 0  0.04956840579491581 4.919109483479018 0  4.914215725150012 -0.05129092548853571 0  3.545642883091358 -4.919062303729512 0  -3.548925421440529 4.91196
[...]
<PointData  Scalars="f_27"> 
<DataArray  type="Float64"  Name="f_27"  format="ascii">0.0000000000000000e+00  0.0000000000000000e+00  0.0000000000000000e+00  0.0000000000000000e+00  9.5203513413077423e-01  0.0000000000000000e+00  0.0000000000000000e+00  0.0000000000000000e+00  0.0000000000000000e+00  0.0000000000000000e+00  0.0000000000000000e+00  0.0000000000000000e+00  0.0000000000000000e+00  0.0000000000000000e+00  0.0000000000000000e+00  0.0000000000000000e+00  0.0000000000000000e+00  0.0000000000000000e+00  0.0000000000000000e+00  0.0000000000000000e+00  0.0000000000000000e+00  0.0000000000000000e+00  0.0000000000000000e+00  0.0000000000000000e+00  0.0000000000000000e+00  0.0000000000000000e+00  0.0000000000000000e+00  0.0000000000000000e+00  0.0000000000000000e+00  0.0000000000000000e+00  0.0000000000000000e+00  0.0000000000000000e+00  0.0000000000000000e+00  0.0000000000000000e+00  0.0000000000000000e+00  0.0000000000000000e+00  0.0000000000000000e+00  0.0000000000000000e+00  0.0000000000000000e+00  0.0000000000000000e+00  0.0000000000000000e+00  0.0000000000000000e+00  0.0000000000000000e+00  0.0000000000000000e+00  0.0000000000000000e+00  0.0000000000000000e+00  0.0000000000000000e+00  0.0000000000000000e+00  0.0000000000000000e+00  0.0000000000000000e+00  0.0000000000000000e+00  0.0000000000000000e+00  0.0000000000000000e+00  0.0000000000000000e+00  0.0000000000000000e+00  0.0000000000000000e+00  0.0000000000000000e+00  0.0000000000000000e+00  0.0000000000000000e+00  0.0000000000000000e+00  0.0000000000000000e+00  0.0000000000000000e+00  0.0000000000000000e+00  0.0000000000000000e+00  0.0000000000000000e+00  0.0000000000000000e+00  0.0000000000000000e+00  0.0000000000000000e+00  0.0000000000000000e+00  0.0000000000000000e+00  0.0000000000000000e+00  0.0000000000000000e+00  0.0000000000000000e+00  0.0000000000000000e+00  0.0000000000000000e+00  0.0000000000000000e+00  0.0000000000000000e+00  0.0000000000000000e+00  0.0000000000000000e+00  0.0000000000000000e+00  0.0000000000000000e+00  0.0000000000000000e+00  0.0000000000000000e+00  0.0000000000000000e+00  0.0000000000000000e+00  0.0000000000000000e+00  0.0000000000000000e+00  0.0000000000000000e+00  0.0000000000000000e+00  0.0000000000000000e+00  0.0000000000000000e+00  0.0000000000000000e+00  0.0000000000000000e+00  0.0000000000000000e+00  0.0000000000000000e+00  0.0000000000000000e+00  0.0000000000000000e+00  0.0000000000000000e+00  0.0000000000000000e+00  0.0000000000000000e+00  0.0000000000000000e+00  0.0000000000000000e+00  0.0000000000000000e+00  0.0000000000000000e+00  0.0000000000000000e+00  0.0000000000000000e+00  0.0000000000000000e+00  0.0000000000000000e+00  0.0000000000000000e+00  0.0000000000000000e+00  0.0000000000000000e+00  0.0000000000000000e+00  0.0000000000000000e+00  0.0000000000000000e+00  0.0000000000000000e+00  0.0000000000000000e+00  0.0000000000000000e+00  0.0000000000000000e+00  0.0000000000000000e+00  0.0000000000000000e+00  0.0000000000000000e+00  0.0000000000000000e+00  0.0000000000000000e+00  0.0000000000000000e+00  0.0000000000000000e+00  0.0000000000000000e+00  0.0000000000000000e+00  0.0000000000000000e+00  0.0000000000000000e+00  0.0000000000000000e+00  0.0000000000000000e+00  0.0000000000000000e+00  0.0000000000000000e+00  0.0000000000000000e+00  0.0000000000000000e+00  0.0000000000000000e+00  0.0000000000000000e+00  0.0000000000000000e+00  0.0000000000000000e+00  0.0000000000000000e+00  0.0000000000000000e+00  0.0000000000000000e+00  0.0000000000000000e+00  0.0000000000000000e+00  0.0000000000000000e+00  0.0000000000000000e+00  0.0000000000000000e+00  0.0000000000000000e+00  0.0000000000000000e+00  0.0000000000000000e+00  0.0000000000000000e+00  0.0000000000000000e+00  0.0000000000000000e+00  0.0000000000000000e+00  0.0000000000000000e+00  0.0000000000000000e+00  0.0000000000000000e+00  0.0000000000000000e+00  0.0000000000000000e+00  0.0000000000000000e+00  0.0000000000000000e+00  0.0000000000000000e+00  0.0000000000000000e+00  0.0000000000000000e+00  0.0000000000000000e+00  0.0000000000000000e+00  0.0000000000000000e+00  0.0000000000000000e+00  0.0000000000000000e+00  0.0000000000000000e+00  0.0000000000000000e+00  0.0000000000000000e+00  0.0000000000000000e+00  0.0000000000000000e+00  0.0000000000000000e+00  0.0000000000000000e+00  0.0000000000000000e+00  0.0000000000000000e+00  0.0000000000000000e+00  0.0000000000000000e+00  0.0000000000000000e+00  0.0000000000000000e+00  0.0000000000000000e+00  0.0000000000000000e+00  0.0000000000000000e+00  0.0000000000000000e+00  0.0000000000000000e+00  0.0000000000000000e+00  0.0000000000000000e+00  0.0000000000000000e+00  0.0000000000000000e+00  0.0000000000000000e+00  0.0000000000000000e+00  0.0000000000000000e+00  0.0000000000000000e+00  0.0000000000000000e+00  0.0000000000000000e+00  0.0000000000000000e+00  0.0000000000000000e+00  0.0000000000000000e+00  0.0000000000000000e+00  0.0000000000000000e+00  0.0000000000000000e+00  0.0000000000000000e+00  0.0000000000000000e+00  0.0000000000000000e+00  0.0000000000000000e+00  0.0000000000000000e+00  0.0000000000000000e+00  0.0000000000000000e+00  0.0000000000000000e+00  0.0000000000000000e+00  0.0000000000000000e+00  0.0000000000000000e+00  0.0000000000000000e+00  0.0000000000000000e+00  0.0000000000000000e+00  0.0000000000000000e+00  0.0000000000000000e+00  0.0000000000000000e+00  0.0000000000000000e+00  0.0000000000000000e+00  0.0000000000000000e+00  0.0000000000000000e+00  0.0000000000000000e+00  0.0000000000000000e+00  0.0000000000000000e+00  0.0000000000000000e+00  0.0000000000000000e+00  0.0000000000000000e+00  0.0000000000000000e+00  0.0000000000000000e+00  0.0000000000000000e+00  0.0000000000000000e+00  0.0000000000000000e+00  0.0000000000000000e+00  0.0000000000000000e+00  0.0000000000000000e+00  0.0000000000000000e+00  0.0000000000000000e+00  0.0000000000000000e+00  0.0000000000000000e+00  0.0000000000000000e+00  0.0000000000000000e+00  0.0000000000000000e+00  0.0000000000000000e+00  0.0000000000000000e+00  0.0000000000000000e+00  0.0000000000000000e+00  0.0000000000000000e+00  0.0000000000000000e+00  0.0000000000000000e+00  0.0000000000000000e+00  0.0000000000000000e+00  0.0000000000000000e+00  0.0000000000000000e+00  0.0000000000000000e+00  0.0000000000000000e+00  0.0000000000000000e+00  0.0000000000000000e+00  0.0000000000000000e+00  0.0000000000000000e+00  0.0000000000000000e+00  0.0000000000000000e+00  0.0000000000000000e+00  0.0000000000000000e+00  0.0000000000000000e+00  0.0000000000000000e+00  0.0000000000000000e+00  0.0000000000000000e+00  0.0000000000000000e+00  0.0000000000000000e+00  0.0000000000000000e+00  0.0000000000000000e+00  0.0000000000000000e+00  0.0000000000000000e+00  0.0000000000000000e+00  0.0000000000000000e+00  0.0000000000000000e+00  0.0000000000000000e+00  0.0000000000000000e+00  0.0000000000000000e+00  0.0000000000000000e+00  0.0000000000000000e+00  0.0000000000000000e+00  0.0000000000000000e+00  0.0000000000000000e+00  0.0000000000000000e+00  0.0000000000000000e+00  0.0000000000000000e+00  0.0000000000000000e+00  0.0000000000000000e+00  0.0000000000000000e+00  0.0000000000000000e+00  0.0000000000000000e+00  0.0000000000000000e+00  0.0000000000000000e+00  0.0000000000000000e+00  0.0000000000000000e+00  0.0000000000000000e+00  0.0000000000000000e+00  0.0000000000000000e+00  0.0000000000000000e+00  0.0000000000000000e+00  0.0000000000000000e+00  0.0000000000000000e+00  0.0000000000000000e+00  0.0000000000000000e+00  0.0000000000000000e+00  0.0000000000000000e+00  0.0000000000000000e+00  0.0000000000000000e+00  0.0000000000000000e+00  0.0000000000000000e+00  0.0000000000000000e+00  0.0000000000000000e+00  0.0000000000000000e+00  0.0000000000000000e+00  0.0000000000000000e+00  0.0000000000000000e+00  0.0000000000000000e+00  0.0000000000000000e+00  0.0000000000000000e+00  0.0000000000000000e+00  0.0000000000000000e+00  0.0000000000000000e+00  0.0000000000000000e+00  0.0000000000000000e+00  0.0000000000000000e+00  0.0000000000000000e+00  0.0000000000000000e+00  0.0000000000000000e+00  0.0000000000000000e+00  0.0000000000000000e+00  0.0000000000000000e+00  0.0000000000000000e+00  0.0000000000000000e+00  0.0000000000000000e+00  0.0000000000000000e+00  0.0000000000000000e+00  0.0000000000000000e+00  0.0000000000000000e+00  0.0000000000000000e+00  0.0000000000000000e+00  0.0000000000000000e+00  0.0000000000000000e+00  0.0000000000000000e+00  0.0000000000000000e+00  0.0000000000000000e+00  0.0000000000000000e+00  0.0000000000000000e+00  0.0000000000000000e+00  0.0000000000000000e+00  0.0000000000000000e+00  0.0000000000000000e+00  0.0000000000000000e+00  0.0000000000000000e+00  0.0000000000000000e+00  0.0000000000000000e+00  0.0000000000000000e+00  0.0000000000000000e+00  0.0000000000000000e+00  0.0000000000000000e+00  0.0000000000000000e+00  0.0000000000000000e+00  0.0000000000000000e+00  0.0000000000000000e+00  0.0000000000000000e+00  0.0000000000000000e+00  0.0000000000000000e+00  0.0000000000000000e+00  0.0000000000000000e+00  0.0000000000000000e+00  0.0000000000000000e+00  0.0000000000000000e+00  0.0000000000000000e+00  0.0000000000000000e+00  0.0000000000000000e+00  0.0000000000000000e+00  0.0000000000000000e+00  0.0000000000000000e+00  0.0000000000000000e+00  0.0000000000000000e+00  0.0000000000000000e+00  0.0000000000000000e+00  0.0000000000000000e+00  0.0000000000000000e+00  0.0000000000000000e+00  0.0000000000000000e+00  0.0000000000000000e+00  0.0000000000000000e+00  0.0000000000000000e+00  0.0000000000000000e+00  0.0000000000000000e+00  0.0000000000000000e+00  0.0000000000000000e+00  0.0000000000000000e+00  0.0000000000000000e+00  0.0000000000000000e+00  0.0000000000000000e+00  0.0000000000000000e+00  9.5064488974949801e-01  9.5590971201347730e-01  9.6384377644007946e-01  9.6648150682782430e-01  9.5940891628766800e-01  9.4576710404269071e-01  9.4995368685796999e-01  9.5977081654261576e-01  9.5521771246547471e-01  9.4679500765397473e-01  9.5236246638463917e-01  9.4946673557842376e-01  9.4809709752637661e-01  9.5684410949247223e-01  9.5856107430765292e-01  9.5666302048262664e-01  9.6233091985596297e-01  9.5921186221384047e-01  9.5084224392150340e-01  9.5547510698876226e-01  9.5552035949765424e-01  9.5664382833729467e-01  9.5283724592829411e-01  9.5064097499427858e-01  9.5475687975110501e-01  9.5820884447735277e-01  9.5354413319708387e-01  9.5625934285295300e-01  9.6277266326794764e-01  9.5916337846262756e-01  9.5729397295406471e-01  9.5495477984897281e-01  9.5450057008715838e-01  9.3986948918534341e-01  9.5620904406371710e-01  9.4983326788276257e-01  9.5420895510189929e-01  9.4940867993479505e-01  9.5109058769187527e-01  9.5479456532729345e-01  9.6364726069752393e-01  9.4542811002911120e-01  9.5763076263329017e-01  9.4849766853474315e-01  9.5537610937732853e-01  9.5474176846547054e-01  9.3564009759203459e-01  9.4570458541480906e-01  9.5522080042011537e-01  9.5462465864374446e-01  9.5506736036102868e-01  9.6098242052522898e-01  9.5611390121952422e-01  9.4539368565498916e-01  9.5316904771125843e-01  9.5591682447281978e-01  9.5900888652996097e-01  9.5672628815517169e-01  9.4214884566767876e-01  9.4945170452955985e-01  9.5184851302735118e-01  9.5019998085378576e-01  -4.0464941464156973e-32  3.6006286361076243e-32  6.1067399344628315e-35  1.1229933586905513e-34  4.9938464641548638e-32  8.0830026617563314e-32  6.2174481402185584e-36  -1.4787646825171887e-36  -1.3401981422702231e-31  -4.7872696841143412e-32  1.3726812654316624e-32  2.2540925943806147e-32  1.3046897843530382e-32  1.5785073209796927e-32  8.4219636366707672e-31  4.2437120279860686e-31  -1.3110448941740604e-30  -1.3023277526819640e-32  -1.8475289858442491e-30  -2.5533859114512914e-30  -3.8547245701216006e-31  -5.1787637670325897e-31  -1.0698652572803768e-30  -1.5382425253742496e-30  -7.2025039969098124e-31  -7.0310757828833951e-31  -2.4782320169176749e-29  -1.9310158543146226e-30  -7.3405790672409941e-30  -4.6988298069034360e-29  1.7782346142473942e-30  -5.6965773176942506e-31  -1.0200931637431988e-36  7.3339384066445646e-37  6.1805501871448280e-37  -1.0044955509206907e-36  1.0056714847088745e-33  5.9252260156981151e-34  5.9066482603363527e-34  6.1747140388559160e-34  -2.0331293536756692e-28  2.2537716869403462e-30  -1.3584632726744414e-31  3.8385687619262366e-28  2.4749018549368561e-36  1.5883327632333387e-36  3.0595305499482206e-36  -9.0617499467877627e-39  -8.8286692501910372e-40  -1.0463871548492060e-38  2.1139137217718765e-39  -2.4848480839435670e-37  2.1920183827898739e-40  -3.5910531124994804e-38  -5.1733226536875961e-39  -2.9817953547385730e-40  -3.8231301177042354e-38  2.8411542746970584e-40  -1.9360172538944847e-38  -4.0024041636557840e-40  -9.9785954775759362e-41  -1.1198965168263797e-40  -9.8896705721789311e-41  -3.7745183607189318e-42  -1.4520693038602218e-42  1.0156351468085921e-41  1.2801518183415734e-41  -1.1194236794325528e-40  3.6712023412744871e-28  5.9229538219260331e-31  -3.6698114333121530e-31  3.5373118532278026e-28  5.6499379328190634e-31  3.7044325777742862e-31  2.7310603011417625e-30  2.1071040199481556e-30  3.9113011012614180e-31  3.9885028759386352e-31  -5.4516778269351533e-31  -2.1255679727108326e-30  -4.4083049932379413e-31  -1.1270840348044465e-31  8.2741257325085835e-30  1.2515468761502888e-29  -8.4966401737543656e-32  4.8279600448542774e-31  -5.6540401378674988e-32  1.6266598242577014e-31  -4.4688250668210408e-31  -4.1513594706684674e-31  -3.8313228641875446e-33  -3.4439030802503326e-33  -8.5382567843879890e-32  -8.7146834685282834e-32  2.0135175048613491e-33  2.0923385329490606e-33  9.4166227833616963e-36  -3.5377710264678672e-33  7.6673283169983851e-33  -8.5391547765639951e-36  1.8412388100718944e-33  -8.6059932903913126e-36  8.4324092959205827e-36  7.9735166627881882e-33  4.6273097648374012e-43  1.8590184926355041e-42  -3.7821070044822871e-43  -6.0750063434190384e-43  -2.2819765513197180e-43  -4.1398935033023266e-43  7.3466849456915307e-43  5.6054809949069757e-43  7.7494503564438068e-29  3.5169146592429559e-30  8.3509536534903584e-31  4.1410424913024903e-28  1.0680525147216165e-32  -4.2907158853596076e-34  -5.2878010018957757e-34  -2.9493145876081747e-32  4.9376244551023966e-34  3.5465631477348241e-32  6.5319736834380277e-32  4.3380063726810111e-34  -1.4184076656011339e-37  -2.0405871576957935e-34  -9.0968160476044913e-35  -1.5956432472337194e-38  -1.0978919331638106e-37  5.0488286608434724e-36  -1.2026789858858158e-34  1.7070230260913199e-38  5.6777810461944681e-40  -4.1163121805366788e-41  -3.7096568339595236e-37  -1.0051328944294082e-39  -9.7953153184226622e-38  -8.6716231409057580e-40  2.4872361860212624e-39  -3.1440082193086427e-41  -1.7817018646954986e-37  -1.1044671939375572e-39  -1.3547004552206696e-40  -3.4354010910899700e-41  2.3401677047746804e-39  -1.9240856036939227e-41  -7.8291386378273895e-38  -9.3800847459469224e-40  -1.7978538744617056e-43  8.9393214257504371e-44  -9.3623873453170852e-44  -2.5930593801164776e-43  -8.4342028493088113e-29  -1.9862830451045249e-29  -4.8730000779214164e-28  1.2208063827199160e-27  1.9270403237995425e-27  -7.0270670908551229e-27  -5.7293873933372317e-27  2.7298238786229982e-26  1.1833693188277144e-26  -8.0099267255493252e-26  -5.9021675607139835e-27  1.6078054325382025e-25  -8.9841557546593092e-26  -5.9736533510094607e-26  5.5868282355392747e-25  -1.3414816570773570e-24  -2.1539755018319451e-24  8.0108637039009523e-24  6.1973568332004735e-24  -3.0311387313758749e-23  -1.2692709703686793e-23  -1.9957810289895054e-23  8.5876817855787365e-23  1.0025218014672703e-23  -1.7055715323690819e-22  5.6594676144443388e-23  1.0177443417668617e-22  -3.2981027268600937e-22  8.9400841339972990e-22  9.8092005377645750e-22  -4.7495427494748676e-21  -1.5484762746762465e-21  8.9030597338342318e-22  1.3379995339832006e-20  -1.3616029154488125e-21  -1.7794391523778164e-20  1.6903862962070956e-20  -3.2718952550776578e-20  -5.1316899186308449e-20  2.5560031057405480e-19  5.4284973309634815e-20  -6.5690304814318845e-19  1.8399415404593672e-19  -6.5898215040930979e-19  3.4738510666137554e-19  -9.1990224504174004e-19  3.4702607323643653e-18  1.3371092248852517e-18  4.7953967920012904e-20  -9.6101001319789068e-19  2.4247917413428322e-18  1.8222074665656359e-18  -3.7708511631407870e-20  -9.5191519261207223e-19  1.8990906347434248e-19  -3.0351065250703582e-20  1.7535489663084575e-18  -9.3060028070205405e-19  1.7189081839936106e-19  5.4468525692537763e-20  -5.7139229465780103e-20  1.2246492678250948e-19  -8.1116532376259223e-19  1.4091672989531121e-19  -5.5556161644224135e-20  5.9809401382006201e-20  -5.7945248613040170e-19  1.7553935964171621e-19  -4.4172270799986571e-20  8.7863008043426237e-21  -3.5149192450111785e-19  1.8752078693870501e-19  -6.9596768539304205e-19  1.0095006537590932e-20  -1.3287185502481767e-20  1.1558831781661841e-18  -6.2532893382209606e-19  2.1082128715889945e-18  2.5974707231907812e-19  -6.8714172400998649e-18  4.2434747161158451e-18  -2.3504386590797598e-17  -5.4696838646031141e-19  6.9484137109673825e-18  -1.8015245783100748e-17  -1.4596181528542804e-18  4.0369626774947042e-17  -2.2416805436841998e-17  1.2060851802174321e-16  -3.6836933742584500e-17  1.2736087599288216e-16  -2.2266042845527538e-17  2.1129516573150761e-17  1.1447056046888678e-17  -8.7784187751814192e-17  8.8710600231079731e-18  1.7568395193314126e-18  -2.8231746587884088e-01  2.4853760378797165e-17  -6.3314856976904424e-17  1.0383488306372569e-18  6.1827454005463841e-17  -3.0641842809050196e-01  -2.9508903368461184e-17  1.3307317902945447e-16  -2.6413309519564299e-01  -3.2661634288276304e-17  8.9359902291712363e-17  -4.5997222141288001e-16  -1.7258010486218397e-16  9.6796430866747895e-18  6.1277394825415450e-17  -5.2320963850901270e-16  9.3134683159055317e-18  -2.7045478873801542e-17  1.0049272167400653e-16  -3.8109609961906664e-16  -2.7951648791067650e-16  4.5007033640132921e-17  -6.5675074189361062e-17  5.9913485362034178e-16  1.5883856518745390e-18  2.6218846484801125e-17  -1.0221240395483710e-16  3.8398291073588741e-16  1.8943597908431709e-16  -4.4160545878717992e-18  -9.4409963923968663e-17  7.1621008914419292e-17  3.1384278994174822e-16  -2.8074757376096760e-17  -1.0578497292511915e-16  -1.4160509308764191e-16  5.2128565687210185e-16  -6.6159431528852386e-17  -9.9280680075242647e-17  -5.1072042075296060e-16  7.0622642836854117e-16  -2.6945652609175848e-15  -7.1996667620912828e-16  -1.0719438373177801e-16  8.1303313480743269e-16  -3.3162995883550246e-15  -4.5198259231443046e-16  -1.6718460325972750e-16  7.6761810961473905e-16  -3.9466780143051911e-15  2.9768777587046498e-16  4.6926374415428417e-15  -3.5138380235505417e-15  1.5449755200219795e-14  -7.9735283773478227e-16  9.4692205772994412e-16  -1.5972089334047522e-15  1.2048531312753215e-14  -3.5032685532629102e-15  6.9177977334552748e-15  2.4418495679060619e-15  -2.4658817570484811e-14  8.0555034294067902e-15  -1.7316062010892059e-14  -5.9695748547703788e-15  -1.0022292612549728e-15  5.6297667366549353e-15  -3.7352351115580794e-14  1.3761056720108267e-14  -6.1525191347653947e-14  1.7859545022880588e-14  -6.9116380184714086e-14  1.9275988555877966e-14  -7.6000645538404127e-14  2.2414218213067181e-14  -9.1832736970894584e-14  2.6676202993007453e-14  -1.0287826124089058e-13  2.6655624806005736e-14  -8.8362378181924088e-14  1.8624618569439284e-14  -4.6055487364517907e-14  5.9909822322230161e-15  -1.9915999804722503e-15  -2.8447183744663807e-15  1.5826164617079495e-14  -3.6749941620641297e-15  7.9629913164958556e-15  -6.2543071777933580e-16  -1.7985457639158219e-15  6.0411195904048019e-16  -9.4926033298949865e-17  -5.6335729812637473e-17  5.0328300351835717e-17  -4.4246001889836603e-18  -1.1247342438042387e-17  3.3395987332790660e-18  1.4046725175229799e-18  -8.2518906166210019e-19  2.0092977382539533e-20  -1.0146637663112061e-18  1.1873355322459204e-19  -4.9914223055395112e-15  2.5759039235341637e-19  -4.4656638925473268e-19  -1.5175986066930736e-21  2.9050676006075551e-19  -7.1017716087221876e-20  1.0584472587429839e-19  3.1825474955380728e