<?xml version="1.0"?>
<VTKFile type="UnstructuredGrid"  version="0.1"  >
<UnstructuredGrid>
<Piece  NumberOfPoints="11902" NumberOfCells="23402">
<Points>
<DataArray  type="Float64"  NumberOfComponents="3"  format="ascii">-5 -5 0  5 -5 0  5 5 0  -5 5 0  1.06946358319484 0.0004581455653013279 0  -4.9 -5 0  -4.8 -5 0  -4.7 -5 0  -4.6 -5 0  -4.5 -5 0  -4.4 -5 0  -4.3 -5 0  -4.2 -5 0  -4.1 -5 0  -4 -5 0  -3.9 -5 0  -3.8 -5 0  -3.7 -5 0  -3.6 -5 0  -3.5 -5 0  -3.4 -5 0  -3.3 -5 0  -3.2 -5 0  -3.1 -5 0  -3 -5 0  -2.9 -5 0  -2.8 -5 0  -2.7 -5 0  -2.6 -5 0  -2.5 -5 0  -2.4 -5 0  -2.3 -5 0  -2.2 -5 0  -2.1 -5 0  -2 -5 0  -1.9 -5 0  -1.8 -5 0  -1.7 -5 0  -1.6 -5 0  -1.5 -5 0  -1.4 -5 0  -1.3 -5 0  -1.2 -5 0  -1.1 -5 0  -1 -5 0  -0.9000000000000004 -5 0  -0.7999999999999998 -5 0  -0.7000000000000002 -5 0  -0.5999999999999996 -5 0  -0.5 -5 0  -0.4000000000000004 -5 0  -0.2999999999999998 -5 0  -0.2000000000000002 -5 0  -0.09999999999999964 -5 0  0 -5 0  0.09999999999999964 -5 0  0.2000000000000002 -5 0  0.2999999999999998 -5 0  0.4000000000000004 -5 0  0.5 -5 0  0.5999999999999996 -5 0  0.7000000000000002 -5 0  0.7999999999999998 -5 0  0.9000000000000004 -5 0  1 -5 0  1.1 -5 0  1.2 -5 0  1.3 -5 0  1.4 -5 0  1.5 -5 0  1.6 -5 0  1.7 -5 0  1.8 -5 0  1.9 -5 0  2 -5 0  2.1 -5 0  2.2 -5 0  2.3 -5 0  2.4 -5 0  2.5 -5 0  2.6 -5 0  2.7 -5 0  2.8 -5 0  2.9 -5 0  3 -5 0  3.1 -5 0  3.199999999999999 -5 0  3.300000000000001 -5 0  3.4 -5 0  3.5 -5 0  3.6 -5 0  3.699999999999999 -5 0  3.800000000000001 -5 0  3.9 -5 0  4 -5 0  4.1 -5 0  4.199999999999999 -5 0  4.300000000000001 -5 0  4.4 -5 0  4.5 -5 0  4.6 -5 0  4.699999999999999 -5 0  4.800000000000001 -5 0  4.9 -5 0  5 -4.9 0  5 -4.8 0  5 -4.7 0  5 -4.6 0  5 -4.5 0  5 -4.4 0  5 -4.3 0  5 -4.2 0  5 -4.1 0  5 -4 0  5 -3.9 0  5 -3.8 0  5 -3.7 0  5 -3.6 0  5 -3.5 0  5 -3.4 0  5 -3.3 0  5 -3.2 0  5 -3.1 0  5 -3 0  5 -2.9 0  5 -2.8 0  5 -2.7 0  5 -2.6 0  5 -2.5 0  5 -2.4 0  5 -2.3 0  5 -2.2 0  5 -2.1 0  5 -2 0  5 -1.9 0  5 -1.8 0  5 -1.7 0  5 -1.6 0  5 -1.5 0  5 -1.4 0  5 -1.3 0  5 -1.2 0  5 -1.1 0  5 -1 0  5 -0.9000000000000004 0  5 -0.7999999999999998 0  5 -0.7000000000000002 0  5 -0.5999999999999996 0  5 -0.5 0  5 -0.4000000000000004 0  5 -0.2999999999999998 0  5 -0.2000000000000002 0  5 -0.09999999999999964 0  5 0 0  5 0.09999999999999964 0  5 0.2000000000000002 0  5 0.2999999999999998 0  5 0.4000000000000004 0  5 0.5 0  5 0.5999999999999996 0  5 0.7000000000000002 0  5 0.7999999999999998 0  5 0.9000000000000004 0  5 1 0  5 1.1 0  5 1.2 0  5 1.3 0  5 1.4 0  5 1.5 0  5 1.6 0  5 1.7 0  5 1.8 0  5 1.9 0  5 2 0  5 2.1 0  5 2.2 0  5 2.3 0  5 2.4 0  5 2.5 0  5 2.6 0  5 2.7 0  5 2.8 0  5 2.9 0  5 3 0  5 3.1 0  5 3.199999999999999 0  5 3.300000000000001 0  5 3.4 0  5 3.5 0  5 3.6 0  5 3.699999999999999 0  5 3.800000000000001 0  5 3.9 0  5 4 0  5 4.1 0  5 4.199999999999999 0  5 4.300000000000001 0  5 4.4 0  5 4.5 0  5 4.6 0  5 4.699999999999999 0  5 4.800000000000001 0  5 4.9 0  4.9 5 0  4.8 5 0  4.7 5 0  4.6 5 0  4.5 5 0  4.4 5 0  4.3 5 0  4.2 5 0  4.1 5 0  4 5 0  3.9 5 0  3.8 5 0  3.7 5 0  3.6 5 0  3.5 5 0  3.4 5 0  3.3 5 0  3.2 5 0  3.1 5 0  3 5 0  2.9 5 0  2.8 5 0  2.7 5 0  2.6 5 0  2.5 5 0  2.4 5 0  2.3 5 0  2.2 5 0  2.1 5 0  2 5 0  1.9 5 0  1.8 5 0  1.7 5 0  1.6 5 0  1.5 5 0  1.4 5 0  1.3 5 0  1.2 5 0  1.1 5 0  1 5 0  0.9000000000000004 5 0  0.7999999999999998 5 0  0.7000000000000002 5 0  0.5999999999999996 5 0  0.5 5 0  0.4000000000000004 5 0  0.2999999999999998 5 0  0.2000000000000002 5 0  0.09999999999999964 5 0  0 5 0  -0.09999999999999964 5 0  -0.2000000000000002 5 0  -0.2999999999999998 5 0  -0.4000000000000004 5 0  -0.5 5 0  -0.5999999999999996 5 0  -0.7000000000000002 5 0  -0.7999999999999998 5 0  -0.9000000000000004 5 0  -1 5 0  -1.1 5 0  -1.2 5 0  -1.3 5 0  -1.4 5 0  -1.5 5 0  -1.6 5 0  -1.7 5 0  -1.8 5 0  -1.9 5 0  -2 5 0  -2.1 5 0  -2.2 5 0  -2.3 5 0  -2.4 5 0  -2.5 5 0  -2.6 5 0  -2.7 5 0  -2.8 5 0  -2.9 5 0  -3 5 0  -3.1 5 0  -3.199999999999999 5 0  -3.300000000000001 5 0  -3.4 5 0  -3.5 5 0  -3.6 5 0  -3.699999999999999 5 0  -3.800000000000001 5 0  -3.9 5 0  -4 5 0  -4.1 5 0  -4.199999999999999 5 0  -4.300000000000001 5 0  -4.4 5 0  -4.5 5 0  -4.6 5 0  -4.699999999999999 5 0  -4.800000000000001 5 0  -4.9 5 0  -5 4.9 0  -5 4.8 0  -5 4.7 0  -5 4.6 0  -5 4.5 0  -5 4.4 0  -5 4.3 0  -5 4.2 0  -5 4.1 0  -5 4 0  -5 3.9 0  -5 3.8 0  -5 3.7 0  -5 3.6 0  -5 3.5 0  -5 3.4 0  -5 3.3 0  -5 3.2 0  -5 3.1 0  -5 3 0  -5 2.9 0  -5 2.8 0  -5 2.7 0  -5 2.6 0  -5 2.5 0  -5 2.4 0  -5 2.3 0  -5 2.2 0  -5 2.1 0  -5 2 0  -5 1.9 0  -5 1.8 0  -5 1.7 0  -5 1.6 0  -5 1.5 0  -5 1.4 0  -5 1.3 0  -5 1.2 0  -5 1.1 0  -5 1 0  -5 0.9000000000000004 0  -5 0.7999999999999998 0  -5 0.7000000000000002 0  -5 0.5999999999999996 0  -5 0.5 0  -5 0.4000000000000004 0  -5 0.2999999999999998 0  -5 0.2000000000000002 0  -5 0.09999999999999964 0  -5 0 0  -5 -0.09999999999999964 0  -5 -0.2000000000000002 0  -5 -0.2999999999999998 0  -5 -0.4000000000000004 0  -5 -0.5 0  -5 -0.5999999999999996 0  -5 -0.7000000000000002 0  -5 -0.7999999999999998 0  -5 -0.9000000000000004 0  -5 -1 0  -5 -1.1 0  -5 -1.2 0  -5 -1.3 0  -5 -1.4 0  -5 -1.5 0  -5 -1.6 0  -5 -1.7 0  -5 -1.8 0  -5 -1.9 0  -5 -2 0  -5 -2.1 0  -5 -2.2 0  -5 -2.3 0  -5 -2.4 0  -5 -2.5 0  -5 -2.6 0  -5 -2.7 0  -5 -2.8 0  -5 -2.9 0  -5 -3 0  -5 -3.1 0  -5 -3.199999999999999 0  -5 -3.300000000000001 0  -5 -3.4 0  -5 -3.5 0  -5 -3.6 0  -5 -3.699999999999999 0  -5 -3.800000000000001 0  -5 -3.9 0  -5 -4 0  -5 -4.1 0  -5 -4.199999999999999 0  -5 -4.300000000000001 0  -5 -4.4 0  -5 -4.5 0  -5 -4.6 0  -5 -4.699999999999999 0  -5 -4.800000000000001 0  -5 -4.9 0  1.06423814632628 0.1003227427160982 0  1.048229377437772 0.1995797805654171 0  1.021342600491658 0.2970790895887813 0  0.9851465688809641 0.3908988804216572 0  0.9389912200093007 0.4816219668224072 0  0.8837832209290336 0.5672930478818409 0  0.8194206472125476 0.6470875802346108 0  0.7464566297175886 0.7203392816766098 0  0.6666180436854283 0.7866962748460448 0  0.580170870280092 0.8454322440857263 0  0.4876711052932316 0.8954161288998671 0  0.3902197715972218 0.9366195982105955 0  0.2896675672775195 0.9688074865989244 0  0.1856774275142687 0.9908768959401514 0  0.08031740690146788 1.003487256026331 0  -0.02609473359175032 1.006032633630801 0  -0.1322590549567194 0.9982955431330438 0  -0.2371636864144619 0.9811890577308995 0  -0.3396713412169114 0.95420868233164 0  -0.4387132773141605 0.9174913386217454 0  -0.5332851354346444 0.8719992082298008 0  -0.622694250445024 0.8175734065807144 0  -0.7059327061179376 0.7551647489861651 0  -0.782196700131954 0.6853768080242588 0  -0.8508185627572162 0.6081908292599614 0  -0.910723620122858 0.5251318678344649 0  -0.9620184499962978 0.4371789407043232 0  -1.003374303924006 0.3445465189411111 0  -1.034624371736245 0.2487513527322655 0  -1.055823514243517 0.1505187405967898 0  -1.066564083891855 0.05054356632585603 0  -1.0665814141835 -0.04997851062778228 0  -1.055861254323485 -0.1498667143905252 0  -1.035457804248438 -0.2480629757999989 0  -1.003366593118905 -0.3441662057362334 0  -0.9621566623032161 -0.4364693653257017 0  -0.9110081530818045 -0.5245527648806555 0  -0.8511524970289798 -0.6074331342052669 0  -0.7824969401591995 -0.6842405833178168 0  -0.7059500540294095 -0.753921312322566 0  -0.622402256797667 -0.8159776007690763 0  -0.5335009242533704 -0.8707065593407378 0  -0.4380843223047102 -0.9161966475895995 0  -0.3389849386253142 -0.9531550382983996 0  -0.2363195840374439 -0.9803030029100219 0  -0.1315764282371285 -0.9976675472694224 0  -0.02562622827592409 -1.005767221982188 0  0.08049476568691823 -1.002982938306543 0  0.1862841986149698 -0.9901710350502941 0  0.2899060779745082 -0.9680278242243318 0  0.3912435362808702 -0.9358840823927866 0  0.4880102706723375 -0.8947434687198557 0  0.5804358969195238 -0.8448124950296388 0  0.6667985941033038 -0.7868582567327452 0  0.746610166454847 -0.7205127146477266 0  0.8192140104145954 -0.6468025602882679 0  0.8833934865872324 -0.5667768990636118 0  0.9391674105099342 -0.4812930855462347 0  0.9858554588540693 -0.3909292792654885 0  1.021937602125476 -0.2968099193428083 0  1.048274382523434 -0.1992910638992504 0  1.064274882732431 -0.1001920093060848 0  -2.449481450019376 4.919815179304337 0  -2.449437187294547 -4.912347291987757 0  4.912315250675388 2.449228858909304 0  4.920266347297646 -2.450569450177353 0  2.447330716079227 -4.897902887451871 0  2.441726348511656 4.9015945757937 0  -4.912326571081237 -2.449240584941932 0  -4.912328624186547 2.449244217129198 0  -1.749464918290257 4.913448698892968 0  -1.745210165173303 -4.916791933732285 0  4.92298884753612 1.745275917816897 0  4.911856373486261 -1.749213587917123 0  -4.912120373331975 -1.748927198016878 0  -4.912923717709015 1.74865761805804 0  1.746796392795318 4.907486783895775 0  1.74833057770779 -4.895951697383497 0  -1.149581207962026 4.911742831678975 0  -1.130362685432897 -4.919406948664196 0  -4.912508291001227 -1.149013742711021 0  -4.912337686424959 1.148812505274851 0  1.144527352199754 -4.915716332597734 0  1.149582152901636 4.911738269807138 0  4.912676133327369 1.147297663229361 0  4.923101230931727 -1.152953418519117 0  -0.5470537964735503 -4.913182190053003 0  -0.5467991603528607 4.921571088680056 0  -4.91177942609988 -0.5493118886207352 0  -4.911805566616856 0.5478628029443968 0  4.911163426601883 -0.5496418884449878 0  4.922331114172512 0.5463166841296554 0  0.5428726118350307 -4.900529171625492 0  0.5515340683323534 4.918508131883666 0  -4.913144833947457 -3.049370497713148 0  4.919632575056903 3.047317600688814 0  4.912666915438382 -3.049363829799859 0  -4.913986793458816 3.046453451913158 0  3.056109290738414 -4.918617137911379 0  -3.04950062161787 -4.912637613146731 0  3.053049645501471 4.914693498250113 0  -3.048941164798719 4.913517435060038 0  -4.911089091739854 -0.04996799946071996 0  0.04514343187465528 -4.915155826161702 0  0.04959406260803315 4.921937838184991 0  4.917872255449037 -0.05134627829987252 0  3.546260609680856 -4.919891636806606 0  -3.549597235
[...]
<PointData  Scalars="f_27"> 
<DataArray  type="Float64"  Name="f_27"  format="ascii">0.0000000000000000e+00  0.0000000000000000e+00  0.0000000000000000e+00  0.0000000000000000e+00  6.0382112284673783e-01  0.0000000000000000e+00  0.0000000000000000e+00  0.0000000000000000e+00  0.0000000000000000e+00  0.0000000000000000e+00  0.0000000000000000e+00  0.0000000000000000e+00  0.0000000000000000e+00  0.0000000000000000e+00  0.0000000000000000e+00  0.0000000000000000e+00  0.0000000000000000e+00  0.0000000000000000e+00  0.0000000000000000e+00  0.0000000000000000e+00  0.0000000000000000e+00  0.0000000000000000e+00  0.0000000000000000e+00  0.0000000000000000e+00  0.0000000000000000e+00  0.0000000000000000e+00  0.0000000000000000e+00  0.0000000000000000e+00  0.0000000000000000e+00  0.0000000000000000e+00  0.0000000000000000e+00  0.0000000000000000e+00  0.0000000000000000e+00  0.0000000000000000e+00  0.0000000000000000e+00  0.0000000000000000e+00  0.0000000000000000e+00  0.0000000000000000e+00  0.0000000000000000e+00  0.0000000000000000e+00  0.0000000000000000e+00  0.0000000000000000e+00  0.0000000000000000e+00  0.0000000000000000e+00  0.0000000000000000e+00  0.0000000000000000e+00  0.0000000000000000e+00  0.0000000000000000e+00  0.0000000000000000e+00  0.0000000000000000e+00  0.0000000000000000e+00  0.0000000000000000e+00  0.0000000000000000e+00  0.0000000000000000e+00  0.0000000000000000e+00  0.0000000000000000e+00  0.0000000000000000e+00  0.0000000000000000e+00  0.0000000000000000e+00  0.0000000000000000e+00  0.0000000000000000e+00  0.0000000000000000e+00  0.0000000000000000e+00  0.0000000000000000e+00  0.0000000000000000e+00  0.0000000000000000e+00  0.0000000000000000e+00  0.0000000000000000e+00  0.0000000000000000e+00  0.0000000000000000e+00  0.0000000000000000e+00  0.0000000000000000e+00  0.0000000000000000e+00  0.0000000000000000e+00  0.0000000000000000e+00  0.0000000000000000e+00  0.0000000000000000e+00  0.0000000000000000e+00  0.0000000000000000e+00  0.0000000000000000e+00  0.0000000000000000e+00  0.0000000000000000e+00  0.0000000000000000e+00  0.0000000000000000e+00  0.0000000000000000e+00  0.0000000000000000e+00  0.0000000000000000e+00  0.0000000000000000e+00  0.0000000000000000e+00  0.0000000000000000e+00  0.0000000000000000e+00  0.0000000000000000e+00  0.0000000000000000e+00  0.0000000000000000e+00  0.0000000000000000e+00  0.0000000000000000e+00  0.0000000000000000e+00  0.0000000000000000e+00  0.0000000000000000e+00  0.0000000000000000e+00  0.0000000000000000e+00  0.0000000000000000e+00  0.0000000000000000e+00  0.0000000000000000e+00  0.0000000000000000e+00  0.0000000000000000e+00  0.0000000000000000e+00  0.0000000000000000e+00  0.0000000000000000e+00  0.0000000000000000e+00  0.0000000000000000e+00  0.0000000000000000e+00  0.0000000000000000e+00  0.0000000000000000e+00  0.0000000000000000e+00  0.0000000000000000e+00  0.0000000000000000e+00  0.0000000000000000e+00  0.0000000000000000e+00  0.0000000000000000e+00  0.0000000000000000e+00  0.0000000000000000e+00  0.0000000000000000e+00  0.0000000000000000e+00  0.0000000000000000e+00  0.0000000000000000e+00  0.0000000000000000e+00  0.0000000000000000e+00  0.0000000000000000e+00  0.0000000000000000e+00  0.0000000000000000e+00  0.0000000000000000e+00  0.0000000000000000e+00  0.0000000000000000e+00  0.0000000000000000e+00  0.0000000000000000e+00  0.0000000000000000e+00  0.0000000000000000e+00  0.0000000000000000e+00  0.0000000000000000e+00  0.0000000000000000e+00  0.0000000000000000e+00  0.0000000000000000e+00  0.0000000000000000e+00  0.0000000000000000e+00  0.0000000000000000e+00  0.0000000000000000e+00  0.0000000000000000e+00  0.0000000000000000e+00  0.0000000000000000e+00  0.0000000000000000e+00  0.0000000000000000e+00  0.0000000000000000e+00  0.0000000000000000e+00  0.0000000000000000e+00  0.0000000000000000e+00  0.0000000000000000e+00  0.0000000000000000e+00  0.0000000000000000e+00  0.0000000000000000e+00  0.0000000000000000e+00  0.0000000000000000e+00  0.0000000000000000e+00  0.0000000000000000e+00  0.0000000000000000e+00  0.0000000000000000e+00  0.0000000000000000e+00  0.0000000000000000e+00  0.0000000000000000e+00  0.0000000000000000e+00  0.0000000000000000e+00  0.0000000000000000e+00  0.0000000000000000e+00  0.0000000000000000e+00  0.0000000000000000e+00  0.0000000000000000e+00  0.0000000000000000e+00  0.0000000000000000e+00  0.0000000000000000e+00  0.0000000000000000e+00  0.0000000000000000e+00  0.0000000000000000e+00  0.0000000000000000e+00  0.0000000000000000e+00  0.0000000000000000e+00  0.0000000000000000e+00  0.0000000000000000e+00  0.0000000000000000e+00  0.0000000000000000e+00  0.0000000000000000e+00  0.0000000000000000e+00  0.0000000000000000e+00  0.0000000000000000e+00  0.0000000000000000e+00  0.0000000000000000e+00  0.0000000000000000e+00  0.0000000000000000e+00  0.0000000000000000e+00  0.0000000000000000e+00  0.0000000000000000e+00  0.0000000000000000e+00  0.0000000000000000e+00  0.0000000000000000e+00  0.0000000000000000e+00  0.0000000000000000e+00  0.0000000000000000e+00  0.0000000000000000e+00  0.0000000000000000e+00  0.0000000000000000e+00  0.0000000000000000e+00  0.0000000000000000e+00  0.0000000000000000e+00  0.0000000000000000e+00  0.0000000000000000e+00  0.0000000000000000e+00  0.0000000000000000e+00  0.0000000000000000e+00  0.0000000000000000e+00  0.0000000000000000e+00  0.0000000000000000e+00  0.0000000000000000e+00  0.0000000000000000e+00  0.0000000000000000e+00  0.0000000000000000e+00  0.0000000000000000e+00  0.0000000000000000e+00  0.0000000000000000e+00  0.0000000000000000e+00  0.0000000000000000e+00  0.0000000000000000e+00  0.0000000000000000e+00  0.0000000000000000e+00  0.0000000000000000e+00  0.0000000000000000e+00  0.0000000000000000e+00  0.0000000000000000e+00  0.0000000000000000e+00  0.0000000000000000e+00  0.0000000000000000e+00  0.0000000000000000e+00  0.0000000000000000e+00  0.0000000000000000e+00  0.0000000000000000e+00  0.0000000000000000e+00  0.0000000000000000e+00  0.0000000000000000e+00  0.0000000000000000e+00  0.0000000000000000e+00  0.0000000000000000e+00  0.0000000000000000e+00  0.0000000000000000e+00  0.0000000000000000e+00  0.0000000000000000e+00  0.0000000000000000e+00  0.0000000000000000e+00  0.0000000000000000e+00  0.0000000000000000e+00  0.0000000000000000e+00  0.0000000000000000e+00  0.0000000000000000e+00  0.0000000000000000e+00  0.0000000000000000e+00  0.0000000000000000e+00  0.0000000000000000e+00  0.0000000000000000e+00  0.0000000000000000e+00  0.0000000000000000e+00  0.0000000000000000e+00  0.0000000000000000e+00  0.0000000000000000e+00  0.0000000000000000e+00  0.0000000000000000e+00  0.0000000000000000e+00  0.0000000000000000e+00  0.0000000000000000e+00  0.0000000000000000e+00  0.0000000000000000e+00  0.0000000000000000e+00  0.0000000000000000e+00  0.0000000000000000e+00  0.0000000000000000e+00  0.0000000000000000e+00  0.0000000000000000e+00  0.0000000000000000e+00  0.0000000000000000e+00  0.0000000000000000e+00  0.0000000000000000e+00  0.0000000000000000e+00  0.0000000000000000e+00  0.0000000000000000e+00  0.0000000000000000e+00  0.0000000000000000e+00  0.0000000000000000e+00  0.0000000000000000e+00  0.0000000000000000e+00  0.0000000000000000e+00  0.0000000000000000e+00  0.0000000000000000e+00  0.0000000000000000e+00  0.0000000000000000e+00  0.0000000000000000e+00  0.0000000000000000e+00  0.0000000000000000e+00  0.0000000000000000e+00  0.0000000000000000e+00  0.0000000000000000e+00  0.0000000000000000e+00  0.0000000000000000e+00  0.0000000000000000e+00  0.0000000000000000e+00  0.0000000000000000e+00  0.0000000000000000e+00  0.0000000000000000e+00  0.0000000000000000e+00  0.0000000000000000e+00  0.0000000000000000e+00  0.0000000000000000e+00  0.0000000000000000e+00  0.0000000000000000e+00  0.0000000000000000e+00  0.0000000000000000e+00  0.0000000000000000e+00  0.0000000000000000e+00  0.0000000000000000e+00  0.0000000000000000e+00  0.0000000000000000e+00  0.0000000000000000e+00  0.0000000000000000e+00  0.0000000000000000e+00  0.0000000000000000e+00  0.0000000000000000e+00  0.0000000000000000e+00  0.0000000000000000e+00  0.0000000000000000e+00  0.0000000000000000e+00  0.0000000000000000e+00  0.0000000000000000e+00  0.0000000000000000e+00  0.0000000000000000e+00  0.0000000000000000e+00  0.0000000000000000e+00  0.0000000000000000e+00  0.0000000000000000e+00  0.0000000000000000e+00  0.0000000000000000e+00  0.0000000000000000e+00  0.0000000000000000e+00  0.0000000000000000e+00  0.0000000000000000e+00  0.0000000000000000e+00  0.0000000000000000e+00  0.0000000000000000e+00  0.0000000000000000e+00  0.0000000000000000e+00  0.0000000000000000e+00  0.0000000000000000e+00  0.0000000000000000e+00  0.0000000000000000e+00  0.0000000000000000e+00  0.0000000000000000e+00  0.0000000000000000e+00  0.0000000000000000e+00  0.0000000000000000e+00  0.0000000000000000e+00  0.0000000000000000e+00  0.0000000000000000e+00  0.0000000000000000e+00  0.0000000000000000e+00  0.0000000000000000e+00  0.0000000000000000e+00  0.0000000000000000e+00  0.0000000000000000e+00  0.0000000000000000e+00  0.0000000000000000e+00  0.0000000000000000e+00  0.0000000000000000e+00  0.0000000000000000e+00  0.0000000000000000e+00  0.0000000000000000e+00  0.0000000000000000e+00  0.0000000000000000e+00  0.0000000000000000e+00  0.0000000000000000e+00  0.0000000000000000e+00  0.0000000000000000e+00  0.0000000000000000e+00  0.0000000000000000e+00  0.0000000000000000e+00  0.0000000000000000e+00  0.0000000000000000e+00  0.0000000000000000e+00  0.0000000000000000e+00  0.0000000000000000e+00  0.0000000000000000e+00  0.0000000000000000e+00  0.0000000000000000e+00  0.0000000000000000e+00  0.0000000000000000e+00  0.0000000000000000e+00  0.0000000000000000e+00  0.0000000000000000e+00  5.9337695438891036e-01  6.0677328991733193e-01  6.8337854899775852e-01  6.7861124463218581e-01  6.3054203182539492e-01  5.5560997671555812e-01  5.6833892923597784e-01  6.4985949963338741e-01  6.1779838686015076e-01  5.4719572962659568e-01  5.7425561576566309e-01  5.9406342377193466e-01  5.2719464029118879e-01  6.1784463645035625e-01  6.1004257837284415e-01  6.1878388370836601e-01  6.6238496322185503e-01  5.9976749264970497e-01  5.8301311824817859e-01  6.2330828488136147e-01  6.0233806260433764e-01  6.1423749306959041e-01  6.0226097830966374e-01  5.6985693884462063e-01  6.0422616431993714e-01  6.4391430889199952e-01  5.9483204942805701e-01  6.1930825468496808e-01  6.6317489378982875e-01  6.4046285318368679e-01  6.1595914865175816e-01  6.1107079453274848e-01  6.3139423517205140e-01  5.2398241583272809e-01  6.2260591298503121e-01  5.9023106916528523e-01  6.1818310220013739e-01  5.7166704572813787e-01  5.7268356195782433e-01  6.2072862809130125e-01  6.9109785108612554e-01  5.5219144083250338e-01  6.2757514637320544e-01  5.7402302330779942e-01  5.8732911608830540e-01  6.1325949527281720e-01  4.9153287221909964e-01  5.4462874444517106e-01  6.0082955045809339e-01  5.8088602175788351e-01  6.1476582067955809e-01  6.4349068139264609e-01  6.1380634344122864e-01  5.6340793927598165e-01  5.9487894456851842e-01  6.0878167136311223e-01  6.4427445882613210e-01  6.0636363000935545e-01  5.2586769836110181e-01  5.8869229594770911e-01  5.9908777553887405e-01  5.7895592104388904e-01  -2.2081501471921877e-31  1.5324205261111258e-31  3.1355104468052871e-34  5.2043830626921405e-34  2.7337829820473464e-31  3.4542853899179786e-31  -3.3833311247208248e-36  -6.2314086246307814e-35  -3.4514218927598669e-31  -1.1951291002762821e-31  7.3529524170876468e-32  9.8456289105608614e-32  5.4424909650106475e-32  6.2431219945951663e-32  3.2558806699111704e-30  1.7283735721682982e-30  -5.5044962537695591e-30  3.0630729822001165e-31  -7.9662211866516982e-30  -1.1017665884848072e-29  -1.8395707741274549e-30  -2.0223793826004192e-30  -5.5395126176272215e-30  -6.2800777528215860e-30  -3.8348318774226692e-30  -3.1248935905412335e-30  -1.1762485054322358e-28  2.3236286098669518e-30  -4.4135825697911433e-29  -2.4962769026990825e-28  8.1762508421881007e-30  -2.1448511889771254e-30  -4.8855738025926805e-36  3.3832097194747393e-36  2.6265875738470265e-36  -4.9768030432809102e-36  4.8383095236661239e-33  3.5232034416165479e-33  2.8352835877555568e-33  3.1368543435716129e-33  -1.1045432361480103e-27  1.1038676923096864e-29  -3.1917292499119787e-31  1.8151030208311915e-27  1.1139871128071786e-35  6.6064915804865998e-36  1.4448340155011752e-35  -4.5473476784444822e-38  4.4382804763917182e-39  -4.8470503576296108e-38  1.9240920870446381e-38  -3.0576607253001594e-36  8.6546081704987743e-40  -1.7724372555942346e-37  -4.4073008220126136e-38  -1.5320052570531362e-39  -1.8737203288970466e-37  1.3282678431170646e-39  -1.0518529023629857e-37  -2.1031951124166442e-39  -4.1283712912127712e-40  -5.4726312059431839e-40  -4.3233444861102160e-40  -1.4821090540373717e-41  -8.3710522115938583e-43  4.8265657061349634e-41  6.3936688869162057e-41  -5.7089328794711239e-40  1.8023086285367382e-27  2.1592115696415649e-30  -1.4440670149873669e-30  1.6233314695830461e-27  3.4962436732976656e-30  1.6271048142941756e-30  8.9802966935003282e-30  9.5737182978981471e-30  1.7629435304365233e-30  1.6798506007753070e-30  -1.2344107193318250e-30  -9.9390908757010683e-30  -1.7204319028057781e-30  -4.8189847797647560e-31  3.3012601983462713e-29  5.8143934516587863e-29  -3.3101372095830807e-31  1.7417538558087391e-30  -1.5549730688926465e-30  7.4048614249801673e-31  -2.2449018455853112e-30  -1.5536477888291915e-30  -1.7143865971106109e-32  -1.6366517621491058e-32  -4.4150946974539119e-31  -4.9937870017520384e-31  9.2019036691671863e-33  8.9366372487057342e-33  4.2096040226718366e-35  -1.6092991815615827e-32  2.7796072226569828e-32  -4.4245381186423587e-35  9.9956958769599429e-33  -4.2414876791334092e-35  4.0022472691590769e-35  4.0637320996082366e-32  2.3867408457909353e-42  8.5088585879090118e-42  -1.7729624683534439e-42  -3.8772427160232949e-42  -8.6015215881903971e-43  -2.6016031906179644e-42  3.9682980727191830e-42  2.8597030443420296e-42  3.7256517536896600e-28  1.6549910568718380e-29  4.0335395474876514e-30  1.7927194925177128e-27  7.2537911202051134e-32  -2.0552331762040071e-33  -2.3521215808884592e-33  -2.1429087002960174e-31  2.2910731935562202e-33  1.9112501541741451e-31  3.2405757224141016e-31  2.2123036402760754e-33  -6.5852159795710375e-37  -1.0580048080745697e-33  -4.7238293936561067e-34  2.7838435712474084e-38  -5.4856196909395017e-37  -1.8750297456033662e-35  -6.7337803000452908e-34  1.8695717880500650e-37  3.7002559188467215e-39  -2.1105907807051867e-40  -1.8444773648944800e-36  -3.5768686133144181e-39  -7.9094127059986427e-37  -3.1788532354460975e-39  1.0595407958933948e-38  -1.0700735058398228e-40  -9.0850740337849714e-37  -4.8770535442293200e-39  1.6091740372988686e-40  -1.8950698371917286e-40  1.0183258191108545e-38  -4.4400787624101295e-41  -4.9140174073942302e-37  -4.6983423693110576e-39  -8.8703778034246812e-43  3.8836531348383883e-43  -6.1151497473231608e-43  -1.3799794932567620e-42  -4.6049707050679704e-28  -1.1433791760295280e-29  -2.3799572940227313e-27  5.8850300615164017e-27  9.3910375309144233e-27  -3.4305403737450488e-26  -2.7728219970332938e-26  1.3281670092736399e-25  5.6729499779849895e-26  -3.8672799140873588e-25  -2.7495990833345197e-26  7.6778491731978350e-25  -4.2640549454817253e-25  -2.7033668617061043e-25  2.6218608517440594e-24  -6.3646463324845303e-24  -1.0021322359897785e-23  3.7539391321867424e-23  2.8642281903640158e-23  -1.4077472356007869e-22  -5.8502843836927468e-23  -9.4645673384651707e-23  3.9636098301071210e-22  4.7164685219213479e-23  -7.8610712005585762e-22  2.5300190295450159e-22  4.8759449143874851e-22  -1.4919238158568334e-21  3.9902024227064167e-21  4.4900874838307390e-21  -2.1473308026359433e-20  -7.3690081858506407e-21  4.4503482351505943e-21  6.1387519009651031e-20  -4.6843855935103694e-21  -8.6172954862205983e-20  7.2618596429934841e-20  -1.2652689415396336e-19  -2.2739685258139181e-19  1.1057909911457950e-18  2.5507152758989333e-19  -2.9273896700418151e-18  7.6630198763540506e-19  -2.6747816148991312e-18  1.7553795823795918e-18  -4.0032441075782309e-18  1.4772463635866074e-17  5.9734752158629610e-18  1.8440917239374105e-19  -4.2188297818314473e-18  1.0299252750850577e-17  8.3363757003940725e-18  -2.3030903825866246e-19  -4.1734631791597615e-18  8.6608795282540108e-19  -2.8276264601177441e-19  8.5083463905497472e-18  -4.1062847123055177e-18  8.1503082314754922e-19  3.1821819341844461e-20  -2.3741396077043515e-19  6.3668518458201069e-19  -3.8202547716089722e-18  5.0157397495210392e-19  -2.5154741350334389e-19  3.5235786065289206e-19  -2.9600114282200893e-18  8.0686217951002106e-19  -2.1759495562405736e-19  6.0983971944966320e-20  -1.6505310901475255e-18  7.8903928004432003e-19  -2.4446674638641985e-18  4.4364717990559328e-20  -4.2705042759414159e-19  7.0160516121748118e-18  -3.2390696238027048e-18  1.0002211710379588e-17  1.6141154784069909e-18  -3.5165717325339509e-17  2.0850925478694854e-17  -1.1276238488953400e-16  -2.7750105012072031e-18  3.2233318182316522e-17  -7.6221652905757270e-17  -1.2020286998048582e-17  2.2238956507089841e-16  -1.1799669146873594e-16  6.2765510656494958e-16  -1.9167373717722524e-16  6.7187071402144672e-16  -1.2343172167343613e-16  1.6195200835773981e-16  3.9924626062058144e-17  -3.7482516171338508e-16  4.6856622152261919e-17  1.3562958418160681e-17  -1.6364748029977388e-01  1.1091141613298628e-16  -2.9373228872105460e-16  8.9752484272447762e-18  2.5860029829504325e-16  -1.8250474901324573e-01  -1.2717629353265872e-16  5.8072495404816250e-16  -1.6404419706129106e-01  -1.4379517430096197e-16  4.0015910419312150e-16  -2.0266277594789853e-15  -8.1209077575693206e-16  6.2727560738707107e-17  1.8060858587291655e-16  -2.7235238576187668e-15  4.0575849935791018e-17  -9.5358155893617723e-17  3.6678526826977048e-16  -1.3452095612807296e-15  -1.0290931397869728e-15  1.6607447857058156e-16  -2.4192885740180987e-16  2.2105423749943117e-15  7.5488042802305035e-18  9.1978437251226406e-17  -3.3934778917658692e-16  1.3678434077150146e-15  4.8125877543058639e-16  4.3238993096028051e-17  -5.1758978517750961e-16  1.1709050087977892e-15  1.3826314875895817e-15  -8.0373781861546480e-17  -6.3799152033838421e-16  6.3359328708001938e-17  2.5722605430086193e-15  -2.8995395540319927e-16  -5.9697574843753877e-16  -1.9552307896486306e-15  3.4848883288535682e-15  -1.4246182910387681e-14  -3.0196604995248298e-15  -6.1900133025753563e-16  3.9453039120395949e-15  -1.6857848051536914e-14  -1.7853306220257377e-15  -8.7521489092939291e-16  3.6454412674294763e-15  -1.9255002963290419e-14  1.6401611114566331e-15  2.1347133457981255e-14  -1.6498025024684109e-14  7.3681846594797617e-14  -4.2835802646224891e-15  4.4138310971006151e-15  -6.7520353556280832e-15  4.7873390899694535e-14  -1.0885259217638755e-14  -1.8740313960485381e-15  2.3762100113818049e-14  -1.6157990411864177e-13  4.4234998054165324e-14  -6.7058344367512097e-14  -4.5527948224283694e-14  -3.5123998350239448e-15  3.4306625795108011e-14  -2.1393407690744927e-13  7.5991066955174781e-14  -3.3349355833540771e-13  9.6350966569562449e-14  -3.7326609983817462e-13  1.0365228983249399e-13  -4.0258161453860667e-13  1.1438325782242647e-13  -4.5168475072755903e-13  1.2732195420176348e-13  -4.8567559309018845e-13  1.2748333071919949e-13  -4.3666381045403849e-13  9.6684558331530090e-14  -2.5843846855581322e-13  3.8210279119132154e-14  -3.4911950684699896e-14  -1.0685888317757131e-14  7.8411775009751172e-14  -2.0156482557098745e-14  4.9430066099027803e-14  -5.2709810969131598e-15  -4.5765074423718306e-15  3.6811468455069631e-15  -1.2841540889365447e-16  -4.3728150354045439e-16  2.1786673197209246e-16  4.5460641466475366e-18  -5.7693297210647858e-17  1.3754734245592571e-17  8.5706471961379441e-18  -4.1375119471374879e-18  -2.9511177938496575e-19  -4.3914041976348664e-18  6.9612067549627137e-19  -2.6930319219342448e-14  1.2823155767027225e-18  -2.6356376950658229e-18  1.0206069122596386e-19  1.2333655761164777e-18  -3.4214790387908096e-19  5.9753401547357980e-19  -3.9791381081392650e-21 