<?xml version="1.0"?>
<VTKFile type="UnstructuredGrid"  version="0.1"  >
<UnstructuredGrid>
<Piece  NumberOfPoints="11902" NumberOfCells="23402">
<Points>
<DataArray  type="Float64"  NumberOfComponents="3"  format="ascii">-5 -5 0  5 -5 0  5 5 0  -5 5 0  1.252021669917822 0.001360699790321352 0  -4.9 -5 0  -4.8 -5 0  -4.7 -5 0  -4.6 -5 0  -4.5 -5 0  -4.4 -5 0  -4.3 -5 0  -4.2 -5 0  -4.1 -5 0  -4 -5 0  -3.9 -5 0  -3.8 -5 0  -3.7 -5 0  -3.6 -5 0  -3.5 -5 0  -3.4 -5 0  -3.3 -5 0  -3.2 -5 0  -3.1 -5 0  -3 -5 0  -2.9 -5 0  -2.8 -5 0  -2.7 -5 0  -2.6 -5 0  -2.5 -5 0  -2.4 -5 0  -2.3 -5 0  -2.2 -5 0  -2.1 -5 0  -2 -5 0  -1.9 -5 0  -1.8 -5 0  -1.7 -5 0  -1.6 -5 0  -1.5 -5 0  -1.4 -5 0  -1.3 -5 0  -1.2 -5 0  -1.1 -5 0  -1 -5 0  -0.9000000000000004 -5 0  -0.7999999999999998 -5 0  -0.7000000000000002 -5 0  -0.5999999999999996 -5 0  -0.5 -5 0  -0.4000000000000004 -5 0  -0.2999999999999998 -5 0  -0.2000000000000002 -5 0  -0.09999999999999964 -5 0  0 -5 0  0.09999999999999964 -5 0  0.2000000000000002 -5 0  0.2999999999999998 -5 0  0.4000000000000004 -5 0  0.5 -5 0  0.5999999999999996 -5 0  0.7000000000000002 -5 0  0.7999999999999998 -5 0  0.9000000000000004 -5 0  1 -5 0  1.1 -5 0  1.2 -5 0  1.3 -5 0  1.4 -5 0  1.5 -5 0  1.6 -5 0  1.7 -5 0  1.8 -5 0  1.9 -5 0  2 -5 0  2.1 -5 0  2.2 -5 0  2.3 -5 0  2.4 -5 0  2.5 -5 0  2.6 -5 0  2.7 -5 0  2.8 -5 0  2.9 -5 0  3 -5 0  3.1 -5 0  3.199999999999999 -5 0  3.300000000000001 -5 0  3.4 -5 0  3.5 -5 0  3.6 -5 0  3.699999999999999 -5 0  3.800000000000001 -5 0  3.9 -5 0  4 -5 0  4.1 -5 0  4.199999999999999 -5 0  4.300000000000001 -5 0  4.4 -5 0  4.5 -5 0  4.6 -5 0  4.699999999999999 -5 0  4.800000000000001 -5 0  4.9 -5 0  5 -4.9 0  5 -4.8 0  5 -4.7 0  5 -4.6 0  5 -4.5 0  5 -4.4 0  5 -4.3 0  5 -4.2 0  5 -4.1 0  5 -4 0  5 -3.9 0  5 -3.8 0  5 -3.7 0  5 -3.6 0  5 -3.5 0  5 -3.4 0  5 -3.3 0  5 -3.2 0  5 -3.1 0  5 -3 0  5 -2.9 0  5 -2.8 0  5 -2.7 0  5 -2.6 0  5 -2.5 0  5 -2.4 0  5 -2.3 0  5 -2.2 0  5 -2.1 0  5 -2 0  5 -1.9 0  5 -1.8 0  5 -1.7 0  5 -1.6 0  5 -1.5 0  5 -1.4 0  5 -1.3 0  5 -1.2 0  5 -1.1 0  5 -1 0  5 -0.9000000000000004 0  5 -0.7999999999999998 0  5 -0.7000000000000002 0  5 -0.5999999999999996 0  5 -0.5 0  5 -0.4000000000000004 0  5 -0.2999999999999998 0  5 -0.2000000000000002 0  5 -0.09999999999999964 0  5 0 0  5 0.09999999999999964 0  5 0.2000000000000002 0  5 0.2999999999999998 0  5 0.4000000000000004 0  5 0.5 0  5 0.5999999999999996 0  5 0.7000000000000002 0  5 0.7999999999999998 0  5 0.9000000000000004 0  5 1 0  5 1.1 0  5 1.2 0  5 1.3 0  5 1.4 0  5 1.5 0  5 1.6 0  5 1.7 0  5 1.8 0  5 1.9 0  5 2 0  5 2.1 0  5 2.2 0  5 2.3 0  5 2.4 0  5 2.5 0  5 2.6 0  5 2.7 0  5 2.8 0  5 2.9 0  5 3 0  5 3.1 0  5 3.199999999999999 0  5 3.300000000000001 0  5 3.4 0  5 3.5 0  5 3.6 0  5 3.699999999999999 0  5 3.800000000000001 0  5 3.9 0  5 4 0  5 4.1 0  5 4.199999999999999 0  5 4.300000000000001 0  5 4.4 0  5 4.5 0  5 4.6 0  5 4.699999999999999 0  5 4.800000000000001 0  5 4.9 0  4.9 5 0  4.8 5 0  4.7 5 0  4.6 5 0  4.5 5 0  4.4 5 0  4.3 5 0  4.2 5 0  4.1 5 0  4 5 0  3.9 5 0  3.8 5 0  3.7 5 0  3.6 5 0  3.5 5 0  3.4 5 0  3.3 5 0  3.2 5 0  3.1 5 0  3 5 0  2.9 5 0  2.8 5 0  2.7 5 0  2.6 5 0  2.5 5 0  2.4 5 0  2.3 5 0  2.2 5 0  2.1 5 0  2 5 0  1.9 5 0  1.8 5 0  1.7 5 0  1.6 5 0  1.5 5 0  1.4 5 0  1.3 5 0  1.2 5 0  1.1 5 0  1 5 0  0.9000000000000004 5 0  0.7999999999999998 5 0  0.7000000000000002 5 0  0.5999999999999996 5 0  0.5 5 0  0.4000000000000004 5 0  0.2999999999999998 5 0  0.2000000000000002 5 0  0.09999999999999964 5 0  0 5 0  -0.09999999999999964 5 0  -0.2000000000000002 5 0  -0.2999999999999998 5 0  -0.4000000000000004 5 0  -0.5 5 0  -0.5999999999999996 5 0  -0.7000000000000002 5 0  -0.7999999999999998 5 0  -0.9000000000000004 5 0  -1 5 0  -1.1 5 0  -1.2 5 0  -1.3 5 0  -1.4 5 0  -1.5 5 0  -1.6 5 0  -1.7 5 0  -1.8 5 0  -1.9 5 0  -2 5 0  -2.1 5 0  -2.2 5 0  -2.3 5 0  -2.4 5 0  -2.5 5 0  -2.6 5 0  -2.7 5 0  -2.8 5 0  -2.9 5 0  -3 5 0  -3.1 5 0  -3.199999999999999 5 0  -3.300000000000001 5 0  -3.4 5 0  -3.5 5 0  -3.6 5 0  -3.699999999999999 5 0  -3.800000000000001 5 0  -3.9 5 0  -4 5 0  -4.1 5 0  -4.199999999999999 5 0  -4.300000000000001 5 0  -4.4 5 0  -4.5 5 0  -4.6 5 0  -4.699999999999999 5 0  -4.800000000000001 5 0  -4.9 5 0  -5 4.9 0  -5 4.8 0  -5 4.7 0  -5 4.6 0  -5 4.5 0  -5 4.4 0  -5 4.3 0  -5 4.2 0  -5 4.1 0  -5 4 0  -5 3.9 0  -5 3.8 0  -5 3.7 0  -5 3.6 0  -5 3.5 0  -5 3.4 0  -5 3.3 0  -5 3.2 0  -5 3.1 0  -5 3 0  -5 2.9 0  -5 2.8 0  -5 2.7 0  -5 2.6 0  -5 2.5 0  -5 2.4 0  -5 2.3 0  -5 2.2 0  -5 2.1 0  -5 2 0  -5 1.9 0  -5 1.8 0  -5 1.7 0  -5 1.6 0  -5 1.5 0  -5 1.4 0  -5 1.3 0  -5 1.2 0  -5 1.1 0  -5 1 0  -5 0.9000000000000004 0  -5 0.7999999999999998 0  -5 0.7000000000000002 0  -5 0.5999999999999996 0  -5 0.5 0  -5 0.4000000000000004 0  -5 0.2999999999999998 0  -5 0.2000000000000002 0  -5 0.09999999999999964 0  -5 0 0  -5 -0.09999999999999964 0  -5 -0.2000000000000002 0  -5 -0.2999999999999998 0  -5 -0.4000000000000004 0  -5 -0.5 0  -5 -0.5999999999999996 0  -5 -0.7000000000000002 0  -5 -0.7999999999999998 0  -5 -0.9000000000000004 0  -5 -1 0  -5 -1.1 0  -5 -1.2 0  -5 -1.3 0  -5 -1.4 0  -5 -1.5 0  -5 -1.6 0  -5 -1.7 0  -5 -1.8 0  -5 -1.9 0  -5 -2 0  -5 -2.1 0  -5 -2.2 0  -5 -2.3 0  -5 -2.4 0  -5 -2.5 0  -5 -2.6 0  -5 -2.7 0  -5 -2.8 0  -5 -2.9 0  -5 -3 0  -5 -3.1 0  -5 -3.199999999999999 0  -5 -3.300000000000001 0  -5 -3.4 0  -5 -3.5 0  -5 -3.6 0  -5 -3.699999999999999 0  -5 -3.800000000000001 0  -5 -3.9 0  -5 -4 0  -5 -4.1 0  -5 -4.199999999999999 0  -5 -4.300000000000001 0  -5 -4.4 0  -5 -4.5 0  -5 -4.6 0  -5 -4.699999999999999 0  -5 -4.800000000000001 0  -5 -4.9 0  1.244325612441224 0.09572406758879051 0  1.2231934229653 0.1930714206085747 0  1.189913796505473 0.2896066915721874 0  1.147187087093563 0.3788057721524209 0  1.090006761836939 0.4694674823004791 0  1.024766742189121 0.5540412186859411 0  0.9471244161493165 0.6338390404563744 0  0.8609402924226923 0.7080628061969021 0  0.7692998582661178 0.7734511006261516 0  0.6671854956567275 0.8309065439332933 0  0.5565077305046328 0.8831958461596525 0  0.4445277694633353 0.9269959458669642 0  0.3317388697411436 0.9595216335823056 0  0.2083956610986623 0.9810693549757614 0  0.08931541347222213 0.9995816565696348 0  -0.02739273718526286 1.002753042784935 0  -0.1451436696949054 0.9894489796861833 0  -0.270828364522148 0.9708581041213462 0  -0.3895346608037412 0.9463246461830578 0  -0.5003875197949268 0.9100746290788305 0  -0.6091593779271012 0.8636810127948517 0  -0.7112893530634525 0.8092165654929114 0  -0.8057890034466687 0.7445462918663293 0  -0.8961302426525415 0.6716165873365189 0  -0.9807232776211279 0.5922608380277576 0  -1.054105590595127 0.5111308997364861 0  -1.115664359903481 0.4253520251913452 0  -1.167709056525563 0.3335388256538958 0  -1.205610403152103 0.2430159589134064 0  -1.230112152777163 0.1485724930258595 0  -1.241700977786056 0.05112944143997545 0  -1.241650440991067 -0.04902090259986173 0  -1.230048140375522 -0.1457870385738302 0  -1.20534743326847 -0.2391355732443417 0  -1.164916707921233 -0.3339897596776367 0  -1.115929132402151 -0.4253571650513882 0  -1.055604173713186 -0.5108591285512665 0  -0.9830230704618987 -0.5912181460234478 0  -0.8990498510724098 -0.6693723217136751 0  -0.8090856622014305 -0.7406973809110253 0  -0.7131381529457174 -0.801677786675514 0  -0.608790927118156 -0.8548958680240641 0  -0.4961256528956372 -0.9041359497925813 0  -0.383389543094825 -0.9435671624641434 0  -0.2675426953563342 -0.9703912302172001 0  -0.1437672031199977 -0.9890908255764128 0  -0.02797311266480278 -1.001927221642516 0  0.08910785825552529 -0.994987825886456 0  0.2132758353532022 -0.9779571913103996 0  0.3341411924070927 -0.9579603051320896 0  0.4486344695800141 -0.9256657763465819 0  0.558804367621462 -0.8823313775998177 0  0.6680814553245817 -0.8309484314490668 0  0.7692960856449393 -0.7746020198807554 0  0.8610467571088666 -0.7090319753613746 0  0.9464256857212077 -0.6338296979174964 0  1.022232563887325 -0.5531993349978928 0  1.090413689108173 -0.4684598930217126 0  1.148078871650788 -0.3790091744283955 0  1.191638868181232 -0.2876051873033887 0  1.223802474661664 -0.1921891225251044 0  1.244594400976097 -0.09541074924983638 0  -2.448580673054783 4.918149052343328 0  -2.44845660218426 -4.910530588125571 0  4.910455784240261 2.447919384343362 0  4.918578925023463 -2.44937865978708 0  2.446189705445778 -4.895768414291813 0  2.440622475655953 4.899529746274953 0  -4.910482553996903 -2.447945512042672 0  -4.910479891608776 2.447949400057261 0  -1.748535530772794 4.911052777593838 0  -1.744321365628363 -4.914492370454692 0  4.920641462309002 1.744091862111754 0  4.909176334541491 -1.747856121811475 0  -4.909470084833941 -1.747590066061227 0  -4.910292275981588 1.747334654449035 0  1.745809653821241 4.904912028429785 0  1.747225141968561 -4.893061422554653 0  -1.148842476415194 4.908844628215121 0  -1.129698859822716 -4.916757952938451 0  -4.909192583348638 -1.147914280292217 0  -4.909010960716969 1.147714645350625 0  1.14383707420665 -4.912943122474692 0  1.148852324222086 4.908831417188175 0  4.909332703951219 1.146189658377439 0  4.920164067704693 -1.151973153443197 0  -0.5466694618006123 -4.910037366844771 0  -0.5464520083989007 4.918720994886536 0  -4.907929049120674 -0.5487009815132053 0  -4.907953032087503 0.5472586309107049 0  4.907248474274177 -0.5490192518077933 0  4.91890622876369 0.5457775710627547 0  0.5424518588418461 -4.896916289657723 0  0.5511807131952097 4.91554400601103 0  -4.911900227018458 -3.04829957623006 0  4.918470748678003 3.046315349778226 0  4.911408086735077 -3.048275378931106 0  -4.912747992612208 3.045391092765998 0  3.055304705963135 -4.917394707643312 0  -3.048635874138776 -4.911331101008989 0  3.052203040448925 4.913408784613953 0  -3.04808146009912 4.912220835506236 0  -4.907038604305276 -0.04990702007823112 0  0.04511984143908942 -4.911987629670168 0  0.04956751216647638 4.919014511776687 0  4.914094495105664 -0.05128912272055412 0  3.545622402899282 -4.919035151786892 0  -3.548903167373
[...]
<PointData  Scalars="f_27"> 
<DataArray  type="Float64"  Name="f_27"  format="ascii">0.0000000000000000e+00  0.0000000000000000e+00  0.0000000000000000e+00  0.0000000000000000e+00  9.6671381226017050e-01  0.0000000000000000e+00  0.0000000000000000e+00  0.0000000000000000e+00  0.0000000000000000e+00  0.0000000000000000e+00  0.0000000000000000e+00  0.0000000000000000e+00  0.0000000000000000e+00  0.0000000000000000e+00  0.0000000000000000e+00  0.0000000000000000e+00  0.0000000000000000e+00  0.0000000000000000e+00  0.0000000000000000e+00  0.0000000000000000e+00  0.0000000000000000e+00  0.0000000000000000e+00  0.0000000000000000e+00  0.0000000000000000e+00  0.0000000000000000e+00  0.0000000000000000e+00  0.0000000000000000e+00  0.0000000000000000e+00  0.0000000000000000e+00  0.0000000000000000e+00  0.0000000000000000e+00  0.0000000000000000e+00  0.0000000000000000e+00  0.0000000000000000e+00  0.0000000000000000e+00  0.0000000000000000e+00  0.0000000000000000e+00  0.0000000000000000e+00  0.0000000000000000e+00  0.0000000000000000e+00  0.0000000000000000e+00  0.0000000000000000e+00  0.0000000000000000e+00  0.0000000000000000e+00  0.0000000000000000e+00  0.0000000000000000e+00  0.0000000000000000e+00  0.0000000000000000e+00  0.0000000000000000e+00  0.0000000000000000e+00  0.0000000000000000e+00  0.0000000000000000e+00  0.0000000000000000e+00  0.0000000000000000e+00  0.0000000000000000e+00  0.0000000000000000e+00  0.0000000000000000e+00  0.0000000000000000e+00  0.0000000000000000e+00  0.0000000000000000e+00  0.0000000000000000e+00  0.0000000000000000e+00  0.0000000000000000e+00  0.0000000000000000e+00  0.0000000000000000e+00  0.0000000000000000e+00  0.0000000000000000e+00  0.0000000000000000e+00  0.0000000000000000e+00  0.0000000000000000e+00  0.0000000000000000e+00  0.0000000000000000e+00  0.0000000000000000e+00  0.0000000000000000e+00  0.0000000000000000e+00  0.0000000000000000e+00  0.0000000000000000e+00  0.0000000000000000e+00  0.0000000000000000e+00  0.0000000000000000e+00  0.0000000000000000e+00  0.0000000000000000e+00  0.0000000000000000e+00  0.0000000000000000e+00  0.0000000000000000e+00  0.0000000000000000e+00  0.0000000000000000e+00  0.0000000000000000e+00  0.0000000000000000e+00  0.0000000000000000e+00  0.0000000000000000e+00  0.0000000000000000e+00  0.0000000000000000e+00  0.0000000000000000e+00  0.0000000000000000e+00  0.0000000000000000e+00  0.0000000000000000e+00  0.0000000000000000e+00  0.0000000000000000e+00  0.0000000000000000e+00  0.0000000000000000e+00  0.0000000000000000e+00  0.0000000000000000e+00  0.0000000000000000e+00  0.0000000000000000e+00  0.0000000000000000e+00  0.0000000000000000e+00  0.0000000000000000e+00  0.0000000000000000e+00  0.0000000000000000e+00  0.0000000000000000e+00  0.0000000000000000e+00  0.0000000000000000e+00  0.0000000000000000e+00  0.0000000000000000e+00  0.0000000000000000e+00  0.0000000000000000e+00  0.0000000000000000e+00  0.0000000000000000e+00  0.0000000000000000e+00  0.0000000000000000e+00  0.0000000000000000e+00  0.0000000000000000e+00  0.0000000000000000e+00  0.0000000000000000e+00  0.0000000000000000e+00  0.0000000000000000e+00  0.0000000000000000e+00  0.0000000000000000e+00  0.0000000000000000e+00  0.0000000000000000e+00  0.0000000000000000e+00  0.0000000000000000e+00  0.0000000000000000e+00  0.0000000000000000e+00  0.0000000000000000e+00  0.0000000000000000e+00  0.0000000000000000e+00  0.0000000000000000e+00  0.0000000000000000e+00  0.0000000000000000e+00  0.0000000000000000e+00  0.0000000000000000e+00  0.0000000000000000e+00  0.0000000000000000e+00  0.0000000000000000e+00  0.0000000000000000e+00  0.0000000000000000e+00  0.0000000000000000e+00  0.0000000000000000e+00  0.0000000000000000e+00  0.0000000000000000e+00  0.0000000000000000e+00  0.0000000000000000e+00  0.0000000000000000e+00  0.0000000000000000e+00  0.0000000000000000e+00  0.0000000000000000e+00  0.0000000000000000e+00  0.0000000000000000e+00  0.0000000000000000e+00  0.0000000000000000e+00  0.0000000000000000e+00  0.0000000000000000e+00  0.0000000000000000e+00  0.0000000000000000e+00  0.0000000000000000e+00  0.0000000000000000e+00  0.0000000000000000e+00  0.0000000000000000e+00  0.0000000000000000e+00  0.0000000000000000e+00  0.0000000000000000e+00  0.0000000000000000e+00  0.0000000000000000e+00  0.0000000000000000e+00  0.0000000000000000e+00  0.0000000000000000e+00  0.0000000000000000e+00  0.0000000000000000e+00  0.0000000000000000e+00  0.0000000000000000e+00  0.0000000000000000e+00  0.0000000000000000e+00  0.0000000000000000e+00  0.0000000000000000e+00  0.0000000000000000e+00  0.0000000000000000e+00  0.0000000000000000e+00  0.0000000000000000e+00  0.0000000000000000e+00  0.0000000000000000e+00  0.0000000000000000e+00  0.0000000000000000e+00  0.0000000000000000e+00  0.0000000000000000e+00  0.0000000000000000e+00  0.0000000000000000e+00  0.0000000000000000e+00  0.0000000000000000e+00  0.0000000000000000e+00  0.0000000000000000e+00  0.0000000000000000e+00  0.0000000000000000e+00  0.0000000000000000e+00  0.0000000000000000e+00  0.0000000000000000e+00  0.0000000000000000e+00  0.0000000000000000e+00  0.0000000000000000e+00  0.0000000000000000e+00  0.0000000000000000e+00  0.0000000000000000e+00  0.0000000000000000e+00  0.0000000000000000e+00  0.0000000000000000e+00  0.0000000000000000e+00  0.0000000000000000e+00  0.0000000000000000e+00  0.0000000000000000e+00  0.0000000000000000e+00  0.0000000000000000e+00  0.0000000000000000e+00  0.0000000000000000e+00  0.0000000000000000e+00  0.0000000000000000e+00  0.0000000000000000e+00  0.0000000000000000e+00  0.0000000000000000e+00  0.0000000000000000e+00  0.0000000000000000e+00  0.0000000000000000e+00  0.0000000000000000e+00  0.0000000000000000e+00  0.0000000000000000e+00  0.0000000000000000e+00  0.0000000000000000e+00  0.0000000000000000e+00  0.0000000000000000e+00  0.0000000000000000e+00  0.0000000000000000e+00  0.0000000000000000e+00  0.0000000000000000e+00  0.0000000000000000e+00  0.0000000000000000e+00  0.0000000000000000e+00  0.0000000000000000e+00  0.0000000000000000e+00  0.0000000000000000e+00  0.0000000000000000e+00  0.0000000000000000e+00  0.0000000000000000e+00  0.0000000000000000e+00  0.0000000000000000e+00  0.0000000000000000e+00  0.0000000000000000e+00  0.0000000000000000e+00  0.0000000000000000e+00  0.0000000000000000e+00  0.0000000000000000e+00  0.0000000000000000e+00  0.0000000000000000e+00  0.0000000000000000e+00  0.0000000000000000e+00  0.0000000000000000e+00  0.0000000000000000e+00  0.0000000000000000e+00  0.0000000000000000e+00  0.0000000000000000e+00  0.0000000000000000e+00  0.0000000000000000e+00  0.0000000000000000e+00  0.0000000000000000e+00  0.0000000000000000e+00  0.0000000000000000e+00  0.0000000000000000e+00  0.0000000000000000e+00  0.0000000000000000e+00  0.0000000000000000e+00  0.0000000000000000e+00  0.0000000000000000e+00  0.0000000000000000e+00  0.0000000000000000e+00  0.0000000000000000e+00  0.0000000000000000e+00  0.0000000000000000e+00  0.0000000000000000e+00  0.0000000000000000e+00  0.0000000000000000e+00  0.0000000000000000e+00  0.0000000000000000e+00  0.0000000000000000e+00  0.0000000000000000e+00  0.0000000000000000e+00  0.0000000000000000e+00  0.0000000000000000e+00  0.0000000000000000e+00  0.0000000000000000e+00  0.0000000000000000e+00  0.0000000000000000e+00  0.0000000000000000e+00  0.0000000000000000e+00  0.0000000000000000e+00  0.0000000000000000e+00  0.0000000000000000e+00  0.0000000000000000e+00  0.0000000000000000e+00  0.0000000000000000e+00  0.0000000000000000e+00  0.0000000000000000e+00  0.0000000000000000e+00  0.0000000000000000e+00  0.0000000000000000e+00  0.0000000000000000e+00  0.0000000000000000e+00  0.0000000000000000e+00  0.0000000000000000e+00  0.0000000000000000e+00  0.0000000000000000e+00  0.0000000000000000e+00  0.0000000000000000e+00  0.0000000000000000e+00  0.0000000000000000e+00  0.0000000000000000e+00  0.0000000000000000e+00  0.0000000000000000e+00  0.0000000000000000e+00  0.0000000000000000e+00  0.0000000000000000e+00  0.0000000000000000e+00  0.0000000000000000e+00  0.0000000000000000e+00  0.0000000000000000e+00  0.0000000000000000e+00  0.0000000000000000e+00  0.0000000000000000e+00  0.0000000000000000e+00  0.0000000000000000e+00  0.0000000000000000e+00  0.0000000000000000e+00  0.0000000000000000e+00  0.0000000000000000e+00  0.0000000000000000e+00  0.0000000000000000e+00  0.0000000000000000e+00  0.0000000000000000e+00  0.0000000000000000e+00  0.0000000000000000e+00  0.0000000000000000e+00  0.0000000000000000e+00  0.0000000000000000e+00  0.0000000000000000e+00  0.0000000000000000e+00  0.0000000000000000e+00  0.0000000000000000e+00  0.0000000000000000e+00  0.0000000000000000e+00  0.0000000000000000e+00  0.0000000000000000e+00  0.0000000000000000e+00  0.0000000000000000e+00  0.0000000000000000e+00  0.0000000000000000e+00  0.0000000000000000e+00  0.0000000000000000e+00  0.0000000000000000e+00  0.0000000000000000e+00  0.0000000000000000e+00  0.0000000000000000e+00  0.0000000000000000e+00  0.0000000000000000e+00  0.0000000000000000e+00  0.0000000000000000e+00  0.0000000000000000e+00  0.0000000000000000e+00  0.0000000000000000e+00  0.0000000000000000e+00  0.0000000000000000e+00  0.0000000000000000e+00  0.0000000000000000e+00  0.0000000000000000e+00  0.0000000000000000e+00  0.0000000000000000e+00  0.0000000000000000e+00  0.0000000000000000e+00  0.0000000000000000e+00  0.0000000000000000e+00  0.0000000000000000e+00  0.0000000000000000e+00  0.0000000000000000e+00  0.0000000000000000e+00  0.0000000000000000e+00  0.0000000000000000e+00  0.0000000000000000e+00  0.0000000000000000e+00  0.0000000000000000e+00  0.0000000000000000e+00  0.0000000000000000e+00  0.0000000000000000e+00  0.0000000000000000e+00  0.0000000000000000e+00  9.6629735454459442e-01  9.7130417599250096e-01  9.7494271732640891e-01  9.7867657949783426e-01  9.7308567941242785e-01  9.6310430297884186e-01  9.6695586407015333e-01  9.7235107325358727e-01  9.6917286384267765e-01  9.6479189048937641e-01  9.6866089995460558e-01  9.6458518157098205e-01  9.6470613317546616e-01  9.7124788273302987e-01  9.7115741508274811e-01  9.6876261216968562e-01  9.7455428944284606e-01  9.7389384103941345e-01  9.6702715432324271e-01  9.6887805855711207e-01  9.7043709819270452e-01  9.7077887225295045e-01  9.6744834792589607e-01  9.6735705706624653e-01  9.6990747212676254e-01  9.7102576365619353e-01  9.6927310577709658e-01  9.7108310160041511e-01  9.7505763508334342e-01  9.7260811418705095e-01  9.7199155207580468e-01  9.6994964637346093e-01  9.6796219175373410e-01  9.6031763058591857e-01  9.7000722849730336e-01  9.6542709179886510e-01  9.6832226577226765e-01  9.6632776164707279e-01  9.6766858560318014e-01  9.6839746352318323e-01  9.7398888965303210e-01  9.6338896141927233e-01  9.7092353247470409e-01  9.6490252919547814e-01  9.7046404769045935e-01  9.6986568015265218e-01  9.4782802865505578e-01  9.6464779211527096e-01  9.7023072516403797e-01  9.6862802468294540e-01  9.6960120276825923e-01  9.7367155165521024e-01  9.7025158052260674e-01  9.6181561831011431e-01  9.6844256458557310e-01  9.7089743786947169e-01  9.7162641406719630e-01  9.7199224074553325e-01  9.6217251445869334e-01  9.6497443517180037e-01  9.6742753412665494e-01  9.6707145880496381e-01  -2.4032987628215690e-32  2.5119897536888088e-32  3.7207503877220548e-35  7.3824736430046390e-35  3.1060733973621308e-32  5.5550283235577859e-32  6.9566322339990342e-36  1.7265014065999879e-36  -1.0144821127415101e-31  -4.3716610430170671e-32  7.8137382176189921e-33  1.4790415367455160e-32  9.2574759517166509e-33  1.0842363813147279e-32  5.9811477690743751e-31  2.9972992603149587e-31  -8.9295414506208530e-31  -7.3727592098898336e-33  -1.2820931166130558e-30  -1.7382641260044450e-30  -2.5792422264032463e-31  -3.9004841682940086e-31  -6.4604557264265688e-31  -1.0336382404413546e-30  -4.2930871685601219e-31  -4.7803913489816633e-31  -2.4887143175242526e-29  -5.8449707926964762e-30  -2.9056384198622522e-30  -2.9637666528912396e-29  1.1932276474703584e-30  -4.3903515742977090e-31  -6.4768197430903200e-37  4.9124102173053586e-37  4.2638741327913263e-37  -6.5033622984795562e-37  6.7258291807695421e-34  3.8271107117180018e-34  4.2532158758081618e-34  3.9920011709097038e-34  -1.3044255154466712e-28  1.4127323128168948e-30  -6.1661528705616767e-32  2.5185828226826374e-28  1.7353744920482790e-36  1.1778483759852573e-36  2.0684188478822865e-36  -5.7853855986150759e-39  -1.0613930546412803e-39  -6.8124596694146706e-39  8.4419902027744741e-40  -3.1891270316025815e-38  1.5361495485300894e-40  -2.4166757617373671e-38  -2.4327933419821841e-39  -1.8538606707812647e-40  -2.5673849300794282e-38  1.9163226494336682e-40  -1.2416634216490344e-38  -2.5185922605306059e-40  -6.8462999407829075e-41  -7.4722669798993777e-41  -6.9382756013373869e-41  -2.7849191295193038e-42  -1.3443665561271137e-42  6.6182866519605778e-42  8.2499357906714705e-42  -7.1513949251215842e-41  2.3441275553953882e-28  4.2728245504228882e-31  -2.2247297843522310e-31  2.3367267514341558e-28  3.9022295481710910e-31  2.3887823431742397e-31  2.4561340541513157e-30  2.1018229885244090e-30  2.5504478140673869e-31  2.8082670851989114e-31  -4.1347575133753226e-31  -1.4080624057414574e-30  -3.2123798753722717e-31  -6.9931659988119500e-32  5.5160994380672847e-30  8.0108101900505644e-30  -5.2041420917214208e-32  3.4086439666390557e-31  -3.9756670858614414e-33  1.2069246836739973e-31  -2.7475908758200569e-31  -2.8615713137510326e-31  -2.4501596923397699e-33  -2.2260734961200073e-33  -5.5892738160634319e-32  -5.3621563799068574e-32  1.2646634472431163e-33  1.3611970978095493e-33  6.3099388213042655e-36  -2.1953009806203799e-33  5.6413868712307420e-33  -5.4194055735842146e-36  1.1263282299175568e-33  -5.3520362932844910e-36  5.4745680603074341e-36  5.2007452159986464e-33  2.9267761169454564e-43  1.2090220906647876e-42  -2.5370892694139936e-43  -3.6549967568201295e-43  -1.5715085221424493e-43  -1.9807666189828048e-43  4.6189933730000162e-43  3.5391330953709583e-43  5.4470273003793629e-29  2.2978471907237991e-30  6.7617133001474879e-31  2.8048626417620811e-28  5.5302508855087405e-33  -2.6762752595346547e-34  -3.4725278187596509e-34  -1.5139252724410580e-32  3.0918851197203730e-34  2.2252146704389031e-32  4.2279614698629388e-32  2.7517945552711614e-34  -9.2988725685037947e-38  -1.3222961002574864e-34  -5.7608696240456280e-35  -1.6271009278150545e-38  -6.9934268358974210e-38  6.5035190644800199e-36  -7.6878596553254937e-35  4.8740723152157305e-39  2.7454772803329104e-40  -2.4838559558681895e-41  -2.3347627832749894e-37  -8.1794494040427621e-40  -4.5526345112987830e-38  -6.2042134689166490e-40  1.6659453621277482e-39  -2.2825205714398231e-41  -1.1248145898102181e-37  -7.7130657346821135e-40  -1.6841430328718511e-40  -2.0590721996033917e-41  1.5925991476463737e-39  -1.5051332996781467e-41  -4.5634050407250141e-38  -6.1025753187831328e-40  -1.1686563141120138e-43  6.1290825720145353e-44  -5.2042462731809339e-44  -1.6540530983795566e-43  -4.9062845979662759e-29  -3.6488394638001417e-29  -3.2067458260860147e-28  8.5739878791139114e-28  1.2087917790124995e-27  -4.6271350687132352e-27  -3.3530055065443440e-27  1.7125547279913138e-26  5.7742000416803986e-27  -4.6780538589825721e-26  3.9425383780853028e-27  7.7216141923764685e-26  -8.4547417765327016e-26  7.1469656533095949e-26  4.3608982761410475e-25  -1.2390376375726243e-24  -1.5611496953467667e-24  6.2144562059049873e-24  4.2669687153163650e-24  -2.1883016349622941e-23  -8.2507347062525687e-24  -1.8105709363476639e-23  5.8849466493698691e-23  5.1583547299953606e-24  -1.1027404528385062e-22  4.1698908559951441e-23  4.6505607009595424e-23  -2.2294609201959411e-22  6.4445023791424710e-22  6.3641370806249008e-22  -3.1808743021923777e-21  -9.5032713273414836e-22  3.0346518152689547e-22  8.6225021605073697e-21  -1.0617773958023242e-21  -1.0746215860154816e-20  1.1213843778283118e-20  -2.3428638757504036e-20  -3.3038255335868442e-20  1.6813613870755700e-19  3.3023766038563425e-20  -4.2100260100576465e-19  1.2493503920042719e-19  -4.5353165737417353e-19  1.9625554671850057e-19  -6.0284365280000590e-19  2.3193180345228521e-18  8.5455595077172760e-19  3.6379586049608470e-20  -6.3491392563352538e-19  1.6533613609805546e-18  1.1717244930774005e-18  -1.8261813884741057e-20  -6.3226225768092605e-19  1.2345235682550101e-19  -1.0171425034726815e-20  1.1096018370526821e-18  -6.1557979322463123e-19  1.1039021275611689e-19  4.6861353211145641e-20  -3.8559224584823551e-20  7.6347229657037977e-20  -5.2495977338789265e-19  9.8287803868778270e-20  -3.6504867508692937e-20  3.6479626876844015e-20  -3.7421601226024136e-19  1.1946469342850437e-19  -2.8996819120921750e-20  3.4817400957068565e-21  -2.2816330206478146e-19  1.2959520162305898e-19  -5.1758181591456581e-19  7.0746787789146469e-21  1.7697674451638078e-20  6.6182627379647031e-19  -4.0650632877798908e-19  1.5083872021232856e-18  8.8402092865345444e-20  -4.1095582528246444e-18  2.7098059203760015e-18  -1.5502203574083198e-17  -3.3119269741857935e-19  4.7510381431925257e-18  -1.3198978620873088e-17  -4.6541755669384318e-19  2.4579659314258758e-17  -1.4334025485466122e-17  7.8529762629677069e-17  -2.4221975152113911e-17  8.4205219599902940e-17  -1.4705900673432653e-17  1.3543233352986371e-17  7.8087069540867149e-18  -5.9022716034478430e-17  5.8582509477129386e-18  5.4279363539562034e-20  -2.8275633427009494e-01  1.6483901841765018e-17  -4.0619497142469360e-17  -1.5351062268071329e-19  4.5624768649702345e-17  -3.2476685090926083e-01  -2.0946843269947847e-17  9.2901678559681597e-17  -2.6062949439966943e-01  -2.2492262595153388e-17  6.0415338166340384e-17  -3.1671517118795109e-16  -1.1201456732087761e-16  4.7957918079396534e-18  4.7552327884798132e-17  -3.4421980617865669e-16  6.5023296446480662e-18  -1.9330690363900208e-17  6.9113290616098533e-17  -2.7174440999539882e-16  -1.8554437538581928e-16  2.8824079731319428e-17  -3.9139050288688392e-17  3.8133467547702648e-16  -8.4838837340119232e-18  1.8455858298040647e-17  -6.8279540323606835e-17  2.6426363266445340e-16  1.2867989069134811e-16  -4.2747174728019865e-18  -5.6883456360529144e-17  1.9872269586517685e-17  2.0186066902026948e-16  -2.0061134880994917e-17  -5.9138862550663981e-17  -1.3043786098254275e-16  3.2586330051691751e-16  -4.3991043008049557e-17  -5.2656305785912693e-17  -3.7009824011961001e-16  4.4268138508895070e-16  -1.5950763020944337e-15  -5.1144873873098085e-16  -5.7480995035751662e-17  5.1965094000765530e-16  -2.0315424349197214e-15  -3.4124662640000100e-16  -9.9324011623365201e-17  5.0487518953896120e-16  -2.5367947591492379e-15  1.6867106749944685e-16  3.2166994771740846e-15  -2.3501816973143033e-15  1.0286562915736069e-14  -5.4470951728201842e-16  6.4009378071934177e-16  -1.0962471609272945e-15  8.5616331840816307e-15  -2.7143217476745694e-15  6.9998358150137133e-15  7.8741383829324471e-16  -1.3493723235025627e-14  5.0766149981659206e-15  -1.3399207376177957e-14  -2.5188840522881318e-15  -8.1290716682588340e-16  3.1695974797048533e-15  -2.2339265997253084e-14  8.5090590472542060e-15  -3.8806500525112210e-14  1.1360938502916097e-14  -4.4147725992622484e-14  1.2339241670981626e-14  -4.8988876376498655e-14  1.4688711738494794e-14  -6.1219324771996105e-14  1.8028927749515992e-14  -6.9955260790890279e-14  1.8021972286054160e-14  -5.8873666769540946e-14  1.2088747103771346e-14  -2.8571422048318382e-14  3.3886749110556302e-15  4.6794622498617495e-16  -2.1492881883233844e-15  1.0618626988534343e-14  -2.3349168780829274e-15  4.7099955928712529e-15  -2.9290713995211894e-16  -1.4078744766717745e-15  3.6128924284856696e-16  -8.0803391686545537e-17  -2.8372283495059903e-17  3.4681224648976580e-17  -4.3651495616101011e-18  -7.2797420021915782e-18  2.3459909040596028e-18  8.4789637829382281e-19  -5.4006633924911061e-19  2.8124308858008757e-20  -6.7046228383070865e-19  7.2975940215555037e-20  -3.1845846725514966e-15  1.6261982707727928e-19  -2.6049911573899226e-19  -6.4881429226107833e-21  1.9307888753542418e-19  -4.4922287169609099e-20  6.1420571710787637e-20  3.2391785475543639e-21