<?xml version="1.0"?>
<VTKFile type="UnstructuredGrid"  version="0.1"  >
<UnstructuredGrid>
<Piece  NumberOfPoints="11902" NumberOfCells="23402">
<Points>
<DataArray  type="Float64"  NumberOfComponents="3"  format="ascii">-5 -5 0  5 -5 0  5 5 0  -5 5 0  1.264833669450763 0.001264107697276983 0  -4.9 -5 0  -4.8 -5 0  -4.7 -5 0  -4.6 -5 0  -4.5 -5 0  -4.4 -5 0  -4.3 -5 0  -4.2 -5 0  -4.1 -5 0  -4 -5 0  -3.9 -5 0  -3.8 -5 0  -3.7 -5 0  -3.6 -5 0  -3.5 -5 0  -3.4 -5 0  -3.3 -5 0  -3.2 -5 0  -3.1 -5 0  -3 -5 0  -2.9 -5 0  -2.8 -5 0  -2.7 -5 0  -2.6 -5 0  -2.5 -5 0  -2.4 -5 0  -2.3 -5 0  -2.2 -5 0  -2.1 -5 0  -2 -5 0  -1.9 -5 0  -1.8 -5 0  -1.7 -5 0  -1.6 -5 0  -1.5 -5 0  -1.4 -5 0  -1.3 -5 0  -1.2 -5 0  -1.1 -5 0  -1 -5 0  -0.9000000000000004 -5 0  -0.7999999999999998 -5 0  -0.7000000000000002 -5 0  -0.5999999999999996 -5 0  -0.5 -5 0  -0.4000000000000004 -5 0  -0.2999999999999998 -5 0  -0.2000000000000002 -5 0  -0.09999999999999964 -5 0  0 -5 0  0.09999999999999964 -5 0  0.2000000000000002 -5 0  0.2999999999999998 -5 0  0.4000000000000004 -5 0  0.5 -5 0  0.5999999999999996 -5 0  0.7000000000000002 -5 0  0.7999999999999998 -5 0  0.9000000000000004 -5 0  1 -5 0  1.1 -5 0  1.2 -5 0  1.3 -5 0  1.4 -5 0  1.5 -5 0  1.6 -5 0  1.7 -5 0  1.8 -5 0  1.9 -5 0  2 -5 0  2.1 -5 0  2.2 -5 0  2.3 -5 0  2.4 -5 0  2.5 -5 0  2.6 -5 0  2.7 -5 0  2.8 -5 0  2.9 -5 0  3 -5 0  3.1 -5 0  3.199999999999999 -5 0  3.300000000000001 -5 0  3.4 -5 0  3.5 -5 0  3.6 -5 0  3.699999999999999 -5 0  3.800000000000001 -5 0  3.9 -5 0  4 -5 0  4.1 -5 0  4.199999999999999 -5 0  4.300000000000001 -5 0  4.4 -5 0  4.5 -5 0  4.6 -5 0  4.699999999999999 -5 0  4.800000000000001 -5 0  4.9 -5 0  5 -4.9 0  5 -4.8 0  5 -4.7 0  5 -4.6 0  5 -4.5 0  5 -4.4 0  5 -4.3 0  5 -4.2 0  5 -4.1 0  5 -4 0  5 -3.9 0  5 -3.8 0  5 -3.7 0  5 -3.6 0  5 -3.5 0  5 -3.4 0  5 -3.3 0  5 -3.2 0  5 -3.1 0  5 -3 0  5 -2.9 0  5 -2.8 0  5 -2.7 0  5 -2.6 0  5 -2.5 0  5 -2.4 0  5 -2.3 0  5 -2.2 0  5 -2.1 0  5 -2 0  5 -1.9 0  5 -1.8 0  5 -1.7 0  5 -1.6 0  5 -1.5 0  5 -1.4 0  5 -1.3 0  5 -1.2 0  5 -1.1 0  5 -1 0  5 -0.9000000000000004 0  5 -0.7999999999999998 0  5 -0.7000000000000002 0  5 -0.5999999999999996 0  5 -0.5 0  5 -0.4000000000000004 0  5 -0.2999999999999998 0  5 -0.2000000000000002 0  5 -0.09999999999999964 0  5 0 0  5 0.09999999999999964 0  5 0.2000000000000002 0  5 0.2999999999999998 0  5 0.4000000000000004 0  5 0.5 0  5 0.5999999999999996 0  5 0.7000000000000002 0  5 0.7999999999999998 0  5 0.9000000000000004 0  5 1 0  5 1.1 0  5 1.2 0  5 1.3 0  5 1.4 0  5 1.5 0  5 1.6 0  5 1.7 0  5 1.8 0  5 1.9 0  5 2 0  5 2.1 0  5 2.2 0  5 2.3 0  5 2.4 0  5 2.5 0  5 2.6 0  5 2.7 0  5 2.8 0  5 2.9 0  5 3 0  5 3.1 0  5 3.199999999999999 0  5 3.300000000000001 0  5 3.4 0  5 3.5 0  5 3.6 0  5 3.699999999999999 0  5 3.800000000000001 0  5 3.9 0  5 4 0  5 4.1 0  5 4.199999999999999 0  5 4.300000000000001 0  5 4.4 0  5 4.5 0  5 4.6 0  5 4.699999999999999 0  5 4.800000000000001 0  5 4.9 0  4.9 5 0  4.8 5 0  4.7 5 0  4.6 5 0  4.5 5 0  4.4 5 0  4.3 5 0  4.2 5 0  4.1 5 0  4 5 0  3.9 5 0  3.8 5 0  3.7 5 0  3.6 5 0  3.5 5 0  3.4 5 0  3.3 5 0  3.2 5 0  3.1 5 0  3 5 0  2.9 5 0  2.8 5 0  2.7 5 0  2.6 5 0  2.5 5 0  2.4 5 0  2.3 5 0  2.2 5 0  2.1 5 0  2 5 0  1.9 5 0  1.8 5 0  1.7 5 0  1.6 5 0  1.5 5 0  1.4 5 0  1.3 5 0  1.2 5 0  1.1 5 0  1 5 0  0.9000000000000004 5 0  0.7999999999999998 5 0  0.7000000000000002 5 0  0.5999999999999996 5 0  0.5 5 0  0.4000000000000004 5 0  0.2999999999999998 5 0  0.2000000000000002 5 0  0.09999999999999964 5 0  0 5 0  -0.09999999999999964 5 0  -0.2000000000000002 5 0  -0.2999999999999998 5 0  -0.4000000000000004 5 0  -0.5 5 0  -0.5999999999999996 5 0  -0.7000000000000002 5 0  -0.7999999999999998 5 0  -0.9000000000000004 5 0  -1 5 0  -1.1 5 0  -1.2 5 0  -1.3 5 0  -1.4 5 0  -1.5 5 0  -1.6 5 0  -1.7 5 0  -1.8 5 0  -1.9 5 0  -2 5 0  -2.1 5 0  -2.2 5 0  -2.3 5 0  -2.4 5 0  -2.5 5 0  -2.6 5 0  -2.7 5 0  -2.8 5 0  -2.9 5 0  -3 5 0  -3.1 5 0  -3.199999999999999 5 0  -3.300000000000001 5 0  -3.4 5 0  -3.5 5 0  -3.6 5 0  -3.699999999999999 5 0  -3.800000000000001 5 0  -3.9 5 0  -4 5 0  -4.1 5 0  -4.199999999999999 5 0  -4.300000000000001 5 0  -4.4 5 0  -4.5 5 0  -4.6 5 0  -4.699999999999999 5 0  -4.800000000000001 5 0  -4.9 5 0  -5 4.9 0  -5 4.8 0  -5 4.7 0  -5 4.6 0  -5 4.5 0  -5 4.4 0  -5 4.3 0  -5 4.2 0  -5 4.1 0  -5 4 0  -5 3.9 0  -5 3.8 0  -5 3.7 0  -5 3.6 0  -5 3.5 0  -5 3.4 0  -5 3.3 0  -5 3.2 0  -5 3.1 0  -5 3 0  -5 2.9 0  -5 2.8 0  -5 2.7 0  -5 2.6 0  -5 2.5 0  -5 2.4 0  -5 2.3 0  -5 2.2 0  -5 2.1 0  -5 2 0  -5 1.9 0  -5 1.8 0  -5 1.7 0  -5 1.6 0  -5 1.5 0  -5 1.4 0  -5 1.3 0  -5 1.2 0  -5 1.1 0  -5 1 0  -5 0.9000000000000004 0  -5 0.7999999999999998 0  -5 0.7000000000000002 0  -5 0.5999999999999996 0  -5 0.5 0  -5 0.4000000000000004 0  -5 0.2999999999999998 0  -5 0.2000000000000002 0  -5 0.09999999999999964 0  -5 0 0  -5 -0.09999999999999964 0  -5 -0.2000000000000002 0  -5 -0.2999999999999998 0  -5 -0.4000000000000004 0  -5 -0.5 0  -5 -0.5999999999999996 0  -5 -0.7000000000000002 0  -5 -0.7999999999999998 0  -5 -0.9000000000000004 0  -5 -1 0  -5 -1.1 0  -5 -1.2 0  -5 -1.3 0  -5 -1.4 0  -5 -1.5 0  -5 -1.6 0  -5 -1.7 0  -5 -1.8 0  -5 -1.9 0  -5 -2 0  -5 -2.1 0  -5 -2.2 0  -5 -2.3 0  -5 -2.4 0  -5 -2.5 0  -5 -2.6 0  -5 -2.7 0  -5 -2.8 0  -5 -2.9 0  -5 -3 0  -5 -3.1 0  -5 -3.199999999999999 0  -5 -3.300000000000001 0  -5 -3.4 0  -5 -3.5 0  -5 -3.6 0  -5 -3.699999999999999 0  -5 -3.800000000000001 0  -5 -3.9 0  -5 -4 0  -5 -4.1 0  -5 -4.199999999999999 0  -5 -4.300000000000001 0  -5 -4.4 0  -5 -4.5 0  -5 -4.6 0  -5 -4.699999999999999 0  -5 -4.800000000000001 0  -5 -4.9 0  1.256782544437134 0.09296781130512248 0  1.234604998772265 0.1907826159530152 0  1.200781354049452 0.2875747523129175 0  1.158085074385599 0.3759830660035525 0  1.099380780898623 0.467143495335592 0  1.03271781008471 0.5505516858360524 0  0.9541199191757482 0.6310736319515929 0  0.8668173135187721 0.7059976441535883 0  0.7749860890410433 0.771194471672909 0  0.673140795665678 0.8286532519311041 0  0.5596540904941548 0.8808882491591994 0  0.4460363623405266 0.9259068595791177 0  0.3354428845624148 0.9574629606191095 0  0.2088087402001766 0.9800101755360161 0  0.0874967635213974 0.9984527067172547 0  -0.02626443847003547 1.002014231245615 0  -0.1439411000728129 0.9883741032824912 0  -0.2740712910664462 0.968440307654578 0  -0.3942886465909016 0.9442450763963819 0  -0.5036952342053383 0.9091638254699028 0  -0.6132371087209521 0.8627554096812534 0  -0.7151752376964625 0.8076061130967774 0  -0.8096024321469674 0.7431914857698053 0  -0.9012720182731805 0.6693908837748804 0  -0.9879588168444104 0.5890101259272773 0  -1.062971741589951 0.5072738241611934 0  -1.125193309095347 0.422985986690058 0  -1.180537097569949 0.3289951724084944 0  -1.217872061728885 0.2422945788020462 0  -1.242194940136044 0.1486289678079078 0  -1.252420724007705 0.05268362990259987 0  -1.252365472502156 -0.05037207605997146 0  -1.242071082510173 -0.1455868511785866 0  -1.217504820231284 -0.2362247066848944 0  -1.175195680140545 -0.3315769397380491 0  -1.125490607632167 -0.4240645296321288 0  -1.065136436601611 -0.5071029064914163 0  -0.9905299220780994 -0.5880312890083763 0  -0.904446713766402 -0.6673694102685088 0  -0.8137082441492695 -0.738679251886881 0  -0.718473512681525 -0.7992683151589334 0  -0.6138714729284688 -0.8526627004014541 0  -0.4978287710738348 -0.9024228523595291 0  -0.3854673495398712 -0.9423334488046269 0  -0.2707449430012773 -0.9683028371416608 0  -0.1421895501859365 -0.9884379286269489 0  -0.02748919153631071 -1.001252226554041 0  0.0858595810006727 -0.9938443968288657 0  0.2154549132204016 -0.9758153030086035 0  0.3384223836970406 -0.9556044147335374 0  0.450265948424337 -0.9245766032541732 0  0.5624358379832912 -0.8801073475864546 0  0.6744466785392252 -0.8284740360502713 0  0.774744196075095 -0.7724148690665367 0  0.8659469712902027 -0.7076921921126142 0  0.9517213765499976 -0.6318648432814239 0  1.030330348718764 -0.5491234735771916 0  1.101119137432828 -0.4653672386839909 0  1.158963006533843 -0.3762668432759694 0  1.202611382042058 -0.2856579588323129 0  1.235341560607059 -0.1901646975347447 0  1.257200013114868 -0.09310215665895633 0  -2.4485190645043 4.918038958372233 0  -2.448389132051687 -4.910410237615583 0  4.910331452870097 2.447834373030297 0  4.918466117422252 -2.44930164937994 0  2.446111470457298 -4.895627320519194 0  2.440546580637382 4.89939305597195 0  -4.910358789354179 -2.4478614690848 0  -4.910356100254242 2.447865643228111 0  -1.748471448282074 4.910892958467096 0  -1.744259569339603 -4.914338628721635 0  4.920484707184168 1.744014948429253 0  4.908997353027762 -1.747768397495453 0  -4.909292415953662 -1.747503299707642 0  -4.910116174751097 1.747249112180966 0  1.745740944062126 4.904740058317709 0  1.747148530279568 -4.892868539164578 0  -1.148791337136774 4.908649879643137 0  -1.129652325326301 -4.91657958455282 0  -4.908970452538238 -1.147842896577589 0  -4.908788350882769 1.147643676497782 0  1.14378882761277 -4.912756661460693 0  1.14880087603205 4.908635925520313 0  4.909109546763079 1.146117578353283 0  4.919968019156472 -1.151909864600332 0  -0.5466423706380629 -4.909824653209792 0  -0.5464281359741346 4.918528487007968 0  -4.907671196121813 -0.548661241137631 0  -4.907695181222012 0.547219629076392 0  4.90698719797633 -0.5489792005105686 0  4.918677672754331 0.5457423439340416 0  0.5424222846579605 -4.896672070560301 0  0.5511553525259862 4.915343720923646 0  -4.911816598834031 -3.048230055322425 0  4.918392967047865 3.04625028603006 0  4.911323836885043 -3.048204942075412 0  -4.912664990408075 3.045322339407157 0  3.055250010304025 -4.917314525246065 0  -3.048576863235038 -4.911245180774483 0  3.052145386678374 4.913324360322881 0  -3.048023079665071 4.912135796551776 0  -4.906767418294632 -0.04990291871174956 0  0.04511820301395122 -4.911773072987448 0  0.04956509428870028 4.918816705585254 0  4.913842385835523 -0.05128571745275044 0  3.545579268169755 -4.9189792670612 0  -3.548856281387153 4.911875
[...]
<PointData  Scalars="f_27"> 
<DataArray  type="Float64"  Name="f_27"  format="ascii">0.0000000000000000e+00  0.0000000000000000e+00  0.0000000000000000e+00  0.0000000000000000e+00  9.8257437656036484e-01  0.0000000000000000e+00  0.0000000000000000e+00  0.0000000000000000e+00  0.0000000000000000e+00  0.0000000000000000e+00  0.0000000000000000e+00  0.0000000000000000e+00  0.0000000000000000e+00  0.0000000000000000e+00  0.0000000000000000e+00  0.0000000000000000e+00  0.0000000000000000e+00  0.0000000000000000e+00  0.0000000000000000e+00  0.0000000000000000e+00  0.0000000000000000e+00  0.0000000000000000e+00  0.0000000000000000e+00  0.0000000000000000e+00  0.0000000000000000e+00  0.0000000000000000e+00  0.0000000000000000e+00  0.0000000000000000e+00  0.0000000000000000e+00  0.0000000000000000e+00  0.0000000000000000e+00  0.0000000000000000e+00  0.0000000000000000e+00  0.0000000000000000e+00  0.0000000000000000e+00  0.0000000000000000e+00  0.0000000000000000e+00  0.0000000000000000e+00  0.0000000000000000e+00  0.0000000000000000e+00  0.0000000000000000e+00  0.0000000000000000e+00  0.0000000000000000e+00  0.0000000000000000e+00  0.0000000000000000e+00  0.0000000000000000e+00  0.0000000000000000e+00  0.0000000000000000e+00  0.0000000000000000e+00  0.0000000000000000e+00  0.0000000000000000e+00  0.0000000000000000e+00  0.0000000000000000e+00  0.0000000000000000e+00  0.0000000000000000e+00  0.0000000000000000e+00  0.0000000000000000e+00  0.0000000000000000e+00  0.0000000000000000e+00  0.0000000000000000e+00  0.0000000000000000e+00  0.0000000000000000e+00  0.0000000000000000e+00  0.0000000000000000e+00  0.0000000000000000e+00  0.0000000000000000e+00  0.0000000000000000e+00  0.0000000000000000e+00  0.0000000000000000e+00  0.0000000000000000e+00  0.0000000000000000e+00  0.0000000000000000e+00  0.0000000000000000e+00  0.0000000000000000e+00  0.0000000000000000e+00  0.0000000000000000e+00  0.0000000000000000e+00  0.0000000000000000e+00  0.0000000000000000e+00  0.0000000000000000e+00  0.0000000000000000e+00  0.0000000000000000e+00  0.0000000000000000e+00  0.0000000000000000e+00  0.0000000000000000e+00  0.0000000000000000e+00  0.0000000000000000e+00  0.0000000000000000e+00  0.0000000000000000e+00  0.0000000000000000e+00  0.0000000000000000e+00  0.0000000000000000e+00  0.0000000000000000e+00  0.0000000000000000e+00  0.0000000000000000e+00  0.0000000000000000e+00  0.0000000000000000e+00  0.0000000000000000e+00  0.0000000000000000e+00  0.0000000000000000e+00  0.0000000000000000e+00  0.0000000000000000e+00  0.0000000000000000e+00  0.0000000000000000e+00  0.0000000000000000e+00  0.0000000000000000e+00  0.0000000000000000e+00  0.0000000000000000e+00  0.0000000000000000e+00  0.0000000000000000e+00  0.0000000000000000e+00  0.0000000000000000e+00  0.0000000000000000e+00  0.0000000000000000e+00  0.0000000000000000e+00  0.0000000000000000e+00  0.0000000000000000e+00  0.0000000000000000e+00  0.0000000000000000e+00  0.0000000000000000e+00  0.0000000000000000e+00  0.0000000000000000e+00  0.0000000000000000e+00  0.0000000000000000e+00  0.0000000000000000e+00  0.0000000000000000e+00  0.0000000000000000e+00  0.0000000000000000e+00  0.0000000000000000e+00  0.0000000000000000e+00  0.0000000000000000e+00  0.0000000000000000e+00  0.0000000000000000e+00  0.0000000000000000e+00  0.0000000000000000e+00  0.0000000000000000e+00  0.0000000000000000e+00  0.0000000000000000e+00  0.0000000000000000e+00  0.0000000000000000e+00  0.0000000000000000e+00  0.0000000000000000e+00  0.0000000000000000e+00  0.0000000000000000e+00  0.0000000000000000e+00  0.0000000000000000e+00  0.0000000000000000e+00  0.0000000000000000e+00  0.0000000000000000e+00  0.0000000000000000e+00  0.0000000000000000e+00  0.0000000000000000e+00  0.0000000000000000e+00  0.0000000000000000e+00  0.0000000000000000e+00  0.0000000000000000e+00  0.0000000000000000e+00  0.0000000000000000e+00  0.0000000000000000e+00  0.0000000000000000e+00  0.0000000000000000e+00  0.0000000000000000e+00  0.0000000000000000e+00  0.0000000000000000e+00  0.0000000000000000e+00  0.0000000000000000e+00  0.0000000000000000e+00  0.0000000000000000e+00  0.0000000000000000e+00  0.0000000000000000e+00  0.0000000000000000e+00  0.0000000000000000e+00  0.0000000000000000e+00  0.0000000000000000e+00  0.0000000000000000e+00  0.0000000000000000e+00  0.0000000000000000e+00  0.0000000000000000e+00  0.0000000000000000e+00  0.0000000000000000e+00  0.0000000000000000e+00  0.0000000000000000e+00  0.0000000000000000e+00  0.0000000000000000e+00  0.0000000000000000e+00  0.0000000000000000e+00  0.0000000000000000e+00  0.0000000000000000e+00  0.0000000000000000e+00  0.0000000000000000e+00  0.0000000000000000e+00  0.0000000000000000e+00  0.0000000000000000e+00  0.0000000000000000e+00  0.0000000000000000e+00  0.0000000000000000e+00  0.0000000000000000e+00  0.0000000000000000e+00  0.0000000000000000e+00  0.0000000000000000e+00  0.0000000000000000e+00  0.0000000000000000e+00  0.0000000000000000e+00  0.0000000000000000e+00  0.0000000000000000e+00  0.0000000000000000e+00  0.0000000000000000e+00  0.0000000000000000e+00  0.0000000000000000e+00  0.0000000000000000e+00  0.0000000000000000e+00  0.0000000000000000e+00  0.0000000000000000e+00  0.0000000000000000e+00  0.0000000000000000e+00  0.0000000000000000e+00  0.0000000000000000e+00  0.0000000000000000e+00  0.0000000000000000e+00  0.0000000000000000e+00  0.0000000000000000e+00  0.0000000000000000e+00  0.0000000000000000e+00  0.0000000000000000e+00  0.0000000000000000e+00  0.0000000000000000e+00  0.0000000000000000e+00  0.0000000000000000e+00  0.0000000000000000e+00  0.0000000000000000e+00  0.0000000000000000e+00  0.0000000000000000e+00  0.0000000000000000e+00  0.0000000000000000e+00  0.0000000000000000e+00  0.0000000000000000e+00  0.0000000000000000e+00  0.0000000000000000e+00  0.0000000000000000e+00  0.0000000000000000e+00  0.0000000000000000e+00  0.0000000000000000e+00  0.0000000000000000e+00  0.0000000000000000e+00  0.0000000000000000e+00  0.0000000000000000e+00  0.0000000000000000e+00  0.0000000000000000e+00  0.0000000000000000e+00  0.0000000000000000e+00  0.0000000000000000e+00  0.0000000000000000e+00  0.0000000000000000e+00  0.0000000000000000e+00  0.0000000000000000e+00  0.0000000000000000e+00  0.0000000000000000e+00  0.0000000000000000e+00  0.0000000000000000e+00  0.0000000000000000e+00  0.0000000000000000e+00  0.0000000000000000e+00  0.0000000000000000e+00  0.0000000000000000e+00  0.0000000000000000e+00  0.0000000000000000e+00  0.0000000000000000e+00  0.0000000000000000e+00  0.0000000000000000e+00  0.0000000000000000e+00  0.0000000000000000e+00  0.0000000000000000e+00  0.0000000000000000e+00  0.0000000000000000e+00  0.0000000000000000e+00  0.0000000000000000e+00  0.0000000000000000e+00  0.0000000000000000e+00  0.0000000000000000e+00  0.0000000000000000e+00  0.0000000000000000e+00  0.0000000000000000e+00  0.0000000000000000e+00  0.0000000000000000e+00  0.0000000000000000e+00  0.0000000000000000e+00  0.0000000000000000e+00  0.0000000000000000e+00  0.0000000000000000e+00  0.0000000000000000e+00  0.0000000000000000e+00  0.0000000000000000e+00  0.0000000000000000e+00  0.0000000000000000e+00  0.0000000000000000e+00  0.0000000000000000e+00  0.0000000000000000e+00  0.0000000000000000e+00  0.0000000000000000e+00  0.0000000000000000e+00  0.0000000000000000e+00  0.0000000000000000e+00  0.0000000000000000e+00  0.0000000000000000e+00  0.0000000000000000e+00  0.0000000000000000e+00  0.0000000000000000e+00  0.0000000000000000e+00  0.0000000000000000e+00  0.0000000000000000e+00  0.0000000000000000e+00  0.0000000000000000e+00  0.0000000000000000e+00  0.0000000000000000e+00  0.0000000000000000e+00  0.0000000000000000e+00  0.0000000000000000e+00  0.0000000000000000e+00  0.0000000000000000e+00  0.0000000000000000e+00  0.0000000000000000e+00  0.0000000000000000e+00  0.0000000000000000e+00  0.0000000000000000e+00  0.0000000000000000e+00  0.0000000000000000e+00  0.0000000000000000e+00  0.0000000000000000e+00  0.0000000000000000e+00  0.0000000000000000e+00  0.0000000000000000e+00  0.0000000000000000e+00  0.0000000000000000e+00  0.0000000000000000e+00  0.0000000000000000e+00  0.0000000000000000e+00  0.0000000000000000e+00  0.0000000000000000e+00  0.0000000000000000e+00  0.0000000000000000e+00  0.0000000000000000e+00  0.0000000000000000e+00  0.0000000000000000e+00  0.0000000000000000e+00  0.0000000000000000e+00  0.0000000000000000e+00  0.0000000000000000e+00  0.0000000000000000e+00  0.0000000000000000e+00  0.0000000000000000e+00  0.0000000000000000e+00  0.0000000000000000e+00  0.0000000000000000e+00  0.0000000000000000e+00  0.0000000000000000e+00  0.0000000000000000e+00  0.0000000000000000e+00  0.0000000000000000e+00  0.0000000000000000e+00  0.0000000000000000e+00  0.0000000000000000e+00  0.0000000000000000e+00  0.0000000000000000e+00  0.0000000000000000e+00  0.0000000000000000e+00  0.0000000000000000e+00  0.0000000000000000e+00  0.0000000000000000e+00  0.0000000000000000e+00  0.0000000000000000e+00  0.0000000000000000e+00  0.0000000000000000e+00  0.0000000000000000e+00  0.0000000000000000e+00  0.0000000000000000e+00  0.0000000000000000e+00  0.0000000000000000e+00  0.0000000000000000e+00  0.0000000000000000e+00  0.0000000000000000e+00  0.0000000000000000e+00  0.0000000000000000e+00  0.0000000000000000e+00  0.0000000000000000e+00  0.0000000000000000e+00  0.0000000000000000e+00  0.0000000000000000e+00  0.0000000000000000e+00  0.0000000000000000e+00  0.0000000000000000e+00  0.0000000000000000e+00  0.0000000000000000e+00  0.0000000000000000e+00  0.0000000000000000e+00  0.0000000000000000e+00  0.0000000000000000e+00  0.0000000000000000e+00  0.0000000000000000e+00  0.0000000000000000e+00  0.0000000000000000e+00  0.0000000000000000e+00  9.8291025908782992e-01  9.8660149199689717e-01  9.8934753716344370e-01  9.8924877249968479e-01  9.8786297133503287e-01  9.8412826502965589e-01  9.8516776870455269e-01  9.8858820136866599e-01  9.8538894405350885e-01  9.8504874230644723e-01  9.9034175571944771e-01  9.8249237337476947e-01  9.7831129817451967e-01  9.9640820833833399e-01  9.8283346427163887e-01  9.8028788956920765e-01  9.9462083837499293e-01  9.9122755950969810e-01  9.8205290364991316e-01  9.8534162244956736e-01  9.8384030899031116e-01  9.8479895920461424e-01  9.8652000730348555e-01  9.8721111050679056e-01  9.8945189279922630e-01  9.8771911037248428e-01  9.8767000201757182e-01  9.8774091674005515e-01  9.8558470939902676e-01  9.8672054591699898e-01  9.8883551567422967e-01  9.8812230204744345e-01  9.8825533112735997e-01  9.8486564609295779e-01  9.9055198831357039e-01  9.8382040164865459e-01  9.8601831896955316e-01  9.8815610791427577e-01  9.8576177192332892e-01  9.8448347256581525e-01  9.8977609579633152e-01  9.8784922972866551e-01  9.9023855932390903e-01  9.7798295402567492e-01  9.8750229357900721e-01  9.9317842059587880e-01  9.6669020703062802e-01  9.8439852392067728e-01  9.9573208344475972e-01  9.8108273214491060e-01  9.8281607737194421e-01  9.9090797316829482e-01  9.8515272088102535e-01  9.7956155970020686e-01  9.8374795253684555e-01  9.8850750543907862e-01  9.9167347286600416e-01  9.8535984505195218e-01  9.8078167936971894e-01  9.8402408279376563e-01  9.8694074926996234e-01  9.8415042102482897e-01  -8.0187067209054659e-33  9.8747667689010962e-33  4.6276721903932922e-36  8.5976358497173711e-36  1.2304051203119443e-32  1.3556995920755501e-32  1.0220358239437262e-35  3.2975940187295698e-36  -4.6682785479336986e-32  -3.5829282214677737e-32  -5.6217523623758171e-35  7.9148825393353783e-34  3.7216302894558500e-33  2.6417334044155478e-33  1.9793004742585096e-31  7.6403370022777688e-32  -3.1634040437339922e-31  7.1619034310350811e-32  -2.7434603036447021e-31  -3.1591577291324910e-31  -2.3815789533746255e-32  -1.8947510732105390e-31  -4.9748727619171476e-32  -1.0762603276774334e-31  -1.4812165165865709e-31  -1.4154701848040851e-31  -6.9639974258938449e-30  -5.0981965126093438e-30  -1.7590634872172803e-30  -3.4556428213182501e-30  1.4380331102831180e-31  -1.4174215776504944e-31  -7.5503587591898655e-38  1.1437641484322573e-37  1.0426778460144458e-37  -1.1655483578822810e-37  2.8434646877755613e-34  2.4011650497288251e-34  1.2838365466832482e-34  2.5201699458497008e-34  2.4914243927119820e-29  2.9344708384877638e-31  6.2056568807698810e-32  5.7494647074112855e-29  7.1577501793185244e-37  6.2962180269002505e-37  7.1733297665755912e-37  -1.6474929158644773e-39  -1.0168672471151978e-39  -1.6052583432572761e-39  -7.2786548258701081e-41  1.2859640964983978e-37  4.5976562482010857e-41  -1.0180619038713128e-38  -1.7225652980978283e-39  -3.3572545450212050e-41  -1.0527549658325979e-38  5.6914757294795438e-41  -3.9426763647745046e-39  -5.4197647258933327e-41  -2.0543842113011618e-41  -2.5241460429081767e-41  -2.8197980384237537e-41  -8.5204695260761037e-43  -4.9205204695636257e-43  1.8066440701430686e-42  1.9780984144209916e-42  -2.8592102298264501e-41  7.0946323111614624e-29  -8.2090878587430991e-32  -2.4930573704861519e-33  6.6808484590819821e-29  1.6321354702011004e-31  2.0720324598500322e-32  1.3610656229850810e-30  6.9898313951882306e-31  1.4272075615854528e-32  6.5068082735851549e-32  2.1034250234679058e-32  -3.6565426569170615e-31  -1.3337248585600437e-31  2.7061028259205092e-33  5.8993980695086634e-31  1.0622767942469443e-30  8.0816517637593860e-33  1.3410739518807527e-31  -2.1833967410812185e-31  8.3959686902486171e-32  -9.7854781971724726e-32  -1.1382213045719766e-31  -1.5536163151407092e-34  -9.3635172746064981e-35  -1.1369583373909745e-32  -9.5035251653252687e-33  6.7217195005089763e-36  2.0777715007474115e-35  1.1123971906667625e-36  -1.8644118458850852e-34  1.1572989504360366e-33  -7.1776146499656935e-37  8.6350285920099581e-34  -1.6411875855200498e-37  1.0090625605720179e-36  1.8810693333927020e-33  8.2467552342756111e-44  2.9220050492661617e-43  -6.8769120605968738e-44  -1.4900730455645112e-43  -3.0680198791542004e-44  -5.6248759777562126e-44  1.1489227809946619e-43  9.5621175032397297e-44  3.3091599641025433e-29  3.9891911893292589e-31  3.3386381925562559e-31  5.5674221676475700e-29  7.9672321102271178e-34  -1.4246191472576233e-35  -2.4395197169242267e-35  1.1137284338232854e-33  -1.5614858926710948e-36  9.0013389057527937e-33  8.0699604251559922e-33  8.3059700164453834e-36  -2.0737150275430469e-38  -5.5309583090724365e-35  -2.1875969534901320e-35  -1.4390666998020780e-38  -1.9309102458054240e-38  1.8245062635927750e-36  -2.0354993224901341e-35  -1.6061020616862781e-39  -1.8782248897921879e-41  -4.5281661168360059e-42  -6.7861899753180557e-38  -3.9023660412660269e-40  -2.4776539239925972e-38  -1.8915008331861339e-40  4.4323046984469694e-40  -8.4463824183436368e-42  -4.0186607254903275e-38  -2.8278400632702391e-40  -6.6228274766523068e-41  -5.2588878247762147e-42  3.9533496627027548e-40  -4.8265441513284564e-42  5.5372176967305529e-39  -2.7655145753073757e-40  -4.0012581220549002e-44  1.4443122430856775e-44  -2.3495359057099326e-44  -4.7674728280213380e-44  2.7356473215169726e-29  -1.2475420820487655e-28  -1.2758772682276969e-28  5.0310548452128190e-28  3.9932358811823485e-28  -1.8155694411713745e-27  -1.0027695021805904e-27  5.6444426245686436e-27  1.5928204009619957e-27  -1.4027800073271847e-26  1.3658210872931372e-27  2.1435996944466698e-26  -2.3611869955857695e-26  2.3484293805153930e-26  1.1513118137881437e-25  -3.4720534764896179e-25  -3.8555159068897829e-25  1.6438358545528909e-24  9.4957354357491122e-25  -5.3720553026451888e-24  -1.4898009671832491e-24  -5.1026231531448123e-24  1.2821345910920222e-23  -1.7595194564090314e-25  -1.8679564156021173e-23  1.0507701793192977e-23  -9.5132404993453331e-24  -3.7427871833697845e-23  1.5386082922411098e-22  6.5221105145873800e-23  -4.9320964470672499e-22  2.0152404395267093e-23  -2.2306886998034761e-22  7.4013800869593589e-22  -5.2709319105518063e-22  7.8150414986413137e-22  1.7084302338601505e-21  -7.8625461384240623e-21  -2.2419581313410556e-21  2.2008395557448407e-20  -4.3702468210511538e-21  -2.0972162795199492e-20  3.1502914185428794e-20  -1.1365472034078506e-19  -8.4928838703917853e-20  -7.8762637676548487e-20  4.5764632491780483e-19  4.0031976229111499e-20  2.2140581788160790e-20  -1.0742042335447170e-19  4.3116949438314432e-19  1.2351910032992774e-19  1.3970141203817816e-20  -1.2498519463544535e-19  1.8320282494955267e-20  1.8440193448716896e-20  1.1957465626318915e-19  -1.3141817625689140e-19  1.6898355310079719e-20  3.0973666765265621e-20  -1.0081405187476443e-20  9.8137936947935087e-21  -1.0557386225328184e-19  3.3516600128199401e-20  -8.7238419163929977e-21  4.9035750863813751e-21  -8.8154810063892693e-20  4.0154303008131521e-20  -7.8615907764745826e-21  -3.1276193627708375e-21  -5.1554370429215316e-20  4.0620552790032331e-20  -1.8056625577405284e-19  2.6733763295730963e-21  8.9545376044516346e-21  2.6399695488633494e-19  -1.9018182590534448e-19  9.0033329168664741e-19  -1.2092975491658694e-19  -7.7338089623838232e-19  7.9623645595237984e-19  -5.0392989457103417e-18  -7.0739265036997440e-20  1.6038399155271053e-18  -4.3553206043812209e-18  -3.5554542694749224e-19  1.0193008902878635e-17  -5.7957427129116085e-18  3.2029597476108323e-17  -1.0199929918528398e-17  3.7716347914106238e-17  -7.7657986250829768e-18  1.5325316373035446e-17  -3.7456192831829305e-20  -1.1442235817762255e-17  2.6460940073027735e-18  -2.1423005536961343e-18  -2.6008891081432040e-01  3.7759176412623631e-18  -8.5567278303059277e-18  -1.2902654974872108e-18  2.0119241944692843e-17  -2.9465996596948701e-01  -8.4674186252235886e-18  3.6673125483929216e-17  -2.4004385232183598e-01  -8.7346889407627284e-18  2.2783609431106063e-17  -1.2363725520958996e-16  -3.7489533519119960e-17  -4.5955306970321771e-19  2.7753660573781512e-17  -1.4421793949076515e-16  2.5630213909356855e-18  -9.2693741552445919e-18  2.9193120904962611e-17  -1.3119230135563227e-16  -6.4223478277304846e-17  6.9843261556481287e-18  9.7745163980817367e-19  8.2804603675025310e-17  -3.8045125405932537e-17  9.3209801188835360e-18  -1.5147322307764256e-17  1.1454575816371479e-16  -8.4279484081323197e-19  5.2547169883693773e-18  -1.6259967780357105e-17  7.5070653597098947e-17  1.1870182643320248e-17  4.3868158625221828e-18  -2.6197850291615525e-17  8.4006440409187583e-17  5.3527360676190391e-17  -1.2357369253070256e-18  -2.9943822095702742e-17  3.3249375385253029e-17  9.4782754940019263e-17  -5.1837466990007097e-16  -1.2472894048316953e-17  -3.2343054505124872e-17  1.2129647357082337e-16  -6.5280952097652514e-16  2.4367245638668724e-17  -4.2566336778905760e-17  1.1570250125466649e-16  -7.6838889133737064e-16  1.5566294464566166e-16  3.2491367897192887e-16  -6.0110760328118771e-16  3.4255988229726347e-15  -5.9065154116552676e-16  2.3367110453717137e-16  -1.8498783510682490e-16  2.2291040284240716e-15  -9.0443517900053990e-16  3.2049142923136563e-15  -1.9102390140329057e-16  -2.0725040427288238e-15  8.8897593625949083e-16  -3.4447807578748447e-16  -2.6006706004150398e-15  4.4159835249655314e-17  1.7637882972683503e-15  -1.0825723770175084e-14  3.8021593033326971e-15  -1.6139329747739980e-14  4.3400354560247179e-15  -1.5568039870498643e-14  4.1794943887439256e-15  -1.6809082985129572e-14  5.3950859475738250e-15  -2.4092005109232263e-14  7.4392719872446393e-15  -2.9674544592562049e-14  7.7088368786527335e-15  -2.5183620680740420e-14  5.1797093676020080e-15  -1.2334218346297622e-14  1.5278838084643943e-15  -2.3572065045860995e-16  -8.0765919616436574e-16  4.2574824766682683e-15  -9.7659947828355328e-16  2.1201650753916880e-15  -1.7721125119910368e-16  -4.0546785596436367e-16  1.6084464670481822e-16  -2.0707718205639851e-17  -1.5618120585407368e-17  1.2399991131706226e-17  -9.0316602595441527e-19  -2.9371962758063003e-18  8.2786419701681449e-19  4.2446529669576285e-19  -2.1630541224122030e-19  -1.9908046267780912e-20  -1.6293874298661890e-19  3.4913499602641661e-20  -1.1281936236391609e-15  4.8308454757228359e-20  -9.3180317229228572e-20  4.1108118989206366e-21  3.5238762250297408e-20  -8.6814056563537175e-21  8.1918517280527225e-21  1.4325855693034870e-21  