<?xml version="1.0"?>
<VTKFile type="UnstructuredGrid"  version="0.1"  >
<UnstructuredGrid>
<Piece  NumberOfPoints="11902" NumberOfCells="23402">
<Points>
<DataArray  type="Float64"  NumberOfComponents="3"  format="ascii">-5 -5 0  5 -5 0  5 5 0  -5 5 0  1.056754949579072 0.0003719919873188072 0  -4.9 -5 0  -4.8 -5 0  -4.7 -5 0  -4.6 -5 0  -4.5 -5 0  -4.4 -5 0  -4.3 -5 0  -4.2 -5 0  -4.1 -5 0  -4 -5 0  -3.9 -5 0  -3.8 -5 0  -3.7 -5 0  -3.6 -5 0  -3.5 -5 0  -3.4 -5 0  -3.3 -5 0  -3.2 -5 0  -3.1 -5 0  -3 -5 0  -2.9 -5 0  -2.8 -5 0  -2.7 -5 0  -2.6 -5 0  -2.5 -5 0  -2.4 -5 0  -2.3 -5 0  -2.2 -5 0  -2.1 -5 0  -2 -5 0  -1.9 -5 0  -1.8 -5 0  -1.7 -5 0  -1.6 -5 0  -1.5 -5 0  -1.4 -5 0  -1.3 -5 0  -1.2 -5 0  -1.1 -5 0  -1 -5 0  -0.9000000000000004 -5 0  -0.7999999999999998 -5 0  -0.7000000000000002 -5 0  -0.5999999999999996 -5 0  -0.5 -5 0  -0.4000000000000004 -5 0  -0.2999999999999998 -5 0  -0.2000000000000002 -5 0  -0.09999999999999964 -5 0  0 -5 0  0.09999999999999964 -5 0  0.2000000000000002 -5 0  0.2999999999999998 -5 0  0.4000000000000004 -5 0  0.5 -5 0  0.5999999999999996 -5 0  0.7000000000000002 -5 0  0.7999999999999998 -5 0  0.9000000000000004 -5 0  1 -5 0  1.1 -5 0  1.2 -5 0  1.3 -5 0  1.4 -5 0  1.5 -5 0  1.6 -5 0  1.7 -5 0  1.8 -5 0  1.9 -5 0  2 -5 0  2.1 -5 0  2.2 -5 0  2.3 -5 0  2.4 -5 0  2.5 -5 0  2.6 -5 0  2.7 -5 0  2.8 -5 0  2.9 -5 0  3 -5 0  3.1 -5 0  3.199999999999999 -5 0  3.300000000000001 -5 0  3.4 -5 0  3.5 -5 0  3.6 -5 0  3.699999999999999 -5 0  3.800000000000001 -5 0  3.9 -5 0  4 -5 0  4.1 -5 0  4.199999999999999 -5 0  4.300000000000001 -5 0  4.4 -5 0  4.5 -5 0  4.6 -5 0  4.699999999999999 -5 0  4.800000000000001 -5 0  4.9 -5 0  5 -4.9 0  5 -4.8 0  5 -4.7 0  5 -4.6 0  5 -4.5 0  5 -4.4 0  5 -4.3 0  5 -4.2 0  5 -4.1 0  5 -4 0  5 -3.9 0  5 -3.8 0  5 -3.7 0  5 -3.6 0  5 -3.5 0  5 -3.4 0  5 -3.3 0  5 -3.2 0  5 -3.1 0  5 -3 0  5 -2.9 0  5 -2.8 0  5 -2.7 0  5 -2.6 0  5 -2.5 0  5 -2.4 0  5 -2.3 0  5 -2.2 0  5 -2.1 0  5 -2 0  5 -1.9 0  5 -1.8 0  5 -1.7 0  5 -1.6 0  5 -1.5 0  5 -1.4 0  5 -1.3 0  5 -1.2 0  5 -1.1 0  5 -1 0  5 -0.9000000000000004 0  5 -0.7999999999999998 0  5 -0.7000000000000002 0  5 -0.5999999999999996 0  5 -0.5 0  5 -0.4000000000000004 0  5 -0.2999999999999998 0  5 -0.2000000000000002 0  5 -0.09999999999999964 0  5 0 0  5 0.09999999999999964 0  5 0.2000000000000002 0  5 0.2999999999999998 0  5 0.4000000000000004 0  5 0.5 0  5 0.5999999999999996 0  5 0.7000000000000002 0  5 0.7999999999999998 0  5 0.9000000000000004 0  5 1 0  5 1.1 0  5 1.2 0  5 1.3 0  5 1.4 0  5 1.5 0  5 1.6 0  5 1.7 0  5 1.8 0  5 1.9 0  5 2 0  5 2.1 0  5 2.2 0  5 2.3 0  5 2.4 0  5 2.5 0  5 2.6 0  5 2.7 0  5 2.8 0  5 2.9 0  5 3 0  5 3.1 0  5 3.199999999999999 0  5 3.300000000000001 0  5 3.4 0  5 3.5 0  5 3.6 0  5 3.699999999999999 0  5 3.800000000000001 0  5 3.9 0  5 4 0  5 4.1 0  5 4.199999999999999 0  5 4.300000000000001 0  5 4.4 0  5 4.5 0  5 4.6 0  5 4.699999999999999 0  5 4.800000000000001 0  5 4.9 0  4.9 5 0  4.8 5 0  4.7 5 0  4.6 5 0  4.5 5 0  4.4 5 0  4.3 5 0  4.2 5 0  4.1 5 0  4 5 0  3.9 5 0  3.8 5 0  3.7 5 0  3.6 5 0  3.5 5 0  3.4 5 0  3.3 5 0  3.2 5 0  3.1 5 0  3 5 0  2.9 5 0  2.8 5 0  2.7 5 0  2.6 5 0  2.5 5 0  2.4 5 0  2.3 5 0  2.2 5 0  2.1 5 0  2 5 0  1.9 5 0  1.8 5 0  1.7 5 0  1.6 5 0  1.5 5 0  1.4 5 0  1.3 5 0  1.2 5 0  1.1 5 0  1 5 0  0.9000000000000004 5 0  0.7999999999999998 5 0  0.7000000000000002 5 0  0.5999999999999996 5 0  0.5 5 0  0.4000000000000004 5 0  0.2999999999999998 5 0  0.2000000000000002 5 0  0.09999999999999964 5 0  0 5 0  -0.09999999999999964 5 0  -0.2000000000000002 5 0  -0.2999999999999998 5 0  -0.4000000000000004 5 0  -0.5 5 0  -0.5999999999999996 5 0  -0.7000000000000002 5 0  -0.7999999999999998 5 0  -0.9000000000000004 5 0  -1 5 0  -1.1 5 0  -1.2 5 0  -1.3 5 0  -1.4 5 0  -1.5 5 0  -1.6 5 0  -1.7 5 0  -1.8 5 0  -1.9 5 0  -2 5 0  -2.1 5 0  -2.2 5 0  -2.3 5 0  -2.4 5 0  -2.5 5 0  -2.6 5 0  -2.7 5 0  -2.8 5 0  -2.9 5 0  -3 5 0  -3.1 5 0  -3.199999999999999 5 0  -3.300000000000001 5 0  -3.4 5 0  -3.5 5 0  -3.6 5 0  -3.699999999999999 5 0  -3.800000000000001 5 0  -3.9 5 0  -4 5 0  -4.1 5 0  -4.199999999999999 5 0  -4.300000000000001 5 0  -4.4 5 0  -4.5 5 0  -4.6 5 0  -4.699999999999999 5 0  -4.800000000000001 5 0  -4.9 5 0  -5 4.9 0  -5 4.8 0  -5 4.7 0  -5 4.6 0  -5 4.5 0  -5 4.4 0  -5 4.3 0  -5 4.2 0  -5 4.1 0  -5 4 0  -5 3.9 0  -5 3.8 0  -5 3.7 0  -5 3.6 0  -5 3.5 0  -5 3.4 0  -5 3.3 0  -5 3.2 0  -5 3.1 0  -5 3 0  -5 2.9 0  -5 2.8 0  -5 2.7 0  -5 2.6 0  -5 2.5 0  -5 2.4 0  -5 2.3 0  -5 2.2 0  -5 2.1 0  -5 2 0  -5 1.9 0  -5 1.8 0  -5 1.7 0  -5 1.6 0  -5 1.5 0  -5 1.4 0  -5 1.3 0  -5 1.2 0  -5 1.1 0  -5 1 0  -5 0.9000000000000004 0  -5 0.7999999999999998 0  -5 0.7000000000000002 0  -5 0.5999999999999996 0  -5 0.5 0  -5 0.4000000000000004 0  -5 0.2999999999999998 0  -5 0.2000000000000002 0  -5 0.09999999999999964 0  -5 0 0  -5 -0.09999999999999964 0  -5 -0.2000000000000002 0  -5 -0.2999999999999998 0  -5 -0.4000000000000004 0  -5 -0.5 0  -5 -0.5999999999999996 0  -5 -0.7000000000000002 0  -5 -0.7999999999999998 0  -5 -0.9000000000000004 0  -5 -1 0  -5 -1.1 0  -5 -1.2 0  -5 -1.3 0  -5 -1.4 0  -5 -1.5 0  -5 -1.6 0  -5 -1.7 0  -5 -1.8 0  -5 -1.9 0  -5 -2 0  -5 -2.1 0  -5 -2.2 0  -5 -2.3 0  -5 -2.4 0  -5 -2.5 0  -5 -2.6 0  -5 -2.7 0  -5 -2.8 0  -5 -2.9 0  -5 -3 0  -5 -3.1 0  -5 -3.199999999999999 0  -5 -3.300000000000001 0  -5 -3.4 0  -5 -3.5 0  -5 -3.6 0  -5 -3.699999999999999 0  -5 -3.800000000000001 0  -5 -3.9 0  -5 -4 0  -5 -4.1 0  -5 -4.199999999999999 0  -5 -4.300000000000001 0  -5 -4.4 0  -5 -4.5 0  -5 -4.6 0  -5 -4.699999999999999 0  -5 -4.800000000000001 0  -5 -4.9 0  1.051576136763864 0.1002384918512416 0  1.035786375691629 0.199426336158492 0  1.009318371768915 0.2968089933714131 0  0.973506215821814 0.3906711750156753 0  0.9278981381153124 0.4812772507968367 0  0.8732899931546203 0.5668869297078724 0  0.8097071191323038 0.6466498943283672 0  0.7376840684819888 0.7199089982948877 0  0.6587801134749161 0.7862354088892965 0  0.5733491009412804 0.8449065028196324 0  0.4819924868565851 0.8948765497714399 0  0.3857363135478653 0.9360527756093669 0  0.2862904687522633 0.9681656234399912 0  0.1835381467234548 0.9902479797968029 0  0.07932409372650585 1.002812864487995 0  -0.02587917377589996 1.005348575227086 0  -0.1308397848907276 0.9976687956571818 0  -0.2345275677690417 0.98053127580081 0  -0.3358384440734284 0.9535372223171411 0  -0.4337479910451665 0.9168523505870829 0  -0.5272623670346853 0.8713427610116695 0  -0.6156379056821004 0.8169618879763119 0  -0.6979132994122311 0.7545747576152031 0  -0.7732750561831319 0.6848002554791754 0  -0.8410503511690477 0.6077357229214335 0  -0.9002543422327529 0.5247528748117484 0  -0.9508781316582106 0.4368252313699514 0  -0.9917368351634778 0.3442873688221199 0  -1.022633665757034 0.2485271392452565 0  -1.04356929115863 0.150327841165134 0  -1.054162561879244 0.05044117239185218 0  -1.054176348789809 -0.0499837590650068 0  -1.043600293017734 -0.1498016118364293 0  -1.023334417219504 -0.247964908041914 0  -0.9917361299853287 -0.3439614002441879 0  -0.9509864211222432 -0.4362334077795315 0  -0.9004803861034882 -0.5242697983041715 0  -0.8413105721492553 -0.6071045581580116 0  -0.7735060182821737 -0.6838636506272899 0  -0.6979103865255479 -0.7535604098209571 0  -0.6153856286832482 -0.815660865061971 0  -0.5274387353857202 -0.8703197499960624 0  -0.4332516733779661 -0.9158076488742927 0  -0.3352940964933589 -0.9526763427823507 0  -0.2338473852170448 -0.9797944654055908 0  -0.1302775603326502 -0.9971447750971968 0  -0.02549258684478422 -1.005128345469668 0  0.07945726011097376 -1.002408068296368 0  0.1840111187024811 -0.9896742980967603 0  0.286463784868542 -0.9675228341929737 0  0.3865556771240803 -0.9354387580308314 0  0.4822493609228651 -0.8943029454521959 0  0.5735674991502923 -0.8443668853502475 0  0.6589337431090815 -0.7863486860314561 0  0.7378172065155908 -0.7200431547783326 0  0.809535841018085 -0.6464148734044592 0  0.8729798665597617 -0.5664450593734686 0  0.9280580838962872 -0.4809924186825944 0  0.9741042656499097 -0.3906882396911351 0  1.009809968180054 -0.2966053320644159 0  1.035822733354124 -0.1991924085597385 0  1.051610405265635 -0.1001377723139524 0  -2.449568111134675 4.919976297874913 0  -2.449531495318792 -4.912522951185403 0  4.912495081698796 2.449356159681475 0  4.920429529677896 -2.450685218872379 0  2.447440443714544 -4.898109252461484 0  2.441832524670579 4.901794217780663 0  -4.91250490700912 -2.449366494886394 0  -4.912507428892135 2.449370092796554 0  -1.749553868338646 4.913679210952686 0  -1.74529519808639 -4.917013139927124 0  4.923215060218966 1.745390623017117 0  4.912114617267086 -1.749345106879121 0  -4.912375786390586 -1.749056748449119 0  -4.913177323441364 1.748785782483354 0  1.746890811780495 4.90773447784427 0  1.748436325739747 -4.896229714698037 0  -1.149651635505964 4.912020611233658 0  -1.130425944881526 -4.919660777246245 0  -4.912826881540209 -1.14911995516848 0  -4.91265734005062 1.148918547963415 0  1.144593116510064 -4.91598208218784 0  1.149651716390488 4.912016861202599 0  4.912997351948811 1.147404688313901 0  4.923383421336156 -1.153048119772112 0  -0.547090338075735 -4.913482779457145 0  -0.5468321680913972 4.9218435553248 0  -4.91214857171506 -0.5493707799413385 0  -4.91217491985472 0.5479210286963748 0  4.911538714211013 -0.5497019190979419 0  4.922659432353355 0.5463686404282561 0  0.5429125806890781 -4.900874491443595 0  0.5515676577011451 4.918791492306478 0  -4.913265513907456 -3.049474882781766 0  4.919745239366963 3.047415290200142 0  4.91278896674046 -3.049469918969642 0  -4.914106923266336 3.046556996379334 0  3.056187011537092 -4.918735846757778 0  -3.049584151691086 -4.912764483970963 0  3.05313143931029 4.914818260297581 0  -3.049024230902557 4.91364335057369 0  -4.911477137981383 -0.0499738811908616 0  0.04514565426681929 -4.915458406991944 0  0.04959658143825188 4.922217076561748 0  4.918234133441517 -0.05135179373080127 0  3.546322455933887 -4.919975071313327 0  -3.5496645133666
[...]
<PointData  Scalars="f_27"> 
<DataArray  type="Float64"  Name="f_27"  format="ascii">0.0000000000000000e+00  0.0000000000000000e+00  0.0000000000000000e+00  0.0000000000000000e+00  5.8025346954782764e-01  0.0000000000000000e+00  0.0000000000000000e+00  0.0000000000000000e+00  0.0000000000000000e+00  0.0000000000000000e+00  0.0000000000000000e+00  0.0000000000000000e+00  0.0000000000000000e+00  0.0000000000000000e+00  0.0000000000000000e+00  0.0000000000000000e+00  0.0000000000000000e+00  0.0000000000000000e+00  0.0000000000000000e+00  0.0000000000000000e+00  0.0000000000000000e+00  0.0000000000000000e+00  0.0000000000000000e+00  0.0000000000000000e+00  0.0000000000000000e+00  0.0000000000000000e+00  0.0000000000000000e+00  0.0000000000000000e+00  0.0000000000000000e+00  0.0000000000000000e+00  0.0000000000000000e+00  0.0000000000000000e+00  0.0000000000000000e+00  0.0000000000000000e+00  0.0000000000000000e+00  0.0000000000000000e+00  0.0000000000000000e+00  0.0000000000000000e+00  0.0000000000000000e+00  0.0000000000000000e+00  0.0000000000000000e+00  0.0000000000000000e+00  0.0000000000000000e+00  0.0000000000000000e+00  0.0000000000000000e+00  0.0000000000000000e+00  0.0000000000000000e+00  0.0000000000000000e+00  0.0000000000000000e+00  0.0000000000000000e+00  0.0000000000000000e+00  0.0000000000000000e+00  0.0000000000000000e+00  0.0000000000000000e+00  0.0000000000000000e+00  0.0000000000000000e+00  0.0000000000000000e+00  0.0000000000000000e+00  0.0000000000000000e+00  0.0000000000000000e+00  0.0000000000000000e+00  0.0000000000000000e+00  0.0000000000000000e+00  0.0000000000000000e+00  0.0000000000000000e+00  0.0000000000000000e+00  0.0000000000000000e+00  0.0000000000000000e+00  0.0000000000000000e+00  0.0000000000000000e+00  0.0000000000000000e+00  0.0000000000000000e+00  0.0000000000000000e+00  0.0000000000000000e+00  0.0000000000000000e+00  0.0000000000000000e+00  0.0000000000000000e+00  0.0000000000000000e+00  0.0000000000000000e+00  0.0000000000000000e+00  0.0000000000000000e+00  0.0000000000000000e+00  0.0000000000000000e+00  0.0000000000000000e+00  0.0000000000000000e+00  0.0000000000000000e+00  0.0000000000000000e+00  0.0000000000000000e+00  0.0000000000000000e+00  0.0000000000000000e+00  0.0000000000000000e+00  0.0000000000000000e+00  0.0000000000000000e+00  0.0000000000000000e+00  0.0000000000000000e+00  0.0000000000000000e+00  0.0000000000000000e+00  0.0000000000000000e+00  0.0000000000000000e+00  0.0000000000000000e+00  0.0000000000000000e+00  0.0000000000000000e+00  0.0000000000000000e+00  0.0000000000000000e+00  0.0000000000000000e+00  0.0000000000000000e+00  0.0000000000000000e+00  0.0000000000000000e+00  0.0000000000000000e+00  0.0000000000000000e+00  0.0000000000000000e+00  0.0000000000000000e+00  0.0000000000000000e+00  0.0000000000000000e+00  0.0000000000000000e+00  0.0000000000000000e+00  0.0000000000000000e+00  0.0000000000000000e+00  0.0000000000000000e+00  0.0000000000000000e+00  0.0000000000000000e+00  0.0000000000000000e+00  0.0000000000000000e+00  0.0000000000000000e+00  0.0000000000000000e+00  0.0000000000000000e+00  0.0000000000000000e+00  0.0000000000000000e+00  0.0000000000000000e+00  0.0000000000000000e+00  0.0000000000000000e+00  0.0000000000000000e+00  0.0000000000000000e+00  0.0000000000000000e+00  0.0000000000000000e+00  0.0000000000000000e+00  0.0000000000000000e+00  0.0000000000000000e+00  0.0000000000000000e+00  0.0000000000000000e+00  0.0000000000000000e+00  0.0000000000000000e+00  0.0000000000000000e+00  0.0000000000000000e+00  0.0000000000000000e+00  0.0000000000000000e+00  0.0000000000000000e+00  0.0000000000000000e+00  0.0000000000000000e+00  0.0000000000000000e+00  0.0000000000000000e+00  0.0000000000000000e+00  0.0000000000000000e+00  0.0000000000000000e+00  0.0000000000000000e+00  0.0000000000000000e+00  0.0000000000000000e+00  0.0000000000000000e+00  0.0000000000000000e+00  0.0000000000000000e+00  0.0000000000000000e+00  0.0000000000000000e+00  0.0000000000000000e+00  0.0000000000000000e+00  0.0000000000000000e+00  0.0000000000000000e+00  0.0000000000000000e+00  0.0000000000000000e+00  0.0000000000000000e+00  0.0000000000000000e+00  0.0000000000000000e+00  0.0000000000000000e+00  0.0000000000000000e+00  0.0000000000000000e+00  0.0000000000000000e+00  0.0000000000000000e+00  0.0000000000000000e+00  0.0000000000000000e+00  0.0000000000000000e+00  0.0000000000000000e+00  0.0000000000000000e+00  0.0000000000000000e+00  0.0000000000000000e+00  0.0000000000000000e+00  0.0000000000000000e+00  0.0000000000000000e+00  0.0000000000000000e+00  0.0000000000000000e+00  0.0000000000000000e+00  0.0000000000000000e+00  0.0000000000000000e+00  0.0000000000000000e+00  0.0000000000000000e+00  0.0000000000000000e+00  0.0000000000000000e+00  0.0000000000000000e+00  0.0000000000000000e+00  0.0000000000000000e+00  0.0000000000000000e+00  0.0000000000000000e+00  0.0000000000000000e+00  0.0000000000000000e+00  0.0000000000000000e+00  0.0000000000000000e+00  0.0000000000000000e+00  0.0000000000000000e+00  0.0000000000000000e+00  0.0000000000000000e+00  0.0000000000000000e+00  0.0000000000000000e+00  0.0000000000000000e+00  0.0000000000000000e+00  0.0000000000000000e+00  0.0000000000000000e+00  0.0000000000000000e+00  0.0000000000000000e+00  0.0000000000000000e+00  0.0000000000000000e+00  0.0000000000000000e+00  0.0000000000000000e+00  0.0000000000000000e+00  0.0000000000000000e+00  0.0000000000000000e+00  0.0000000000000000e+00  0.0000000000000000e+00  0.0000000000000000e+00  0.0000000000000000e+00  0.0000000000000000e+00  0.0000000000000000e+00  0.0000000000000000e+00  0.0000000000000000e+00  0.0000000000000000e+00  0.0000000000000000e+00  0.0000000000000000e+00  0.0000000000000000e+00  0.0000000000000000e+00  0.0000000000000000e+00  0.0000000000000000e+00  0.0000000000000000e+00  0.0000000000000000e+00  0.0000000000000000e+00  0.0000000000000000e+00  0.0000000000000000e+00  0.0000000000000000e+00  0.0000000000000000e+00  0.0000000000000000e+00  0.0000000000000000e+00  0.0000000000000000e+00  0.0000000000000000e+00  0.0000000000000000e+00  0.0000000000000000e+00  0.0000000000000000e+00  0.0000000000000000e+00  0.0000000000000000e+00  0.0000000000000000e+00  0.0000000000000000e+00  0.0000000000000000e+00  0.0000000000000000e+00  0.0000000000000000e+00  0.0000000000000000e+00  0.0000000000000000e+00  0.0000000000000000e+00  0.0000000000000000e+00  0.0000000000000000e+00  0.0000000000000000e+00  0.0000000000000000e+00  0.0000000000000000e+00  0.0000000000000000e+00  0.0000000000000000e+00  0.0000000000000000e+00  0.0000000000000000e+00  0.0000000000000000e+00  0.0000000000000000e+00  0.0000000000000000e+00  0.0000000000000000e+00  0.0000000000000000e+00  0.0000000000000000e+00  0.0000000000000000e+00  0.0000000000000000e+00  0.0000000000000000e+00  0.0000000000000000e+00  0.0000000000000000e+00  0.0000000000000000e+00  0.0000000000000000e+00  0.0000000000000000e+00  0.0000000000000000e+00  0.0000000000000000e+00  0.0000000000000000e+00  0.0000000000000000e+00  0.0000000000000000e+00  0.0000000000000000e+00  0.0000000000000000e+00  0.0000000000000000e+00  0.0000000000000000e+00  0.0000000000000000e+00  0.0000000000000000e+00  0.0000000000000000e+00  0.0000000000000000e+00  0.0000000000000000e+00  0.0000000000000000e+00  0.0000000000000000e+00  0.0000000000000000e+00  0.0000000000000000e+00  0.0000000000000000e+00  0.0000000000000000e+00  0.0000000000000000e+00  0.0000000000000000e+00  0.0000000000000000e+00  0.0000000000000000e+00  0.0000000000000000e+00  0.0000000000000000e+00  0.0000000000000000e+00  0.0000000000000000e+00  0.0000000000000000e+00  0.0000000000000000e+00  0.0000000000000000e+00  0.0000000000000000e+00  0.0000000000000000e+00  0.0000000000000000e+00  0.0000000000000000e+00  0.0000000000000000e+00  0.0000000000000000e+00  0.0000000000000000e+00  0.0000000000000000e+00  0.0000000000000000e+00  0.0000000000000000e+00  0.0000000000000000e+00  0.0000000000000000e+00  0.0000000000000000e+00  0.0000000000000000e+00  0.0000000000000000e+00  0.0000000000000000e+00  0.0000000000000000e+00  0.0000000000000000e+00  0.0000000000000000e+00  0.0000000000000000e+00  0.0000000000000000e+00  0.0000000000000000e+00  0.0000000000000000e+00  0.0000000000000000e+00  0.0000000000000000e+00  0.0000000000000000e+00  0.0000000000000000e+00  0.0000000000000000e+00  0.0000000000000000e+00  0.0000000000000000e+00  0.0000000000000000e+00  0.0000000000000000e+00  0.0000000000000000e+00  0.0000000000000000e+00  0.0000000000000000e+00  0.0000000000000000e+00  0.0000000000000000e+00  0.0000000000000000e+00  0.0000000000000000e+00  0.0000000000000000e+00  0.0000000000000000e+00  0.0000000000000000e+00  0.0000000000000000e+00  0.0000000000000000e+00  0.0000000000000000e+00  0.0000000000000000e+00  0.0000000000000000e+00  0.0000000000000000e+00  0.0000000000000000e+00  0.0000000000000000e+00  0.0000000000000000e+00  0.0000000000000000e+00  0.0000000000000000e+00  0.0000000000000000e+00  0.0000000000000000e+00  0.0000000000000000e+00  0.0000000000000000e+00  0.0000000000000000e+00  0.0000000000000000e+00  0.0000000000000000e+00  0.0000000000000000e+00  0.0000000000000000e+00  0.0000000000000000e+00  0.0000000000000000e+00  0.0000000000000000e+00  0.0000000000000000e+00  0.0000000000000000e+00  0.0000000000000000e+00  0.0000000000000000e+00  0.0000000000000000e+00  0.0000000000000000e+00  0.0000000000000000e+00  0.0000000000000000e+00  0.0000000000000000e+00  0.0000000000000000e+00  0.0000000000000000e+00  0.0000000000000000e+00  0.0000000000000000e+00  0.0000000000000000e+00  0.0000000000000000e+00  0.0000000000000000e+00  0.0000000000000000e+00  0.0000000000000000e+00  0.0000000000000000e+00  0.0000000000000000e+00  5.6959106525308745e-01  5.8319952501170969e-01  6.6279194129755448e-01  6.5773845091822880e-01  6.0753079599444548e-01  5.3086695891017954e-01  5.4378351503909661e-01  6.2751065541395201e-01  5.9440853249411052e-01  5.2209910946576632e-01  5.4954927633756601e-01  5.6978638404114013e-01  5.0159126410823818e-01  5.9410468185921750e-01  5.8635216357314401e-01  5.9540584843880673e-01  6.4037033244402042e-01  5.7575800240911890e-01  5.5855386058756396e-01  5.9995946408670675e-01  5.7846782718060819e-01  5.9065561018334534e-01  5.7841817383442917e-01  5.4521519450721934e-01  5.8052860229463765e-01  6.2153514143643063e-01  5.7098992450047215e-01  5.9630688651191499e-01  6.4157450323303089e-01  6.1809894277046407e-01  5.9276074532040035e-01  5.8783148003935515e-01  6.0861073466353932e-01  4.9881756282627271e-01  5.9927555003858990e-01  5.6641746525729542e-01  5.9491324954651503e-01  5.4718647934187525e-01  5.4812106704695485e-01  5.9746935949242885e-01  6.7020779956466903e-01  5.2721624659044553e-01  6.0423165006332713e-01  5.4934729439092811e-01  5.6299405442001071e-01  5.8938885267032382e-01  4.6561860667465876e-01  5.1936894298725600e-01  5.7665970501499775e-01  5.5635088398405130e-01  5.9110418389522401e-01  6.2086565235010860e-01  5.9024604715307483e-01  5.3864004058933213e-01  5.7080088861440781e-01  5.8527540174758930e-01  6.2190686442268361e-01  5.8265586392155855e-01  5.0060798508026927e-01  5.6468628962298018e-01  5.7540511278693818e-01  5.5475596289111240e-01  -2.2307047723009596e-31  1.5418752708679604e-31  3.1752991049669176e-34  5.2548000788914871e-34  2.7619595337537227e-31  3.4656499882144118e-31  -3.8709283418792160e-36  -6.4037440201688993e-35  -3.4458203444873321e-31  -1.1781129966844044e-31  7.4487524911572886e-32  9.9217292492258377e-32  5.4912792331637034e-32  6.2837398679388171e-32  3.2710296502409774e-30  1.7293935870770124e-30  -5.5662941329982131e-30  3.1318248203400299e-31  -8.0617280881353560e-30  -1.1136333115492767e-29  -1.8512427192592156e-30  -2.0464630275306549e-30  -5.6162325461768938e-30  -6.3070179148501691e-30  -3.8532020191704083e-30  -3.1808830841642833e-30  -1.2113204638275378e-28  5.1271197055278776e-31  -4.4250670893948867e-29  -2.5374076658373536e-28  8.2252544648385869e-30  -2.1921139046003772e-30  -4.9201320031508340e-36  3.4185939407295962e-36  2.6460589601325703e-36  -5.0269330897839085e-36  4.8785941451212593e-33  3.5877941889387226e-33  2.8778322131387588e-33  3.1620616832729306e-33  -1.1174433595871226e-27  1.1098569632601247e-29  -3.1112138126486482e-31  1.8317460075423961e-27  1.1268395012122983e-35  6.6931121293776153e-36  1.4583194159924352e-35  -4.5918277292193539e-38  4.6489614451326123e-39  -4.8842070540630002e-38  1.9557138163385530e-38  -3.1009762479149527e-36  8.6899952489756169e-40  -1.7892399431932607e-37  -4.4711086208912290e-38  -1.5440319727280720e-39  -1.8911951562983321e-37  1.3415797658662046e-39  -1.0599861523346786e-37  -2.1245031185575995e-39  -4.1557655679709654e-40  -5.5234729022277824e-40  -4.3534284848614118e-40  -1.4998326266866502e-41  -7.2859505570179743e-43  4.8580037869772768e-41  6.4522937826515404e-41  -5.7593857371881141e-40  1.8273502904637329e-27  2.1628100608138075e-30  -1.4667516629927520e-30  1.6397180217047098e-27  3.5622597241818903e-30  1.6384403792187704e-30  9.2471568520712467e-30  9.9756389448871087e-30  1.7798280435590617e-30  1.6846125779578112e-30  -1.2406464470515862e-30  -9.9978385929672879e-30  -1.7344777630184721e-30  -4.8566040984339536e-31  3.3176854932658004e-29  5.8848602175305257e-29  -3.3363354331784863e-31  1.7546657167630290e-30  -1.5787104580049093e-30  7.4188714204517904e-31  -2.2680898226516425e-30  -1.5542959046665524e-30  -1.7245587740494244e-32  -1.6535938231488165e-32  -4.4514045430924855e-31  -5.0231779660959143e-31  9.2979656224979501e-33  9.0093543503300109e-33  4.2463583081649194e-35  -1.6022003015163419e-32  2.7976596498544812e-32  -4.4742030272381946e-35  1.0087820028314624e-32  -4.2743376276389579e-35  4.0465579542529097e-35  4.1064815821299559e-32  2.4043190747363036e-42  8.5719392561969194e-42  -1.7916867139923121e-42  -3.9212890255517296e-42  -8.6188450880160951e-43  -2.6086057188116608e-42  4.0101858830686099e-42  2.8874821895229433e-42  3.8015694153763587e-28  1.6646891417341061e-29  4.1695599233002956e-30  1.8062660254679158e-27  7.3339355502285392e-32  -2.0789118176979644e-33  -2.3732177292425933e-33  -2.1835509654114788e-31  2.3054620005044941e-33  1.9299727928486975e-31  3.2787393656687393e-31  2.2382171598495927e-33  -6.6399028274293080e-37  -1.0675136995974091e-33  -4.7561936715578267e-34  3.0268579374564511e-38  -5.5422866479409336e-37  -1.8663067756476777e-35  -6.8094631945748070e-34  1.9027479267220104e-37  3.7448522213958092e-39  -2.1289619454703996e-40  -1.8542056052433337e-36  -3.6231459971523286e-39  -8.0020954222764778e-37  -3.1950267348060432e-39  1.0639433714280466e-38  -1.0696797499349427e-40  -9.1499748798738347e-37  -4.9232520906801907e-39  1.5784753281697264e-40  -1.9120028225184312e-40  1.0254867645344124e-38  -4.3885938953559327e-41  -4.9706408466683694e-37  -4.7383791601769088e-39  -8.9281026140664605e-43  3.9322040314143455e-43  -6.1973625076654153e-43  -1.3940471425744655e-42  -4.6351672060614426e-28  -2.4450797854695675e-29  -2.4177506688860210e-27  6.0032926988538896e-27  9.5177671850482400e-27  -3.4846949425017055e-26  -2.8028851169014166e-26  1.3459749400136708e-25  5.7042004848663704e-26  -3.9085791538745513e-25  -2.6019323508581628e-26  7.7158396382774594e-25  -4.3783695476374120e-25  -2.4756318241475999e-25  2.6697500557004069e-24  -6.5302921534951896e-24  -1.0168846771957395e-23  3.8215422274077728e-23  2.8983427172688981e-23  -1.4281471132077171e-22  -5.8996337716594810e-23  -9.7041512563460907e-23  4.0095992642611478e-22  4.6936738156878539e-23  -7.9240432196390894e-22  2.5750301942701173e-22  4.8248925423040191e-22  -1.5091871261131453e-21  4.0550762108268622e-21  4.5308220496409435e-21  -2.1709235573553911e-20  -7.4188336214811092e-21  4.3561044533024340e-21  6.1923122078228338e-20  -4.7600411401124787e-21  -8.6726659219238984e-20  7.3226563575469946e-20  -1.2793197096972052e-19  -2.2907826121959630e-19  1.1146043146743966e-18  2.5682682467510367e-19  -2.9488126913722516e-18  7.7152574254689421e-19  -2.6995595890332838e-18  1.7682060748102559e-18  -4.0299539817288569e-18  1.4871225806814378e-17  6.0138202469679184e-18  1.8554126703785628e-19  -4.2467343178462931e-18  1.0363402523173730e-17  8.3974673026876697e-18  -2.3304513665983609e-19  -4.2000812364566904e-18  8.7231189895496351e-19  -2.8817015546606424e-19  8.5822237622835789e-18  -4.1324409323659546e-18  8.2158616417682104e-19  2.6670867219312534e-20  -2.3851882826215115e-19  6.4314697602192417e-19  -3.8508009379621317e-18  5.0180621369484026e-19  -2.5329993347440473e-19  3.5676634422979909e-19  -2.9897288536569649e-18  8.1369253828078290e-19  -2.1959560488034089e-19  6.1350190481430128e-20  -1.6613575714636101e-18  7.9324459312715530e-19  -2.4514202588914512e-18  4.4727553809706213e-20  -4.3433360444058318e-19  7.0880370361339063e-18  -3.2697850018097526e-18  1.0112979183680279e-17  1.6108561909295344e-18  -3.5371701360721088e-17  2.1003082790231509e-17  -1.1370963691031491e-16  -2.7912311175718140e-18  3.2552017067371424e-17  -7.7243842112894734e-17  -1.1989687051907350e-17  2.2390482057895534e-16  -1.1902751880023194e-16  6.3395507274890913e-16  -1.9383600545174991e-16  6.8068379284085857e-16  -1.2550780197701660e-16  1.6756849049728340e-16  3.9161004883592667e-17  -3.7441082297957951e-16  4.7468489902946361e-17  1.3483757430182926e-17  -1.5665316059166745e-01  1.1107918885416393e-16  -2.9421187467192154e-16  8.7253532099779677e-18  2.6131135730459457e-16  -1.7586196842634064e-01  -1.2824375327834012e-16  5.8532936203483900e-16  -1.5710497783576929e-01  -1.4490340098403427e-16  4.0333379308263195e-16  -2.0424877285158854e-15  -8.1945575052501384e-16  6.3756869520156591e-17  1.7910068503039401e-16  -2.7545083785261962e-15  4.0892200331422297e-17  -9.5218602529354737e-17  3.6655165219854554e-16  -1.3432679494059138e-15  -1.0283718670849874e-15  1.6597164353115395e-16  -2.4205230121255464e-16  2.2092890270528589e-15  9.6000326541923242e-18  9.1340758765681206e-17  -3.3734489123384579e-16  1.3591494833284076e-15  4.7608588872268920e-16  4.4232319682414554e-17  -5.2007150767248632e-16  1.1854156368788076e-15  1.3868503251792803e-15  -8.0125545520582385e-17  -6.4210276637421908e-16  7.0424720573246516e-17  2.5859023308097149e-15  -2.9119267479487419e-16  -6.0104099100857851e-16  -1.9625478188875029e-15  3.5053887215559088e-15  -1.4337796277938641e-14  -3.0342137190348131e-15  -6.2354088878888286e-16  3.9703081318705099e-15  -1.6973399852441087e-14  -1.7932096658966219e-15  -8.8156348188927595e-16  3.6696174230733661e-15  -1.9391576810900436e-14  1.6549782293509683e-15  2.1478068224291868e-14  -1.6609985357669762e-14  7.4228921949692442e-14  -4.3406741548815782e-15  4.4446124389102642e-15  -6.7741942709473736e-15  4.7991204021717445e-14  -1.0843811018571745e-14  -2.5154230259525815e-15  2.4111260796237829e-14  -1.6316493094635497e-13  4.4468993207240882e-14  -6.6247895056686789e-14  -4.6490892670359731e-14  -3.4427581813755686e-15  3.4778489219614552e-14  -2.1648806660457772e-13  7.6833208256408195e-14  -3.3717432491065580e-13  9.7453063295640279e-14  -3.7783529290175899e-13  1.0497206646209513e-13  -4.0779990450711398e-13  1.1578046185420320e-13  -4.5681278057175515e-13  1.2863252783067794e-13  -4.9039105510202214e-13  1.2868699374018073e-13  -4.4089041276807148e-13  9.7643034748546766e-14  -2.6114154897815403e-13  3.8614291760420604e-14  -3.5255497131702142e-14  -1.0827307511330160e-14  7.9429450234423113e-14  -2.0422730501893869e-14  5.0130992683913578e-14  -5.3578796278063714e-15  -4.5744023076726922e-15  3.7320880801365887e-15  -1.2585379798905589e-16  -4.4410481742772395e-16  2.2003188725166496e-16  4.8930700518097478e-18  -5.8406818954665601e-17  1.3883146526307860e-17  8.7007879581971979e-18  -4.1871222259177985e-18  -3.0720689219384036e-19  -4.4205523544908962e-18  7.0610731507200908e-19  -2.7255068950064464e-14  1.2950594085212929e-18  -2.6707788855816425e-18  1.0546037920112744e-19  1.2407967314845228e-18  -3.4523896625509926e-19  6.0496705219159889e-19  -4.4509475799473187e-21 