<?xml version="1.0"?>
<VTKFile type="UnstructuredGrid"  version="0.1"  >
<UnstructuredGrid>
<Piece  NumberOfPoints="11902" NumberOfCells="23402">
<Points>
<DataArray  type="Float64"  NumberOfComponents="3"  format="ascii">-5 -5 0  5 -5 0  5 5 0  -5 5 0  1.241960469140394 0.001379227217138261 0  -4.9 -5 0  -4.8 -5 0  -4.7 -5 0  -4.6 -5 0  -4.5 -5 0  -4.4 -5 0  -4.3 -5 0  -4.2 -5 0  -4.1 -5 0  -4 -5 0  -3.9 -5 0  -3.8 -5 0  -3.7 -5 0  -3.6 -5 0  -3.5 -5 0  -3.4 -5 0  -3.3 -5 0  -3.2 -5 0  -3.1 -5 0  -3 -5 0  -2.9 -5 0  -2.8 -5 0  -2.7 -5 0  -2.6 -5 0  -2.5 -5 0  -2.4 -5 0  -2.3 -5 0  -2.2 -5 0  -2.1 -5 0  -2 -5 0  -1.9 -5 0  -1.8 -5 0  -1.7 -5 0  -1.6 -5 0  -1.5 -5 0  -1.4 -5 0  -1.3 -5 0  -1.2 -5 0  -1.1 -5 0  -1 -5 0  -0.9000000000000004 -5 0  -0.7999999999999998 -5 0  -0.7000000000000002 -5 0  -0.5999999999999996 -5 0  -0.5 -5 0  -0.4000000000000004 -5 0  -0.2999999999999998 -5 0  -0.2000000000000002 -5 0  -0.09999999999999964 -5 0  0 -5 0  0.09999999999999964 -5 0  0.2000000000000002 -5 0  0.2999999999999998 -5 0  0.4000000000000004 -5 0  0.5 -5 0  0.5999999999999996 -5 0  0.7000000000000002 -5 0  0.7999999999999998 -5 0  0.9000000000000004 -5 0  1 -5 0  1.1 -5 0  1.2 -5 0  1.3 -5 0  1.4 -5 0  1.5 -5 0  1.6 -5 0  1.7 -5 0  1.8 -5 0  1.9 -5 0  2 -5 0  2.1 -5 0  2.2 -5 0  2.3 -5 0  2.4 -5 0  2.5 -5 0  2.6 -5 0  2.7 -5 0  2.8 -5 0  2.9 -5 0  3 -5 0  3.1 -5 0  3.199999999999999 -5 0  3.300000000000001 -5 0  3.4 -5 0  3.5 -5 0  3.6 -5 0  3.699999999999999 -5 0  3.800000000000001 -5 0  3.9 -5 0  4 -5 0  4.1 -5 0  4.199999999999999 -5 0  4.300000000000001 -5 0  4.4 -5 0  4.5 -5 0  4.6 -5 0  4.699999999999999 -5 0  4.800000000000001 -5 0  4.9 -5 0  5 -4.9 0  5 -4.8 0  5 -4.7 0  5 -4.6 0  5 -4.5 0  5 -4.4 0  5 -4.3 0  5 -4.2 0  5 -4.1 0  5 -4 0  5 -3.9 0  5 -3.8 0  5 -3.7 0  5 -3.6 0  5 -3.5 0  5 -3.4 0  5 -3.3 0  5 -3.2 0  5 -3.1 0  5 -3 0  5 -2.9 0  5 -2.8 0  5 -2.7 0  5 -2.6 0  5 -2.5 0  5 -2.4 0  5 -2.3 0  5 -2.2 0  5 -2.1 0  5 -2 0  5 -1.9 0  5 -1.8 0  5 -1.7 0  5 -1.6 0  5 -1.5 0  5 -1.4 0  5 -1.3 0  5 -1.2 0  5 -1.1 0  5 -1 0  5 -0.9000000000000004 0  5 -0.7999999999999998 0  5 -0.7000000000000002 0  5 -0.5999999999999996 0  5 -0.5 0  5 -0.4000000000000004 0  5 -0.2999999999999998 0  5 -0.2000000000000002 0  5 -0.09999999999999964 0  5 0 0  5 0.09999999999999964 0  5 0.2000000000000002 0  5 0.2999999999999998 0  5 0.4000000000000004 0  5 0.5 0  5 0.5999999999999996 0  5 0.7000000000000002 0  5 0.7999999999999998 0  5 0.9000000000000004 0  5 1 0  5 1.1 0  5 1.2 0  5 1.3 0  5 1.4 0  5 1.5 0  5 1.6 0  5 1.7 0  5 1.8 0  5 1.9 0  5 2 0  5 2.1 0  5 2.2 0  5 2.3 0  5 2.4 0  5 2.5 0  5 2.6 0  5 2.7 0  5 2.8 0  5 2.9 0  5 3 0  5 3.1 0  5 3.199999999999999 0  5 3.300000000000001 0  5 3.4 0  5 3.5 0  5 3.6 0  5 3.699999999999999 0  5 3.800000000000001 0  5 3.9 0  5 4 0  5 4.1 0  5 4.199999999999999 0  5 4.300000000000001 0  5 4.4 0  5 4.5 0  5 4.6 0  5 4.699999999999999 0  5 4.800000000000001 0  5 4.9 0  4.9 5 0  4.8 5 0  4.7 5 0  4.6 5 0  4.5 5 0  4.4 5 0  4.3 5 0  4.2 5 0  4.1 5 0  4 5 0  3.9 5 0  3.8 5 0  3.7 5 0  3.6 5 0  3.5 5 0  3.4 5 0  3.3 5 0  3.2 5 0  3.1 5 0  3 5 0  2.9 5 0  2.8 5 0  2.7 5 0  2.6 5 0  2.5 5 0  2.4 5 0  2.3 5 0  2.2 5 0  2.1 5 0  2 5 0  1.9 5 0  1.8 5 0  1.7 5 0  1.6 5 0  1.5 5 0  1.4 5 0  1.3 5 0  1.2 5 0  1.1 5 0  1 5 0  0.9000000000000004 5 0  0.7999999999999998 5 0  0.7000000000000002 5 0  0.5999999999999996 5 0  0.5 5 0  0.4000000000000004 5 0  0.2999999999999998 5 0  0.2000000000000002 5 0  0.09999999999999964 5 0  0 5 0  -0.09999999999999964 5 0  -0.2000000000000002 5 0  -0.2999999999999998 5 0  -0.4000000000000004 5 0  -0.5 5 0  -0.5999999999999996 5 0  -0.7000000000000002 5 0  -0.7999999999999998 5 0  -0.9000000000000004 5 0  -1 5 0  -1.1 5 0  -1.2 5 0  -1.3 5 0  -1.4 5 0  -1.5 5 0  -1.6 5 0  -1.7 5 0  -1.8 5 0  -1.9 5 0  -2 5 0  -2.1 5 0  -2.2 5 0  -2.3 5 0  -2.4 5 0  -2.5 5 0  -2.6 5 0  -2.7 5 0  -2.8 5 0  -2.9 5 0  -3 5 0  -3.1 5 0  -3.199999999999999 5 0  -3.300000000000001 5 0  -3.4 5 0  -3.5 5 0  -3.6 5 0  -3.699999999999999 5 0  -3.800000000000001 5 0  -3.9 5 0  -4 5 0  -4.1 5 0  -4.199999999999999 5 0  -4.300000000000001 5 0  -4.4 5 0  -4.5 5 0  -4.6 5 0  -4.699999999999999 5 0  -4.800000000000001 5 0  -4.9 5 0  -5 4.9 0  -5 4.8 0  -5 4.7 0  -5 4.6 0  -5 4.5 0  -5 4.4 0  -5 4.3 0  -5 4.2 0  -5 4.1 0  -5 4 0  -5 3.9 0  -5 3.8 0  -5 3.7 0  -5 3.6 0  -5 3.5 0  -5 3.4 0  -5 3.3 0  -5 3.2 0  -5 3.1 0  -5 3 0  -5 2.9 0  -5 2.8 0  -5 2.7 0  -5 2.6 0  -5 2.5 0  -5 2.4 0  -5 2.3 0  -5 2.2 0  -5 2.1 0  -5 2 0  -5 1.9 0  -5 1.8 0  -5 1.7 0  -5 1.6 0  -5 1.5 0  -5 1.4 0  -5 1.3 0  -5 1.2 0  -5 1.1 0  -5 1 0  -5 0.9000000000000004 0  -5 0.7999999999999998 0  -5 0.7000000000000002 0  -5 0.5999999999999996 0  -5 0.5 0  -5 0.4000000000000004 0  -5 0.2999999999999998 0  -5 0.2000000000000002 0  -5 0.09999999999999964 0  -5 0 0  -5 -0.09999999999999964 0  -5 -0.2000000000000002 0  -5 -0.2999999999999998 0  -5 -0.4000000000000004 0  -5 -0.5 0  -5 -0.5999999999999996 0  -5 -0.7000000000000002 0  -5 -0.7999999999999998 0  -5 -0.9000000000000004 0  -5 -1 0  -5 -1.1 0  -5 -1.2 0  -5 -1.3 0  -5 -1.4 0  -5 -1.5 0  -5 -1.6 0  -5 -1.7 0  -5 -1.8 0  -5 -1.9 0  -5 -2 0  -5 -2.1 0  -5 -2.2 0  -5 -2.3 0  -5 -2.4 0  -5 -2.5 0  -5 -2.6 0  -5 -2.7 0  -5 -2.8 0  -5 -2.9 0  -5 -3 0  -5 -3.1 0  -5 -3.199999999999999 0  -5 -3.300000000000001 0  -5 -3.4 0  -5 -3.5 0  -5 -3.6 0  -5 -3.699999999999999 0  -5 -3.800000000000001 0  -5 -3.9 0  -5 -4 0  -5 -4.1 0  -5 -4.199999999999999 0  -5 -4.300000000000001 0  -5 -4.4 0  -5 -4.5 0  -5 -4.6 0  -5 -4.699999999999999 0  -5 -4.800000000000001 0  -5 -4.9 0  1.234849657408437 0.09675628372592184 0  1.214370982276771 0.1940230864403638 0  1.181376010147985 0.2906675983471317 0  1.138972183132686 0.3804542117761958 0  1.082839461751739 0.4709770855638369 0  1.018157115727678 0.5557442039748562 0  0.9415119985358973 0.6354939593072892 0  0.856122106473886 0.7092144742377886 0  0.7646910113987681 0.7745722918976851 0  0.663247685180015 0.83229227073941 0  0.5539550093366491 0.8844019633424116 0  0.4424962077403445 0.9275235903658381 0  0.3296265493455049 0.9603091663246583 0  0.2077469191007751 0.9820447405213487 0  0.08942476287720959 0.9996991739088258 0  -0.02757756405301644 1.002730232567445 0  -0.1452616346928391 0.9902388579536175 0  -0.2691689635430663 0.9719225576730813 0  -0.3870991582973736 0.9469550942931049 0  -0.4979245791013349 0.91061685107872 0  -0.6058621458264443 0.8643554888272634 0  -0.7077593623225449 0.8099051270706378 0  -0.8019698739110739 0.7456642387331577 0  -0.891448126970754 0.673386026528414 0  -0.974767678999838 0.5944247863074874 0  -1.046964508593658 0.5130383306765093 0  -1.108155596579822 0.4269078000201005 0  -1.158928820104011 0.3353247046417314 0  -1.196436278775938 0.2436033374033845 0  -1.220923614790753 0.1487755205352949 0  -1.232920210435126 0.05082530755614412 0  -1.232875831564895 -0.04872585894843467 0  -1.220808908126714 -0.1460900293128777 0  -1.196348129890074 -0.2403869308608834 0  -1.157045546653698 -0.3354237399296551 0  -1.108379094346047 -0.4264755367669026 0  -1.048305183055132 -0.5126036774315913 0  -0.9769036124617179 -0.5933254550042019 0  -0.8941862219863401 -0.6710192028246429 0  -0.8049068290095951 -0.7418242328945294 0  -0.7090958316227649 -0.8027926837051456 0  -0.6055414035507979 -0.8563143468928409 0  -0.4940791405683513 -0.9050627261572727 0  -0.3816762438583681 -0.9440292033015836 0  -0.2658544247858578 -0.9712465136670012 0  -0.1439161510866492 -0.9897316313083397 0  -0.02793780790946557 -1.00185816857289 0  0.08961249493785801 -0.9954660278026172 0  0.2121551643837845 -0.9791605774396306 0  0.3319016167863275 -0.958712836062083 0  0.44652492687418 -0.9261707775414131 0  0.5561412708400344 -0.8835007903846074 0  0.664111713001291 -0.8322595709670163 0  0.7647377214479331 -0.7757405723867856 0  0.8561987741662203 -0.7101458517602314 0  0.9409044615100851 -0.635310381732586 0  1.015885131386532 -0.5550364594287394 0  1.082914810571872 -0.4700856162067056 0  1.139907472920915 -0.3805577123845501 0  1.183045387438497 -0.2887362363603848 0  1.214891533919154 -0.1931318098600171 0  1.235026284167744 -0.09637016038500201 0  -2.448617052942145 4.918215596294927 0  -2.448496254439221 -4.910603202285961 0  4.910529960367058 2.447971099960419 0  4.918646265938152 -2.449425684764197 0  2.446235852585472 -4.895853656980287 0  2.440667077555535 4.899612185257804 0  -4.910556206335808 -2.447996708841511 0  -4.910553668206583 2.448000585593434 0  -1.74857331635153 4.911149058490623 0  -1.744357543630179 -4.914584858484625 0  4.920735234585101 1.744138708614791 0  4.909283434831263 -1.747909815635702 0  -4.909576084787734 -1.747643006294622 0  -4.910397450381195 1.747387054440541 0  1.745849801519293 4.905015464684259 0  1.747270177850988 -4.893177582038112 0  -1.14887266079711 4.908961641101971 0  -1.129726009782915 -4.916865007530051 0  -4.909325370332655 -1.147957866428325 0  -4.909144125684587 1.147758214224675 0  1.143865369087218 -4.913055123678825 0  1.14888218485173 4.908948753589367 0  4.90946645951942 1.146233570612247 0  4.920281592240539 -1.152011983168004 0  -0.5466852074104523 -4.910164849026904 0  -0.5464662334913687 4.918836435767503 0  -4.908083405540907 -0.5487252087821043 0  -4.90810743870439 0.5472826600577935 0  4.907405291995165 -0.5490439351814438 0  4.919043400121573 0.5457989728451342 0  0.5424692046322227 -4.897062707277878 0  0.5511952364676397 4.915664051559375 0  -4.911949893890509 -3.048341866324837 0  4.918517050980966 3.046354883795833 0  4.911458283357706 -3.04831831557273 0  -4.912797379003148 3.045433034824375 0  3.05533705772334 -4.917443271355137 0  -3.048670655230266 -4.911383059942378 0  3.052237053526699 4.913459811627186 0  -3.048115996133217 4.912272365768665 0  -4.907201029020058 -0.04990940386873584 0  0.04512086416415007 -4.912116173095524 0  0.04956862565413341 4.919133034508234 0  4.914245866363166 -0.05129137458119681 0  3.545647963089745 -4.919069054408168 0  -3.548930942545721 4.
[...]
<PointData  Scalars="f_27"> 
<DataArray  type="Float64"  Name="f_27"  format="ascii">0.0000000000000000e+00  0.0000000000000000e+00  0.0000000000000000e+00  0.0000000000000000e+00  9.4823105113711359e-01  0.0000000000000000e+00  0.0000000000000000e+00  0.0000000000000000e+00  0.0000000000000000e+00  0.0000000000000000e+00  0.0000000000000000e+00  0.0000000000000000e+00  0.0000000000000000e+00  0.0000000000000000e+00  0.0000000000000000e+00  0.0000000000000000e+00  0.0000000000000000e+00  0.0000000000000000e+00  0.0000000000000000e+00  0.0000000000000000e+00  0.0000000000000000e+00  0.0000000000000000e+00  0.0000000000000000e+00  0.0000000000000000e+00  0.0000000000000000e+00  0.0000000000000000e+00  0.0000000000000000e+00  0.0000000000000000e+00  0.0000000000000000e+00  0.0000000000000000e+00  0.0000000000000000e+00  0.0000000000000000e+00  0.0000000000000000e+00  0.0000000000000000e+00  0.0000000000000000e+00  0.0000000000000000e+00  0.0000000000000000e+00  0.0000000000000000e+00  0.0000000000000000e+00  0.0000000000000000e+00  0.0000000000000000e+00  0.0000000000000000e+00  0.0000000000000000e+00  0.0000000000000000e+00  0.0000000000000000e+00  0.0000000000000000e+00  0.0000000000000000e+00  0.0000000000000000e+00  0.0000000000000000e+00  0.0000000000000000e+00  0.0000000000000000e+00  0.0000000000000000e+00  0.0000000000000000e+00  0.0000000000000000e+00  0.0000000000000000e+00  0.0000000000000000e+00  0.0000000000000000e+00  0.0000000000000000e+00  0.0000000000000000e+00  0.0000000000000000e+00  0.0000000000000000e+00  0.0000000000000000e+00  0.0000000000000000e+00  0.0000000000000000e+00  0.0000000000000000e+00  0.0000000000000000e+00  0.0000000000000000e+00  0.0000000000000000e+00  0.0000000000000000e+00  0.0000000000000000e+00  0.0000000000000000e+00  0.0000000000000000e+00  0.0000000000000000e+00  0.0000000000000000e+00  0.0000000000000000e+00  0.0000000000000000e+00  0.0000000000000000e+00  0.0000000000000000e+00  0.0000000000000000e+00  0.0000000000000000e+00  0.0000000000000000e+00  0.0000000000000000e+00  0.0000000000000000e+00  0.0000000000000000e+00  0.0000000000000000e+00  0.0000000000000000e+00  0.0000000000000000e+00  0.0000000000000000e+00  0.0000000000000000e+00  0.0000000000000000e+00  0.0000000000000000e+00  0.0000000000000000e+00  0.0000000000000000e+00  0.0000000000000000e+00  0.0000000000000000e+00  0.0000000000000000e+00  0.0000000000000000e+00  0.0000000000000000e+00  0.0000000000000000e+00  0.0000000000000000e+00  0.0000000000000000e+00  0.0000000000000000e+00  0.0000000000000000e+00  0.0000000000000000e+00  0.0000000000000000e+00  0.0000000000000000e+00  0.0000000000000000e+00  0.0000000000000000e+00  0.0000000000000000e+00  0.0000000000000000e+00  0.0000000000000000e+00  0.0000000000000000e+00  0.0000000000000000e+00  0.0000000000000000e+00  0.0000000000000000e+00  0.0000000000000000e+00  0.0000000000000000e+00  0.0000000000000000e+00  0.0000000000000000e+00  0.0000000000000000e+00  0.0000000000000000e+00  0.0000000000000000e+00  0.0000000000000000e+00  0.0000000000000000e+00  0.0000000000000000e+00  0.0000000000000000e+00  0.0000000000000000e+00  0.0000000000000000e+00  0.0000000000000000e+00  0.0000000000000000e+00  0.0000000000000000e+00  0.0000000000000000e+00  0.0000000000000000e+00  0.0000000000000000e+00  0.0000000000000000e+00  0.0000000000000000e+00  0.0000000000000000e+00  0.0000000000000000e+00  0.0000000000000000e+00  0.0000000000000000e+00  0.0000000000000000e+00  0.0000000000000000e+00  0.0000000000000000e+00  0.0000000000000000e+00  0.0000000000000000e+00  0.0000000000000000e+00  0.0000000000000000e+00  0.0000000000000000e+00  0.0000000000000000e+00  0.0000000000000000e+00  0.0000000000000000e+00  0.0000000000000000e+00  0.0000000000000000e+00  0.0000000000000000e+00  0.0000000000000000e+00  0.0000000000000000e+00  0.0000000000000000e+00  0.0000000000000000e+00  0.0000000000000000e+00  0.0000000000000000e+00  0.0000000000000000e+00  0.0000000000000000e+00  0.0000000000000000e+00  0.0000000000000000e+00  0.0000000000000000e+00  0.0000000000000000e+00  0.0000000000000000e+00  0.0000000000000000e+00  0.0000000000000000e+00  0.0000000000000000e+00  0.0000000000000000e+00  0.0000000000000000e+00  0.0000000000000000e+00  0.0000000000000000e+00  0.0000000000000000e+00  0.0000000000000000e+00  0.0000000000000000e+00  0.0000000000000000e+00  0.0000000000000000e+00  0.0000000000000000e+00  0.0000000000000000e+00  0.0000000000000000e+00  0.0000000000000000e+00  0.0000000000000000e+00  0.0000000000000000e+00  0.0000000000000000e+00  0.0000000000000000e+00  0.0000000000000000e+00  0.0000000000000000e+00  0.0000000000000000e+00  0.0000000000000000e+00  0.0000000000000000e+00  0.0000000000000000e+00  0.0000000000000000e+00  0.0000000000000000e+00  0.0000000000000000e+00  0.0000000000000000e+00  0.0000000000000000e+00  0.0000000000000000e+00  0.0000000000000000e+00  0.0000000000000000e+00  0.0000000000000000e+00  0.0000000000000000e+00  0.0000000000000000e+00  0.0000000000000000e+00  0.0000000000000000e+00  0.0000000000000000e+00  0.0000000000000000e+00  0.0000000000000000e+00  0.0000000000000000e+00  0.0000000000000000e+00  0.0000000000000000e+00  0.0000000000000000e+00  0.0000000000000000e+00  0.0000000000000000e+00  0.0000000000000000e+00  0.0000000000000000e+00  0.0000000000000000e+00  0.0000000000000000e+00  0.0000000000000000e+00  0.0000000000000000e+00  0.0000000000000000e+00  0.0000000000000000e+00  0.0000000000000000e+00  0.0000000000000000e+00  0.0000000000000000e+00  0.0000000000000000e+00  0.0000000000000000e+00  0.0000000000000000e+00  0.0000000000000000e+00  0.0000000000000000e+00  0.0000000000000000e+00  0.0000000000000000e+00  0.0000000000000000e+00  0.0000000000000000e+00  0.0000000000000000e+00  0.0000000000000000e+00  0.0000000000000000e+00  0.0000000000000000e+00  0.0000000000000000e+00  0.0000000000000000e+00  0.0000000000000000e+00  0.0000000000000000e+00  0.0000000000000000e+00  0.0000000000000000e+00  0.0000000000000000e+00  0.0000000000000000e+00  0.0000000000000000e+00  0.0000000000000000e+00  0.0000000000000000e+00  0.0000000000000000e+00  0.0000000000000000e+00  0.0000000000000000e+00  0.0000000000000000e+00  0.0000000000000000e+00  0.0000000000000000e+00  0.0000000000000000e+00  0.0000000000000000e+00  0.0000000000000000e+00  0.0000000000000000e+00  0.0000000000000000e+00  0.0000000000000000e+00  0.0000000000000000e+00  0.0000000000000000e+00  0.0000000000000000e+00  0.0000000000000000e+00  0.0000000000000000e+00  0.0000000000000000e+00  0.0000000000000000e+00  0.0000000000000000e+00  0.0000000000000000e+00  0.0000000000000000e+00  0.0000000000000000e+00  0.0000000000000000e+00  0.0000000000000000e+00  0.0000000000000000e+00  0.0000000000000000e+00  0.0000000000000000e+00  0.0000000000000000e+00  0.0000000000000000e+00  0.0000000000000000e+00  0.0000000000000000e+00  0.0000000000000000e+00  0.0000000000000000e+00  0.0000000000000000e+00  0.0000000000000000e+00  0.0000000000000000e+00  0.0000000000000000e+00  0.0000000000000000e+00  0.0000000000000000e+00  0.0000000000000000e+00  0.0000000000000000e+00  0.0000000000000000e+00  0.0000000000000000e+00  0.0000000000000000e+00  0.0000000000000000e+00  0.0000000000000000e+00  0.0000000000000000e+00  0.0000000000000000e+00  0.0000000000000000e+00  0.0000000000000000e+00  0.0000000000000000e+00  0.0000000000000000e+00  0.0000000000000000e+00  0.0000000000000000e+00  0.0000000000000000e+00  0.0000000000000000e+00  0.0000000000000000e+00  0.0000000000000000e+00  0.0000000000000000e+00  0.0000000000000000e+00  0.0000000000000000e+00  0.0000000000000000e+00  0.0000000000000000e+00  0.0000000000000000e+00  0.0000000000000000e+00  0.0000000000000000e+00  0.0000000000000000e+00  0.0000000000000000e+00  0.0000000000000000e+00  0.0000000000000000e+00  0.0000000000000000e+00  0.0000000000000000e+00  0.0000000000000000e+00  0.0000000000000000e+00  0.0000000000000000e+00  0.0000000000000000e+00  0.0000000000000000e+00  0.0000000000000000e+00  0.0000000000000000e+00  0.0000000000000000e+00  0.0000000000000000e+00  0.0000000000000000e+00  0.0000000000000000e+00  0.0000000000000000e+00  0.0000000000000000e+00  0.0000000000000000e+00  0.0000000000000000e+00  0.0000000000000000e+00  0.0000000000000000e+00  0.0000000000000000e+00  0.0000000000000000e+00  0.0000000000000000e+00  0.0000000000000000e+00  0.0000000000000000e+00  0.0000000000000000e+00  0.0000000000000000e+00  0.0000000000000000e+00  0.0000000000000000e+00  0.0000000000000000e+00  0.0000000000000000e+00  0.0000000000000000e+00  0.0000000000000000e+00  0.0000000000000000e+00  0.0000000000000000e+00  0.0000000000000000e+00  0.0000000000000000e+00  0.0000000000000000e+00  0.0000000000000000e+00  0.0000000000000000e+00  0.0000000000000000e+00  0.0000000000000000e+00  0.0000000000000000e+00  0.0000000000000000e+00  0.0000000000000000e+00  0.0000000000000000e+00  0.0000000000000000e+00  0.0000000000000000e+00  0.0000000000000000e+00  0.0000000000000000e+00  0.0000000000000000e+00  0.0000000000000000e+00  0.0000000000000000e+00  0.0000000000000000e+00  0.0000000000000000e+00  0.0000000000000000e+00  0.0000000000000000e+00  0.0000000000000000e+00  0.0000000000000000e+00  0.0000000000000000e+00  0.0000000000000000e+00  0.0000000000000000e+00  0.0000000000000000e+00  0.0000000000000000e+00  0.0000000000000000e+00  0.0000000000000000e+00  0.0000000000000000e+00  0.0000000000000000e+00  0.0000000000000000e+00  0.0000000000000000e+00  0.0000000000000000e+00  0.0000000000000000e+00  0.0000000000000000e+00  0.0000000000000000e+00  0.0000000000000000e+00  0.0000000000000000e+00  0.0000000000000000e+00  0.0000000000000000e+00  0.0000000000000000e+00  0.0000000000000000e+00  0.0000000000000000e+00  9.4664157376231350e-01  9.5198434733668746e-01  9.6095324711283170e-01  9.6335481430824199e-01  9.5590539111863071e-01  9.4130504750234412e-01  9.4560259706792060e-01  9.5654319960286960e-01  9.5162432302385647e-01  9.4218603206579432e-01  9.4816133757134791e-01  9.4567749324371309e-01  9.4319159827323806e-01  9.5331657603228570e-01  9.5478683599864611e-01  9.5298315654903654e-01  9.5931140103909063e-01  9.5533548502394916e-01  9.4672935301296457e-01  9.5202028843558295e-01  9.5168293792823389e-01  9.5300085143618662e-01  9.4908330428407184e-01  9.4635273028223010e-01  9.5089031881444663e-01  9.5489732957367279e-01  9.4952492830501156e-01  9.5247631994357951e-01  9.5959952001792670e-01  9.5572565389674147e-01  9.5350172982899317e-01  9.5110472074141583e-01  9.5104435234242979e-01  9.3472241466944095e-01  9.5264831942201389e-01  9.4582660931862494e-01  9.5058379950008198e-01  9.4509990331415472e-01  9.4683396468126990e-01  9.5128866571780912e-01  9.6098655513003473e-01  9.4087066701319488e-01  9.5419458838380711e-01  9.4433607553929610e-01  9.5138113277793546e-01  9.5120514561382230e-01  9.3022818392082041e-01  9.4111031799422640e-01  9.5139739456520089e-01  9.5055359349578439e-01  9.5144119077463740e-01  9.5769848386598744e-01  9.5247519181134055e-01  9.4116756843761185e-01  9.4924715201588672e-01  9.5207635204371077e-01  9.5575078595773111e-01  9.5282192300001378e-01  9.3707021361131293e-01  9.4546222167561411e-01  9.4787140352021249e-01  9.4591565374661024e-01  -4.4527935601461482e-32  3.8680366643482700e-32  6.6809073089145006e-35  1.2158648773275133e-34  5.4748786797044521e-32  8.7110731109466643e-32  6.0497374656326270e-36  -2.3346465178111794e-36  -1.4142891418362168e-31  -4.9621894941058266e-32  1.5137072738455533e-32  2.4388531079067848e-32  1.3982633383176236e-32  1.6989697234759391e-32  9.0452200954468666e-31  4.5732135596594354e-31  -1.4127308273499205e-30  -1.1766544900459432e-32  -1.9851033436426651e-30  -2.7521700691772787e-30  -4.1837396160279350e-31  -5.5144899068696866e-31  -1.1715570606620289e-30  -1.6591434134402694e-30  -7.9658950681060798e-31  -7.5625108813255184e-31  -2.5257716153588064e-29  -1.0849217705457362e-30  -8.3607342986723155e-30  -5.1219822145324575e-29  1.9283343036276760e-30  -5.9919370129477089e-31  -1.1106876667075750e-36  7.9235411081425710e-37  6.6405956953966558e-37  -1.0915544702509456e-36  1.0883404704030740e-33  6.4593942347035685e-34  6.3213956578827094e-34  6.7495218001598994e-34  -2.2190154359667335e-28  2.4687533380819142e-30  -1.5002060450574261e-31  4.1617701402722573e-28  2.6566821107066638e-36  1.6942778702529675e-36  3.3042451654530893e-36  -9.8704173133536973e-39  -8.3248157002560444e-40  -1.1352554295485420e-38  2.4407167754570992e-39  -3.0438929241496552e-37  2.3489112617431770e-40  -3.8844020988701664e-38  -5.9083057786061810e-39  -3.2590395015344692e-40  -4.1372760554552131e-38  3.0688132683997877e-40  -2.1128203669292263e-38  -4.3683771931833156e-40  -1.0719362910157679e-40  -1.2124887242908023e-40  -1.0618483592912182e-40  -4.0124389195348772e-42  -1.4668999645650994e-42  1.1028579287127724e-41  1.3918923474231753e-41  -1.2196637021218900e-40  3.9890727915656214e-28  6.3451723453646477e-31  -3.9746714818538590e-31  3.8283035382891497e-28  6.1583867639037701e-31  4.0167035084247686e-31  2.8136004695735616e-30  2.1478401783943270e-30  4.2390530465828088e-31  4.3003600189807784e-31  -5.6791280616808424e-31  -2.3106513314482104e-30  -4.7207469001668577e-31  -1.2261012579730026e-31  8.9192873650721174e-30  1.3589236027892995e-29  -9.2098353932809616e-32  5.1650226970023171e-31  -7.6161736128790777e-32  1.7553947967710311e-31  -4.8961311805534437e-31  -4.4691596307398268e-31  -4.1620852921607435e-33  -3.7388537430928511e-33  -9.3379564387467577e-32  -9.6001227552355242e-32  2.1896038586291185e-33  2.2614983617371542e-33  1.0163307685285424e-35  -3.8662456033004574e-33  8.1503173959631468e-33  -9.3082887612740240e-36  2.0305684856809626e-33  -9.3961398057799939e-36  9.1474941081243797e-36  8.6693182867121026e-33  5.0494138568960662e-43  2.0147561127159394e-42  -4.0867572468864772e-43  -6.6718318386456112e-43  -2.4468946318677338e-43  -4.6575186361553270e-43  8.0211742625628173e-43  6.1152766589994523e-43  8.3112862660216030e-29  3.8286643145392423e-30  8.7456048093690183e-31  4.4662024699358824e-28  1.1952102589159186e-32  -4.6742934676865770e-34  -5.7172008986031341e-34  -3.2719500932979253e-32  5.3805860119914372e-34  3.8848000299629275e-32  7.1367234047953405e-32  4.7249212757850924e-34  -1.5375242940934928e-37  -2.2204785352626860e-34  -9.9273268011800171e-35  -1.5798165821329733e-38  -1.1958379559090720e-37  4.5907485008165003e-36  -1.3130359798649609e-34  2.0250293671994199e-38  6.4026781857845063e-40  -4.5133726707815037e-41  -4.0484109049400365e-37  -1.0526844313914553e-39  -1.1176392741794050e-37  -9.2407625151836603e-40  2.6870417628066402e-39  -3.3525808607803340e-41  -1.9421626902730780e-37  -1.1887483329955271e-39  -1.2649620772328563e-40  -3.7782175195811647e-41  2.5213417580376037e-39  -2.0188540235867153e-41  -8.6708692244935346e-38  -1.0193273917171478e-39  -1.9539150304424851e-43  9.6112005728469420e-44  -1.0423441093520704e-43  -2.8251864331259866e-43  -9.3094359226924340e-29  -1.5889276912370364e-29  -5.2737957982085098e-28  1.3096877735230497e-27  2.0968850030284428e-27  -7.6047041897601851e-27  -6.2779877547584845e-27  2.9703047547160496e-26  1.3174252574140515e-26  -8.7781589229514262e-26  -7.8080722954033249e-27  1.7920244368484896e-25  -9.2598477749274853e-26  -8.4726775304227319e-26  5.9201347159346994e-25  -1.3868710356032356e-24  -2.3040491266908712e-24  8.4954433776572951e-24  6.6697120679245574e-24  -3.2437706815458342e-23  -1.3750262978927803e-23  -2.0692027052201819e-23  9.2471748286857610e-23  1.1117787510505625e-23  -1.8488433675608974e-22  6.0370551243343669e-23  1.1401258513838687e-22  -3.5565640835607186e-22  9.5627011004376711e-22  1.0630942771429735e-21  -5.1274105816773458e-21  -1.6896110802617452e-21  1.0177438958624927e-21  1.4513075613682732e-20  -1.4369177420837677e-21  -1.9455903196975544e-20  1.8263149443765593e-20  -3.4972683140522410e-20  -5.5663783084696688e-20  2.7646848774676988e-19  5.9300982680729271e-20  -7.1301692163434964e-19  1.9825391910814088e-19  -7.0832595191076818e-19  3.8274708073865300e-19  -9.9597961059707588e-19  3.7475262991076177e-18  1.4525002387368992e-18  5.0895328536843361e-20  -1.0398443876563799e-18  2.6125923428307183e-18  1.9792596324532312e-18  -4.2337420685904484e-20  -1.0294127321961869e-18  2.0601759266000192e-19  -3.5316827340062712e-20  1.9100702942912409e-18  -1.0069877903632281e-18  1.8685427018217863e-19  5.6070992281765787e-20  -6.1630430570496699e-20  1.3378961486410796e-19  -8.8097280193131696e-19  1.5108339792373184e-19  -6.0198663150180717e-20  6.5663914297017838e-20  -6.3053712655170434e-19  1.8957810535664617e-19  -4.7949717862137095e-20  9.9904590087679685e-21  -3.8138799067061396e-19  2.0168139016428668e-19  -7.3965157108823600e-19  1.0857794384803274e-20  -2.0953685438636032e-20  1.2783273755412085e-18  -6.7999625829317957e-19  2.2616446178064867e-18  2.9965276704149037e-19  -7.5424911689497202e-18  4.6198346443463454e-18  -2.5475323867766044e-17  -5.9951957372828795e-19  7.4904255762279163e-18  -1.9196924211314559e-17  -1.7129895434510855e-18  4.4332847055647326e-17  -2.4442098483056120e-17  1.3115066492056745e-16  -3.9998667543903489e-17  1.3819343734568792e-16  -2.4173648839814741e-17  2.3118999253341183e-17  1.2323772285292513e-17  -9.4834610787299466e-17  9.6274195786120621e-18  2.1441465719160792e-18  -2.8136497852291187e-01  2.6910943468354540e-17  -6.8893708029873476e-17  1.3286725781903543e-18  6.5828434242805044e-17  -3.0310062543935529e-01  -3.1616811350762501e-17  1.4294171279826217e-16  -2.6414296347196164e-01  -3.5151390919150415e-17  9.6405671049622428e-17  -4.9505209916008041e-16  -1.8711868586410947e-16  1.0780656250519809e-17  6.4976177260493986e-17  -5.6807384346175010e-16  1.0003876421805919e-17  -2.8998593399388771e-17  1.0828021306582219e-16  -4.0877495410238212e-16  -3.0241758845322297e-16  4.8859833453359173e-17  -7.1657918805149396e-17  6.5082089667969493e-16  2.5012200374208332e-18  2.8347888924709578e-17  -1.1065097373920810e-16  4.1624124257290984e-16  2.0313715653142293e-16  -4.0430973079510863e-18  -1.0471314075312898e-16  9.0032005045997680e-17  3.4277592489659825e-16  -2.9984922697913797e-17  -1.1821413524048015e-16  -1.4267388990319446e-16  5.7202063751116303e-16  -7.1889571263780364e-17  -1.1119226512399096e-16  -5.4759448915785161e-16  7.7383075638644528e-16  -2.9746576218131969e-15  -7.7491633955949173e-16  -1.1963958095701603e-16  8.8806237000518631e-16  -3.6419922624357100e-15  -4.8200492452644300e-16  -1.8428548298297665e-16  8.3520115068468338e-16  -4.3074835523018248e-15  3.3017997153899419e-16  5.0767463634317818e-15  -3.8156936064482686e-15  1.6794424626485786e-14  -8.6935387057996355e-16  1.0274762085978906e-15  -1.7258118432736984e-15  1.2960682664824389e-14  -3.7184901635860782e-15  6.9646517121362201e-15  2.8512814817451459e-15  -2.7520954895653775e-14  8.8480824020257060e-15  -1.8539127468323301e-14  -6.7777134803320367e-15  -1.0662279788633857e-15  6.2410567858748738e-15  -4.1147807364451142e-14  1.5100154979416540e-14  -6.7338309004911917e-14  1.9519056551534915e-14  -7.5457808435128044e-14  2.1023651606871159e-14  -8.2753491728407601e-14  2.4335865337405282e-14  -9.9428042970405401e-14  2.8819901532615384e-14  -1.1104455104019289e-13  2.8800028897757501e-14  -9.5704454263307146e-14  2.0258537007591624e-14  -5.0455528155536585e-14  6.6541963672356016e-15  -2.6579428196247367e-15  -3.0082825397753675e-15  1.7111038866036245e-14  -4.0109147643488177e-15  8.7941835089011931e-15  -7.1415768079332090e-16  -1.8797414254748250e-15  6.6598327696056294e-16  -9.7255309647764825e-17  -6.3712876456104645e-17  5.4059262161310460e-17  -4.3527668167264353e-18  -1.2226928223101867e-17  3.5741627496547277e-18  1.5469256491027889e-18  -8.9531440826968240e-19  1.6624942378109813e-20  -1.0960392086544767e-18  1.3033946654421121e-19  -5.4501816774090639e-15  2.8068434104884282e-19  -4.9308522710213286e-19  2.5440890292536166e-23  3.1356406204060815e-19  -7.7320755178773833e-20  1.1679050375921755e-19  3.1186645786327933e-