<?xml version="1.0"?>
<VTKFile type="UnstructuredGrid"  version="0.1"  >
<UnstructuredGrid>
<Piece  NumberOfPoints="11902" NumberOfCells="23402">
<Points>
<DataArray  type="Float64"  NumberOfComponents="3"  format="ascii">-5 -5 0  5 -5 0  5 5 0  -5 5 0  1.263696848098453 0.00127575358935317 0  -4.9 -5 0  -4.8 -5 0  -4.7 -5 0  -4.6 -5 0  -4.5 -5 0  -4.4 -5 0  -4.3 -5 0  -4.2 -5 0  -4.1 -5 0  -4 -5 0  -3.9 -5 0  -3.8 -5 0  -3.7 -5 0  -3.6 -5 0  -3.5 -5 0  -3.4 -5 0  -3.3 -5 0  -3.2 -5 0  -3.1 -5 0  -3 -5 0  -2.9 -5 0  -2.8 -5 0  -2.7 -5 0  -2.6 -5 0  -2.5 -5 0  -2.4 -5 0  -2.3 -5 0  -2.2 -5 0  -2.1 -5 0  -2 -5 0  -1.9 -5 0  -1.8 -5 0  -1.7 -5 0  -1.6 -5 0  -1.5 -5 0  -1.4 -5 0  -1.3 -5 0  -1.2 -5 0  -1.1 -5 0  -1 -5 0  -0.9000000000000004 -5 0  -0.7999999999999998 -5 0  -0.7000000000000002 -5 0  -0.5999999999999996 -5 0  -0.5 -5 0  -0.4000000000000004 -5 0  -0.2999999999999998 -5 0  -0.2000000000000002 -5 0  -0.09999999999999964 -5 0  0 -5 0  0.09999999999999964 -5 0  0.2000000000000002 -5 0  0.2999999999999998 -5 0  0.4000000000000004 -5 0  0.5 -5 0  0.5999999999999996 -5 0  0.7000000000000002 -5 0  0.7999999999999998 -5 0  0.9000000000000004 -5 0  1 -5 0  1.1 -5 0  1.2 -5 0  1.3 -5 0  1.4 -5 0  1.5 -5 0  1.6 -5 0  1.7 -5 0  1.8 -5 0  1.9 -5 0  2 -5 0  2.1 -5 0  2.2 -5 0  2.3 -5 0  2.4 -5 0  2.5 -5 0  2.6 -5 0  2.7 -5 0  2.8 -5 0  2.9 -5 0  3 -5 0  3.1 -5 0  3.199999999999999 -5 0  3.300000000000001 -5 0  3.4 -5 0  3.5 -5 0  3.6 -5 0  3.699999999999999 -5 0  3.800000000000001 -5 0  3.9 -5 0  4 -5 0  4.1 -5 0  4.199999999999999 -5 0  4.300000000000001 -5 0  4.4 -5 0  4.5 -5 0  4.6 -5 0  4.699999999999999 -5 0  4.800000000000001 -5 0  4.9 -5 0  5 -4.9 0  5 -4.8 0  5 -4.7 0  5 -4.6 0  5 -4.5 0  5 -4.4 0  5 -4.3 0  5 -4.2 0  5 -4.1 0  5 -4 0  5 -3.9 0  5 -3.8 0  5 -3.7 0  5 -3.6 0  5 -3.5 0  5 -3.4 0  5 -3.3 0  5 -3.2 0  5 -3.1 0  5 -3 0  5 -2.9 0  5 -2.8 0  5 -2.7 0  5 -2.6 0  5 -2.5 0  5 -2.4 0  5 -2.3 0  5 -2.2 0  5 -2.1 0  5 -2 0  5 -1.9 0  5 -1.8 0  5 -1.7 0  5 -1.6 0  5 -1.5 0  5 -1.4 0  5 -1.3 0  5 -1.2 0  5 -1.1 0  5 -1 0  5 -0.9000000000000004 0  5 -0.7999999999999998 0  5 -0.7000000000000002 0  5 -0.5999999999999996 0  5 -0.5 0  5 -0.4000000000000004 0  5 -0.2999999999999998 0  5 -0.2000000000000002 0  5 -0.09999999999999964 0  5 0 0  5 0.09999999999999964 0  5 0.2000000000000002 0  5 0.2999999999999998 0  5 0.4000000000000004 0  5 0.5 0  5 0.5999999999999996 0  5 0.7000000000000002 0  5 0.7999999999999998 0  5 0.9000000000000004 0  5 1 0  5 1.1 0  5 1.2 0  5 1.3 0  5 1.4 0  5 1.5 0  5 1.6 0  5 1.7 0  5 1.8 0  5 1.9 0  5 2 0  5 2.1 0  5 2.2 0  5 2.3 0  5 2.4 0  5 2.5 0  5 2.6 0  5 2.7 0  5 2.8 0  5 2.9 0  5 3 0  5 3.1 0  5 3.199999999999999 0  5 3.300000000000001 0  5 3.4 0  5 3.5 0  5 3.6 0  5 3.699999999999999 0  5 3.800000000000001 0  5 3.9 0  5 4 0  5 4.1 0  5 4.199999999999999 0  5 4.300000000000001 0  5 4.4 0  5 4.5 0  5 4.6 0  5 4.699999999999999 0  5 4.800000000000001 0  5 4.9 0  4.9 5 0  4.8 5 0  4.7 5 0  4.6 5 0  4.5 5 0  4.4 5 0  4.3 5 0  4.2 5 0  4.1 5 0  4 5 0  3.9 5 0  3.8 5 0  3.7 5 0  3.6 5 0  3.5 5 0  3.4 5 0  3.3 5 0  3.2 5 0  3.1 5 0  3 5 0  2.9 5 0  2.8 5 0  2.7 5 0  2.6 5 0  2.5 5 0  2.4 5 0  2.3 5 0  2.2 5 0  2.1 5 0  2 5 0  1.9 5 0  1.8 5 0  1.7 5 0  1.6 5 0  1.5 5 0  1.4 5 0  1.3 5 0  1.2 5 0  1.1 5 0  1 5 0  0.9000000000000004 5 0  0.7999999999999998 5 0  0.7000000000000002 5 0  0.5999999999999996 5 0  0.5 5 0  0.4000000000000004 5 0  0.2999999999999998 5 0  0.2000000000000002 5 0  0.09999999999999964 5 0  0 5 0  -0.09999999999999964 5 0  -0.2000000000000002 5 0  -0.2999999999999998 5 0  -0.4000000000000004 5 0  -0.5 5 0  -0.5999999999999996 5 0  -0.7000000000000002 5 0  -0.7999999999999998 5 0  -0.9000000000000004 5 0  -1 5 0  -1.1 5 0  -1.2 5 0  -1.3 5 0  -1.4 5 0  -1.5 5 0  -1.6 5 0  -1.7 5 0  -1.8 5 0  -1.9 5 0  -2 5 0  -2.1 5 0  -2.2 5 0  -2.3 5 0  -2.4 5 0  -2.5 5 0  -2.6 5 0  -2.7 5 0  -2.8 5 0  -2.9 5 0  -3 5 0  -3.1 5 0  -3.199999999999999 5 0  -3.300000000000001 5 0  -3.4 5 0  -3.5 5 0  -3.6 5 0  -3.699999999999999 5 0  -3.800000000000001 5 0  -3.9 5 0  -4 5 0  -4.1 5 0  -4.199999999999999 5 0  -4.300000000000001 5 0  -4.4 5 0  -4.5 5 0  -4.6 5 0  -4.699999999999999 5 0  -4.800000000000001 5 0  -4.9 5 0  -5 4.9 0  -5 4.8 0  -5 4.7 0  -5 4.6 0  -5 4.5 0  -5 4.4 0  -5 4.3 0  -5 4.2 0  -5 4.1 0  -5 4 0  -5 3.9 0  -5 3.8 0  -5 3.7 0  -5 3.6 0  -5 3.5 0  -5 3.4 0  -5 3.3 0  -5 3.2 0  -5 3.1 0  -5 3 0  -5 2.9 0  -5 2.8 0  -5 2.7 0  -5 2.6 0  -5 2.5 0  -5 2.4 0  -5 2.3 0  -5 2.2 0  -5 2.1 0  -5 2 0  -5 1.9 0  -5 1.8 0  -5 1.7 0  -5 1.6 0  -5 1.5 0  -5 1.4 0  -5 1.3 0  -5 1.2 0  -5 1.1 0  -5 1 0  -5 0.9000000000000004 0  -5 0.7999999999999998 0  -5 0.7000000000000002 0  -5 0.5999999999999996 0  -5 0.5 0  -5 0.4000000000000004 0  -5 0.2999999999999998 0  -5 0.2000000000000002 0  -5 0.09999999999999964 0  -5 0 0  -5 -0.09999999999999964 0  -5 -0.2000000000000002 0  -5 -0.2999999999999998 0  -5 -0.4000000000000004 0  -5 -0.5 0  -5 -0.5999999999999996 0  -5 -0.7000000000000002 0  -5 -0.7999999999999998 0  -5 -0.9000000000000004 0  -5 -1 0  -5 -1.1 0  -5 -1.2 0  -5 -1.3 0  -5 -1.4 0  -5 -1.5 0  -5 -1.6 0  -5 -1.7 0  -5 -1.8 0  -5 -1.9 0  -5 -2 0  -5 -2.1 0  -5 -2.2 0  -5 -2.3 0  -5 -2.4 0  -5 -2.5 0  -5 -2.6 0  -5 -2.7 0  -5 -2.8 0  -5 -2.9 0  -5 -3 0  -5 -3.1 0  -5 -3.199999999999999 0  -5 -3.300000000000001 0  -5 -3.4 0  -5 -3.5 0  -5 -3.6 0  -5 -3.699999999999999 0  -5 -3.800000000000001 0  -5 -3.9 0  -5 -4 0  -5 -4.1 0  -5 -4.199999999999999 0  -5 -4.300000000000001 0  -5 -4.4 0  -5 -4.5 0  -5 -4.6 0  -5 -4.699999999999999 0  -5 -4.800000000000001 0  -5 -4.9 0  1.255524473368296 0.09361409537688527 0  1.233420762263701 0.1914277727892669 0  1.199771313947547 0.288075976315698 0  1.157011469461089 0.3764306392342485 0  1.098514883455111 0.4674828262501047 0  1.032150013848489 0.5511769141499215 0  0.9535030619403644 0.6315455207278209 0  0.8662441414608623 0.7064780665750459 0  0.7744022656453166 0.7718022764440403 0  0.6722770334709464 0.8292304620857893 0  0.5592426678292614 0.881467004162947 0  0.4459947999268852 0.9263563022097079 0  0.3346983214347793 0.9581159992581422 0  0.2087812927905093 0.9802435404895571 0  0.08802623228961397 0.9989853728007801 0  -0.02652403868688939 1.002446743994817 0  -0.1441904426666196 0.9886848127158803 0  -0.2733922355662833 0.969081610831326 0  -0.3932817405011695 0.9449559767075677 0  -0.5031613481721838 0.9095417686581246 0  -0.6128223971443232 0.863088011904943 0  -0.7148563305957031 0.8081024245890384 0  -0.8094337053170195 0.7434449151467257 0  -0.9009810889860405 0.6696433342525469 0  -0.9874059943729827 0.5894324597726819 0  -1.06229763783788 0.5079457701270176 0  -1.124349822680555 0.4233107523248362 0  -1.179006038400034 0.3299989585871071 0  -1.216589028640769 0.2425463692903982 0  -1.240997221679067 0.1486587172431864 0  -1.251450454080737 0.05234679855980595 0  -1.25140890657307 -0.05005103362878879 0  -1.240932536216719 -0.1456399584326568 0  -1.216204064719714 -0.236909116972214 0  -1.174153397678107 -0.3319856196066462 0  -1.124656686484038 -0.4242326799955941 0  -1.064278406350255 -0.5078389311149978 0  -0.9899376386699844 -0.588449959652607 0  -0.9041317182727034 -0.6676094026672523 0  -0.8133646387867429 -0.7391510377792336 0  -0.7178440738023224 -0.7999386349650756 0  -0.6131157120980291 -0.8532071028066593 0  -0.4977725146360324 -0.9029012877767159 0  -0.3851864347041155 -0.9428333259361373 0  -0.2700572487341354 -0.9689134120891648 0  -0.1425224573485432 -0.9886905669085571 0  -0.02761171605377494 -1.001688388782983 0  0.08672478089946507 -0.994281059765317 0  0.2150668112227189 -0.9763394717427466 0  0.3375469421680286 -0.9563698625578132 0  0.4501850790616352 -0.9250344784554743 0  0.5618862092027159 -0.8807035693028067 0  0.673481216279993 -0.8291289431659244 0  0.7742578272534684 -0.7729653580550514 0  0.8657895710567847 -0.7078966675259473 0  0.9517200823225738 -0.6320550415640972 0  1.029664948179715 -0.5499030218445851 0  1.099900021837536 -0.4660287442529515 0  1.157826584748596 -0.3768246824042942 0  1.201555306045126 -0.2861471667811311 0  1.234145431207075 -0.1907131318168288 0  1.255936168258691 -0.09360229552624028 0  -2.44852935404984 4.918056886569347 0  -2.448400448623057 -4.910429858689277 0  4.910352075665504 2.447848132791082 0  4.918484838248914 -2.449314081027239 0  2.446124576751171 -4.895650316041665 0  2.440559301505834 4.899415374777356 0  -4.910379400859177 -2.447875030099588 0  -4.910376688451591 2.447879135818175 0  -1.748482145614381 4.910919064837242 0  -1.744269948584026 -4.914363764474108 0  4.920510654690073 1.744027375657503 0  4.909026992143614 -1.747782529292671 0  -4.909321948675673 -1.747517267859657 0  -4.910145419287006 1.747262860601834 0  1.745752508191744 4.904768205443426 0  1.747161400626568 -4.892900062653341 0  -1.148799849914364 4.908681771260118 0  -1.129660144462346 -4.916608811117699 0  -4.909007318368251 -1.147854368547191 0  -4.908825273528014 1.147655062612161 0  1.143796954793149 -4.912787203506292 0  1.148809581807634 4.908667981364032 0  4.909146428649677 1.146129212331821 0  4.920000430132373 -1.151920041965726 0  -0.5466469145500775 -4.909859556616715 0  -0.5464320647151604 4.918560070512497 0  -4.907713940944614 -0.5486676221017026 0  -4.907737913099185 0.5472258772270834 0  4.907030340643475 -0.548985625525924 0  4.918715407389352 0.5457480325881368 0  0.5424272866248613 -4.896712137333677 0  0.5511596976258401 4.915376601157449 0  -4.911830545543594 -3.048241293671744 0  4.918405889721949 3.046260832572183 0  4.911337841602799 -3.048216331047826 0  -4.912678809146388 3.045333435607042 0  3.055259154040093 -4.917327565306284 0  -3.048586747675607 -4.911259157788524 0  3.052155024766079 4.913338118265569 0  -3.048032825822226 4.912149611939268 0  -4.906812352799968 -0.04990358245645839 0  0.04511849991290535 -4.911808292792999 0  0.04956558830578623 4.918849185206503 0  4.913883997453223 -0.0512862458879079 0  3.545586469463516 -4.918988342932569 0  -3.5488641044
[...]
<PointData  Scalars="f_27"> 
<DataArray  type="Float64"  Name="f_27"  format="ascii">0.0000000000000000e+00  0.0000000000000000e+00  0.0000000000000000e+00  0.0000000000000000e+00  9.8072576660191046e-01  0.0000000000000000e+00  0.0000000000000000e+00  0.0000000000000000e+00  0.0000000000000000e+00  0.0000000000000000e+00  0.0000000000000000e+00  0.0000000000000000e+00  0.0000000000000000e+00  0.0000000000000000e+00  0.0000000000000000e+00  0.0000000000000000e+00  0.0000000000000000e+00  0.0000000000000000e+00  0.0000000000000000e+00  0.0000000000000000e+00  0.0000000000000000e+00  0.0000000000000000e+00  0.0000000000000000e+00  0.0000000000000000e+00  0.0000000000000000e+00  0.0000000000000000e+00  0.0000000000000000e+00  0.0000000000000000e+00  0.0000000000000000e+00  0.0000000000000000e+00  0.0000000000000000e+00  0.0000000000000000e+00  0.0000000000000000e+00  0.0000000000000000e+00  0.0000000000000000e+00  0.0000000000000000e+00  0.0000000000000000e+00  0.0000000000000000e+00  0.0000000000000000e+00  0.0000000000000000e+00  0.0000000000000000e+00  0.0000000000000000e+00  0.0000000000000000e+00  0.0000000000000000e+00  0.0000000000000000e+00  0.0000000000000000e+00  0.0000000000000000e+00  0.0000000000000000e+00  0.0000000000000000e+00  0.0000000000000000e+00  0.0000000000000000e+00  0.0000000000000000e+00  0.0000000000000000e+00  0.0000000000000000e+00  0.0000000000000000e+00  0.0000000000000000e+00  0.0000000000000000e+00  0.0000000000000000e+00  0.0000000000000000e+00  0.0000000000000000e+00  0.0000000000000000e+00  0.0000000000000000e+00  0.0000000000000000e+00  0.0000000000000000e+00  0.0000000000000000e+00  0.0000000000000000e+00  0.0000000000000000e+00  0.0000000000000000e+00  0.0000000000000000e+00  0.0000000000000000e+00  0.0000000000000000e+00  0.0000000000000000e+00  0.0000000000000000e+00  0.0000000000000000e+00  0.0000000000000000e+00  0.0000000000000000e+00  0.0000000000000000e+00  0.0000000000000000e+00  0.0000000000000000e+00  0.0000000000000000e+00  0.0000000000000000e+00  0.0000000000000000e+00  0.0000000000000000e+00  0.0000000000000000e+00  0.0000000000000000e+00  0.0000000000000000e+00  0.0000000000000000e+00  0.0000000000000000e+00  0.0000000000000000e+00  0.0000000000000000e+00  0.0000000000000000e+00  0.0000000000000000e+00  0.0000000000000000e+00  0.0000000000000000e+00  0.0000000000000000e+00  0.0000000000000000e+00  0.0000000000000000e+00  0.0000000000000000e+00  0.0000000000000000e+00  0.0000000000000000e+00  0.0000000000000000e+00  0.0000000000000000e+00  0.0000000000000000e+00  0.0000000000000000e+00  0.0000000000000000e+00  0.0000000000000000e+00  0.0000000000000000e+00  0.0000000000000000e+00  0.0000000000000000e+00  0.0000000000000000e+00  0.0000000000000000e+00  0.0000000000000000e+00  0.0000000000000000e+00  0.0000000000000000e+00  0.0000000000000000e+00  0.0000000000000000e+00  0.0000000000000000e+00  0.0000000000000000e+00  0.0000000000000000e+00  0.0000000000000000e+00  0.0000000000000000e+00  0.0000000000000000e+00  0.0000000000000000e+00  0.0000000000000000e+00  0.0000000000000000e+00  0.0000000000000000e+00  0.0000000000000000e+00  0.0000000000000000e+00  0.0000000000000000e+00  0.0000000000000000e+00  0.0000000000000000e+00  0.0000000000000000e+00  0.0000000000000000e+00  0.0000000000000000e+00  0.0000000000000000e+00  0.0000000000000000e+00  0.0000000000000000e+00  0.0000000000000000e+00  0.0000000000000000e+00  0.0000000000000000e+00  0.0000000000000000e+00  0.0000000000000000e+00  0.0000000000000000e+00  0.0000000000000000e+00  0.0000000000000000e+00  0.0000000000000000e+00  0.0000000000000000e+00  0.0000000000000000e+00  0.0000000000000000e+00  0.0000000000000000e+00  0.0000000000000000e+00  0.0000000000000000e+00  0.0000000000000000e+00  0.0000000000000000e+00  0.0000000000000000e+00  0.0000000000000000e+00  0.0000000000000000e+00  0.0000000000000000e+00  0.0000000000000000e+00  0.0000000000000000e+00  0.0000000000000000e+00  0.0000000000000000e+00  0.0000000000000000e+00  0.0000000000000000e+00  0.0000000000000000e+00  0.0000000000000000e+00  0.0000000000000000e+00  0.0000000000000000e+00  0.0000000000000000e+00  0.0000000000000000e+00  0.0000000000000000e+00  0.0000000000000000e+00  0.0000000000000000e+00  0.0000000000000000e+00  0.0000000000000000e+00  0.0000000000000000e+00  0.0000000000000000e+00  0.0000000000000000e+00  0.0000000000000000e+00  0.0000000000000000e+00  0.0000000000000000e+00  0.0000000000000000e+00  0.0000000000000000e+00  0.0000000000000000e+00  0.0000000000000000e+00  0.0000000000000000e+00  0.0000000000000000e+00  0.0000000000000000e+00  0.0000000000000000e+00  0.0000000000000000e+00  0.0000000000000000e+00  0.0000000000000000e+00  0.0000000000000000e+00  0.0000000000000000e+00  0.0000000000000000e+00  0.0000000000000000e+00  0.0000000000000000e+00  0.0000000000000000e+00  0.0000000000000000e+00  0.0000000000000000e+00  0.0000000000000000e+00  0.0000000000000000e+00  0.0000000000000000e+00  0.0000000000000000e+00  0.0000000000000000e+00  0.0000000000000000e+00  0.0000000000000000e+00  0.0000000000000000e+00  0.0000000000000000e+00  0.0000000000000000e+00  0.0000000000000000e+00  0.0000000000000000e+00  0.0000000000000000e+00  0.0000000000000000e+00  0.0000000000000000e+00  0.0000000000000000e+00  0.0000000000000000e+00  0.0000000000000000e+00  0.0000000000000000e+00  0.0000000000000000e+00  0.0000000000000000e+00  0.0000000000000000e+00  0.0000000000000000e+00  0.0000000000000000e+00  0.0000000000000000e+00  0.0000000000000000e+00  0.0000000000000000e+00  0.0000000000000000e+00  0.0000000000000000e+00  0.0000000000000000e+00  0.0000000000000000e+00  0.0000000000000000e+00  0.0000000000000000e+00  0.0000000000000000e+00  0.0000000000000000e+00  0.0000000000000000e+00  0.0000000000000000e+00  0.0000000000000000e+00  0.0000000000000000e+00  0.0000000000000000e+00  0.0000000000000000e+00  0.0000000000000000e+00  0.0000000000000000e+00  0.0000000000000000e+00  0.0000000000000000e+00  0.0000000000000000e+00  0.0000000000000000e+00  0.0000000000000000e+00  0.0000000000000000e+00  0.0000000000000000e+00  0.0000000000000000e+00  0.0000000000000000e+00  0.0000000000000000e+00  0.0000000000000000e+00  0.0000000000000000e+00  0.0000000000000000e+00  0.0000000000000000e+00  0.0000000000000000e+00  0.0000000000000000e+00  0.0000000000000000e+00  0.0000000000000000e+00  0.0000000000000000e+00  0.0000000000000000e+00  0.0000000000000000e+00  0.0000000000000000e+00  0.0000000000000000e+00  0.0000000000000000e+00  0.0000000000000000e+00  0.0000000000000000e+00  0.0000000000000000e+00  0.0000000000000000e+00  0.0000000000000000e+00  0.0000000000000000e+00  0.0000000000000000e+00  0.0000000000000000e+00  0.0000000000000000e+00  0.0000000000000000e+00  0.0000000000000000e+00  0.0000000000000000e+00  0.0000000000000000e+00  0.0000000000000000e+00  0.0000000000000000e+00  0.0000000000000000e+00  0.0000000000000000e+00  0.0000000000000000e+00  0.0000000000000000e+00  0.0000000000000000e+00  0.0000000000000000e+00  0.0000000000000000e+00  0.0000000000000000e+00  0.0000000000000000e+00  0.0000000000000000e+00  0.0000000000000000e+00  0.0000000000000000e+00  0.0000000000000000e+00  0.0000000000000000e+00  0.0000000000000000e+00  0.0000000000000000e+00  0.0000000000000000e+00  0.0000000000000000e+00  0.0000000000000000e+00  0.0000000000000000e+00  0.0000000000000000e+00  0.0000000000000000e+00  0.0000000000000000e+00  0.0000000000000000e+00  0.0000000000000000e+00  0.0000000000000000e+00  0.0000000000000000e+00  0.0000000000000000e+00  0.0000000000000000e+00  0.0000000000000000e+00  0.0000000000000000e+00  0.0000000000000000e+00  0.0000000000000000e+00  0.0000000000000000e+00  0.0000000000000000e+00  0.0000000000000000e+00  0.0000000000000000e+00  0.0000000000000000e+00  0.0000000000000000e+00  0.0000000000000000e+00  0.0000000000000000e+00  0.0000000000000000e+00  0.0000000000000000e+00  0.0000000000000000e+00  0.0000000000000000e+00  0.0000000000000000e+00  0.0000000000000000e+00  0.0000000000000000e+00  0.0000000000000000e+00  0.0000000000000000e+00  0.0000000000000000e+00  0.0000000000000000e+00  0.0000000000000000e+00  0.0000000000000000e+00  0.0000000000000000e+00  0.0000000000000000e+00  0.0000000000000000e+00  0.0000000000000000e+00  0.0000000000000000e+00  0.0000000000000000e+00  0.0000000000000000e+00  0.0000000000000000e+00  0.0000000000000000e+00  0.0000000000000000e+00  0.0000000000000000e+00  0.0000000000000000e+00  0.0000000000000000e+00  0.0000000000000000e+00  0.0000000000000000e+00  0.0000000000000000e+00  0.0000000000000000e+00  0.0000000000000000e+00  0.0000000000000000e+00  0.0000000000000000e+00  0.0000000000000000e+00  0.0000000000000000e+00  0.0000000000000000e+00  0.0000000000000000e+00  0.0000000000000000e+00  0.0000000000000000e+00  0.0000000000000000e+00  0.0000000000000000e+00  0.0000000000000000e+00  0.0000000000000000e+00  0.0000000000000000e+00  0.0000000000000000e+00  0.0000000000000000e+00  0.0000000000000000e+00  0.0000000000000000e+00  0.0000000000000000e+00  0.0000000000000000e+00  0.0000000000000000e+00  0.0000000000000000e+00  0.0000000000000000e+00  0.0000000000000000e+00  0.0000000000000000e+00  0.0000000000000000e+00  0.0000000000000000e+00  0.0000000000000000e+00  0.0000000000000000e+00  0.0000000000000000e+00  0.0000000000000000e+00  0.0000000000000000e+00  0.0000000000000000e+00  0.0000000000000000e+00  0.0000000000000000e+00  0.0000000000000000e+00  0.0000000000000000e+00  0.0000000000000000e+00  0.0000000000000000e+00  0.0000000000000000e+00  0.0000000000000000e+00  0.0000000000000000e+00  0.0000000000000000e+00  0.0000000000000000e+00  0.0000000000000000e+00  0.0000000000000000e+00  0.0000000000000000e+00  0.0000000000000000e+00  9.8140952859847763e-01  9.8547189339058350e-01  9.8835197825848287e-01  9.8875770984009492e-01  9.8703384192521026e-01  9.8172695485310224e-01  9.8400745435562598e-01  9.8734224211904797e-01  9.8355264899051154e-01  9.8384347196729960e-01  9.8881674562756583e-01  9.8070446127070965e-01  9.7667785388841399e-01  9.9450799680124780e-01  9.8131880115952141e-01  9.7866360721263124e-01  9.9360896115777242e-01  9.9018226744237547e-01  9.7996626934971731e-01  9.8411585784461664e-01  9.8280892188574609e-01  9.8305290302233628e-01  9.8504503838517532e-01  9.8579682667573321e-01  9.8820863905700518e-01  9.8599527041437474e-01  9.8633583993809182e-01  9.8669170891051561e-01  9.8458846658229260e-01  9.8547562127697885e-01  9.8761035736728964e-01  9.8684799541438950e-01  9.8653011491436937e-01  9.8339958448796427e-01  9.8913988244592577e-01  9.8226669961585233e-01  9.8424855549963175e-01  9.8668413554070211e-01  9.8456844378135588e-01  9.8275020592620854e-01  9.8813734254540453e-01  9.8692537016370907e-01  9.8855829160814901e-01  9.7609330284037810e-01  9.8622483491925172e-01  9.9230210129216523e-01  9.6355080660736359e-01  9.8296129110384656e-01  9.9361682213007474e-01  9.7947160165475755e-01  9.8144684467296772e-01  9.8966824527241226e-01  9.8414462272054459e-01  9.7715835568049381e-01  9.8260778147015759e-01  9.8711783235532713e-01  9.8987019654987196e-01  9.8459591120511125e-01  9.7928652248720838e-01  9.8216945586097282e-01  9.8546435764666052e-01  9.8270811500621835e-01  -1.0737979852602045e-32  1.0618250629915171e-32  6.9074343432525651e-36  1.5875387529888476e-35  1.4141049055389338e-32  1.9420166403944508e-32  1.3507539165427594e-35  5.4122286739320437e-36  -4.7508196454618276e-32  -2.6653960693521954e-32  3.4270126586395116e-34  2.3954596600073808e-33  4.9092819438995204e-33  3.4959594909322033e-33  2.5079855223097321e-31  1.0350655630388527e-31  -3.5387863032469249e-31  4.0969459676476198e-32  -4.0947181576001881e-31  -4.5722207178679401e-31  -7.5470937547428873e-32  -2.3080847268883561e-31  -1.0151144872927568e-31  -2.3265029948113903e-31  -1.3898083397312838e-31  -1.4019360900687789e-31  -1.3121617980111368e-29  -8.5794849119059482e-30  -1.4838454201537048e-30  -5.5267263691750821e-30  3.2469489421101249e-31  -1.5479036403504267e-31  -9.9417332158994655e-38  1.6641897027818430e-37  1.4728611482980328e-37  -1.4736300323227175e-37  3.0661264484093414e-34  3.0730997668730013e-34  2.1751538697939436e-34  2.7326992256249359e-34  1.1895634008809920e-29  3.8639018010949622e-31  1.1140146877304871e-31  7.9881891818429417e-29  6.9082279876154760e-37  5.9541886317668304e-37  8.0711517741731951e-37  -2.0901636868328857e-39  -1.5995204065891520e-39  -2.1381931155912838e-39  -6.2765414841489744e-40  6.6868356297250073e-38  6.3785375604619694e-41  -1.0065971038945008e-38  -1.2632555648140807e-39  -3.1618959693710039e-41  -1.0897419455011818e-38  7.5943540454082521e-41  -5.0641464536722195e-39  -5.5701898956618631e-41  -2.5205260803744797e-41  -2.7531894945935195e-41  -2.8554594183739005e-41  -1.2092826077478459e-42  -8.4783609404016710e-43  1.9928583069858558e-42  2.2998620742054902e-42  -2.8529041213379265e-41  8.9447591161118664e-29  1.6389333638822571e-32  5.2211608373828033e-32  8.5734156549633565e-29  2.5901551957664056e-31  3.6670932396936777e-32  1.7703726716521896e-30  1.0573673038022934e-30  3.4016186913828581e-32  1.0109376667609737e-31  4.7597398542848916e-32  -5.0170693893742475e-31  -1.6355499958894783e-31  -1.6919532028289211e-33  1.2373944030480471e-30  1.8034922898855336e-30  5.9559033022751641e-33  1.4495282026478885e-31  -1.3142221001972021e-31  6.4386772617840518e-32  -1.0939503267620836e-31  -1.1912364058659027e-31  -2.9618998894115932e-34  -2.7751082090624275e-34  -1.5099502299687711e-32  -6.0454472273884206e-33  1.1312758388484846e-34  1.3899865258249710e-34  1.7110724394890763e-36  1.6124615396711540e-34  2.0188063407960812e-33  -9.2276475895699894e-37  8.6160756333000573e-34  -2.7532439871795599e-37  1.5157122392857255e-36  2.0086128230215911e-33  7.4054006725094751e-44  3.6869340366755827e-43  -9.1782797454159966e-44  -2.7153651516210797e-44  -5.1582011464973379e-44  2.4056212781549387e-44  1.1073078883523176e-43  1.2141192589738990e-43  4.6014495813269275e-29  6.5348179795247048e-31  3.9445960892754072e-31  8.2524666408035990e-29  3.0648110108498466e-33  -3.5726195650287701e-35  -5.7408234993518665e-35  -4.0210440217786275e-33  9.5555856935276835e-36  1.0471765264915072e-32  7.5445211941748868e-33  2.7072892781515338e-35  -2.8442812478002089e-38  -6.0861469537606849e-35  -2.5156632305499132e-35  -2.1498671797137270e-38  -2.4498784269302834e-38  1.1983302718605756e-36  -3.1894202377560487e-35  -8.1648234273416876e-39  -4.2089929455627778e-41  -5.5117628127895090e-42  -7.6965500733363183e-38  -4.4225077612067070e-40  -2.0824101641617028e-38  -2.3826133281961867e-40  5.7658460290530434e-40  -1.2061732852054390e-41  -3.7322955509257245e-38  -3.7095421644996166e-40  -1.1544438875052366e-40  -6.3104236387103566e-42  5.4838944514167253e-40  -8.8868072409885698e-42  -1.0518709901413808e-38  -2.5801617210872318e-40  -3.7519904417749575e-44  2.0269090443948754e-44  -1.8180750556534113e-44  -4.5188472641307613e-44  2.7614319713458234e-29  -1.5666702560942407e-28  -1.8559384623395427e-28  7.0366555990359559e-28  5.8287580334584757e-28  -2.6492691460083541e-27  -1.4059086025123014e-27  8.2373843554220564e-27  1.8458427627822736e-27  -1.9583732080386345e-26  4.3912342895811081e-27  2.4150842326356598e-26  -4.3458538920901295e-26  6.8994836199173267e-26  1.9515839092053448e-25  -6.3321428250826583e-25  -6.3029013042819171e-25  2.7694922356421941e-24  1.5289660992389308e-24  -8.7470407865960374e-24  -2.4373781786079037e-24  -9.2114356737388049e-24  2.0626608093606106e-23  1.5368321102599390e-25  -3.0992861212768345e-23  1.5136662732466663e-23  -7.6915997984330178e-24  -5.7147300175549659e-23  2.2067535604241320e-22  1.1064884357484215e-22  -7.5855091484937068e-22  -2.1152662206986385e-23  -2.2994014743185721e-22  1.3205372694376260e-21  -6.9433145064899652e-22  4.2224686208202871e-22  2.6430322909271626e-21  -1.0707561727633436e-20  -4.4585515926794027e-21  3.5358361134307976e-20  -3.3681007747952730e-21  -4.8001932336047630e-20  4.4090019148065027e-20  -1.6067817679041510e-19  -9.0491537326110641e-20  -1.2467885097368911e-19  6.7028206900769369e-19  8.2756030708863153e-20  2.9996447141479388e-20  -1.6106014485958989e-19  6.2692644088335240e-19  1.8565976348471872e-19  1.9833143724558858e-20  -1.8107078536869082e-19  2.6427310355479048e-20  2.7778818015613122e-20  1.6002431501263327e-19  -1.8159310280572995e-19  2.2499729706443302e-20  4.5828490463957779e-20  -1.3922197548021614e-20  1.0809643955137605e-20  -1.3507084305897404e-19  4.7777001891610645e-20  -1.1271510974764724e-20  2.9266629466519367e-21  -9.9079845639055991e-20  5.1468155513444861e-20  -9.0738882988629765e-21  -6.9865250407210342e-21  -4.5196361168179076e-20  4.6173741930327479e-20  -2.3712421130758129e-19  3.5521413767083034e-21  3.3738384200785376e-20  1.5262283609348494e-19  -1.6461569375980014e-19  8.2845699201900145e-19  -1.0337476082092334e-19  -8.9266164516821255e-19  8.7143431067659669e-19  -5.5169956412569626e-18  -8.0659991112658975e-20  1.7784437287151622e-18  -4.9873531247086446e-18  -2.8768012985257000e-19  1.0703297879676903e-17  -6.2514274557376211e-18  3.5119717294319612e-17  -1.1400221701667203e-17  4.3331467151212535e-17  -9.4465388127253509e-18  2.1745749182389398e-17  -1.6633876775999875e-18  -6.0610403632985478e-18  3.0472623575109938e-18  -1.9174159289036808e-18  -2.6495247935894212e-01  2.5489814067313696e-18  -4.7511420567923464e-18  -2.1654946778355883e-18  2.3061271473406812e-17  -3.0454848672375895e-01  -9.2348084702353467e-18  3.9558621616373262e-17  -2.4609481476620140e-01  -9.5097803939515422e-18  2.5549995107034794e-17  -1.3446938757632950e-16  -4.6542145264561122e-17  1.3832281782852756e-18  2.3551249765144092e-17  -1.6097985480215911e-16  2.7703953471283298e-18  -8.8757864104591718e-18  3.0026258048988697e-17  -1.2590970734328020e-16  -7.2714604317142943e-17  9.5865332031719765e-18  -7.0880757504419554e-18  1.2001486860169604e-16  -2.0929369271671127e-17  7.9171424724271244e-18  -1.8342411356625099e-17  9.9793430360067673e-17  1.9790548519302448e-17  1.4028681178350472e-18  -1.3146314466840687e-17  2.8043035013571400e-17  2.7104822123057472e-17  8.0237722277151692e-20  -2.0577171586357875e-17  2.6973816415623696e-17  7.0855502272363132e-17  -6.6084082244178922e-18  -2.2645492368905455e-17  -4.1221484802583409e-17  1.2013542051931468e-16  -5.0998812241917072e-16  -1.0599676621943634e-16  -2.4859650772190336e-17  1.5955699884180943e-16  -6.9902824385287768e-16  -6.6701888415648464e-17  -3.9709866203580548e-17  1.6687328146783730e-16  -9.2866393054904469e-16  1.1425237391702409e-16  8.9716237776036190e-16  -8.5574832580368090e-16  4.2172613415673601e-15  -4.7851187328356057e-16  2.7782609069637282e-16  -3.4924636645894773e-16  3.2915567099199069e-15  -1.2250530371627512e-15  4.2393352160841418e-15  -3.4279044857038358e-16  -1.7213293907700227e-15  6.3446996297492339e-16  2.0274026992090309e-15  -3.8633720435397442e-15  2.2656863358919386e-16  2.2705259316644237e-15  -1.3195628605295519e-14  4.4782037327391390e-15  -1.8526309861678399e-14  4.8790864955921577e-15  -1.7122641044614377e-14  4.4996188141762783e-15  -1.7813051076877046e-14  5.6855656298783362e-15  -2.5457452042783645e-14  7.9257337335122585e-15  -3.1908928890981250e-14  8.3664865921410882e-15  -2.7564090528769413e-14  5.6971109567705035e-15  -1.3613638879880385e-14  1.6955946593004732e-15  -3.4837939930432744e-16  -8.3036799728790191e-16  4.3244524522757255e-15  -9.5531161832136892e-16  1.8872536449731635e-15  -1.0590399433786834e-16  -6.1902988549185028e-16  1.4616929025999270e-16  -3.5883111929946150e-17  -1.0862537566560677e-17  1.4574933708850628e-17  -1.9693441028613092e-18  -3.0354682437400431e-18  9.9298001592802417e-19  3.6874653502851924e-19  -2.2731323941448059e-19  1.7685283023471147e-21  -2.2503884157644165e-19  3.1784925889014508e-20  -1.2411750323134443e-15  5.4988131462387816e-20  -8.2273519842783775e-20  -2.1690139167379574e-21  5.6220799671257007e-20  -1.1591620799798487e-20  8.1035930734350304e-21  2.5774959507687404e-21  -1.