<?xml version="1.0"?>
<VTKFile type="UnstructuredGrid"  version="0.1"  >
<UnstructuredGrid>
<Piece  NumberOfPoints="11902" NumberOfCells="23402">
<Points>
<DataArray  type="Float64"  NumberOfComponents="3"  format="ascii">-5 -5 0  5 -5 0  5 5 0  -5 5 0  1.257508731668384 0.001346909889388629 0  -4.9 -5 0  -4.8 -5 0  -4.7 -5 0  -4.6 -5 0  -4.5 -5 0  -4.4 -5 0  -4.3 -5 0  -4.2 -5 0  -4.1 -5 0  -4 -5 0  -3.9 -5 0  -3.8 -5 0  -3.7 -5 0  -3.6 -5 0  -3.5 -5 0  -3.4 -5 0  -3.3 -5 0  -3.2 -5 0  -3.1 -5 0  -3 -5 0  -2.9 -5 0  -2.8 -5 0  -2.7 -5 0  -2.6 -5 0  -2.5 -5 0  -2.4 -5 0  -2.3 -5 0  -2.2 -5 0  -2.1 -5 0  -2 -5 0  -1.9 -5 0  -1.8 -5 0  -1.7 -5 0  -1.6 -5 0  -1.5 -5 0  -1.4 -5 0  -1.3 -5 0  -1.2 -5 0  -1.1 -5 0  -1 -5 0  -0.9000000000000004 -5 0  -0.7999999999999998 -5 0  -0.7000000000000002 -5 0  -0.5999999999999996 -5 0  -0.5 -5 0  -0.4000000000000004 -5 0  -0.2999999999999998 -5 0  -0.2000000000000002 -5 0  -0.09999999999999964 -5 0  0 -5 0  0.09999999999999964 -5 0  0.2000000000000002 -5 0  0.2999999999999998 -5 0  0.4000000000000004 -5 0  0.5 -5 0  0.5999999999999996 -5 0  0.7000000000000002 -5 0  0.7999999999999998 -5 0  0.9000000000000004 -5 0  1 -5 0  1.1 -5 0  1.2 -5 0  1.3 -5 0  1.4 -5 0  1.5 -5 0  1.6 -5 0  1.7 -5 0  1.8 -5 0  1.9 -5 0  2 -5 0  2.1 -5 0  2.2 -5 0  2.3 -5 0  2.4 -5 0  2.5 -5 0  2.6 -5 0  2.7 -5 0  2.8 -5 0  2.9 -5 0  3 -5 0  3.1 -5 0  3.199999999999999 -5 0  3.300000000000001 -5 0  3.4 -5 0  3.5 -5 0  3.6 -5 0  3.699999999999999 -5 0  3.800000000000001 -5 0  3.9 -5 0  4 -5 0  4.1 -5 0  4.199999999999999 -5 0  4.300000000000001 -5 0  4.4 -5 0  4.5 -5 0  4.6 -5 0  4.699999999999999 -5 0  4.800000000000001 -5 0  4.9 -5 0  5 -4.9 0  5 -4.8 0  5 -4.7 0  5 -4.6 0  5 -4.5 0  5 -4.4 0  5 -4.3 0  5 -4.2 0  5 -4.1 0  5 -4 0  5 -3.9 0  5 -3.8 0  5 -3.7 0  5 -3.6 0  5 -3.5 0  5 -3.4 0  5 -3.3 0  5 -3.2 0  5 -3.1 0  5 -3 0  5 -2.9 0  5 -2.8 0  5 -2.7 0  5 -2.6 0  5 -2.5 0  5 -2.4 0  5 -2.3 0  5 -2.2 0  5 -2.1 0  5 -2 0  5 -1.9 0  5 -1.8 0  5 -1.7 0  5 -1.6 0  5 -1.5 0  5 -1.4 0  5 -1.3 0  5 -1.2 0  5 -1.1 0  5 -1 0  5 -0.9000000000000004 0  5 -0.7999999999999998 0  5 -0.7000000000000002 0  5 -0.5999999999999996 0  5 -0.5 0  5 -0.4000000000000004 0  5 -0.2999999999999998 0  5 -0.2000000000000002 0  5 -0.09999999999999964 0  5 0 0  5 0.09999999999999964 0  5 0.2000000000000002 0  5 0.2999999999999998 0  5 0.4000000000000004 0  5 0.5 0  5 0.5999999999999996 0  5 0.7000000000000002 0  5 0.7999999999999998 0  5 0.9000000000000004 0  5 1 0  5 1.1 0  5 1.2 0  5 1.3 0  5 1.4 0  5 1.5 0  5 1.6 0  5 1.7 0  5 1.8 0  5 1.9 0  5 2 0  5 2.1 0  5 2.2 0  5 2.3 0  5 2.4 0  5 2.5 0  5 2.6 0  5 2.7 0  5 2.8 0  5 2.9 0  5 3 0  5 3.1 0  5 3.199999999999999 0  5 3.300000000000001 0  5 3.4 0  5 3.5 0  5 3.6 0  5 3.699999999999999 0  5 3.800000000000001 0  5 3.9 0  5 4 0  5 4.1 0  5 4.199999999999999 0  5 4.300000000000001 0  5 4.4 0  5 4.5 0  5 4.6 0  5 4.699999999999999 0  5 4.800000000000001 0  5 4.9 0  4.9 5 0  4.8 5 0  4.7 5 0  4.6 5 0  4.5 5 0  4.4 5 0  4.3 5 0  4.2 5 0  4.1 5 0  4 5 0  3.9 5 0  3.8 5 0  3.7 5 0  3.6 5 0  3.5 5 0  3.4 5 0  3.3 5 0  3.2 5 0  3.1 5 0  3 5 0  2.9 5 0  2.8 5 0  2.7 5 0  2.6 5 0  2.5 5 0  2.4 5 0  2.3 5 0  2.2 5 0  2.1 5 0  2 5 0  1.9 5 0  1.8 5 0  1.7 5 0  1.6 5 0  1.5 5 0  1.4 5 0  1.3 5 0  1.2 5 0  1.1 5 0  1 5 0  0.9000000000000004 5 0  0.7999999999999998 5 0  0.7000000000000002 5 0  0.5999999999999996 5 0  0.5 5 0  0.4000000000000004 5 0  0.2999999999999998 5 0  0.2000000000000002 5 0  0.09999999999999964 5 0  0 5 0  -0.09999999999999964 5 0  -0.2000000000000002 5 0  -0.2999999999999998 5 0  -0.4000000000000004 5 0  -0.5 5 0  -0.5999999999999996 5 0  -0.7000000000000002 5 0  -0.7999999999999998 5 0  -0.9000000000000004 5 0  -1 5 0  -1.1 5 0  -1.2 5 0  -1.3 5 0  -1.4 5 0  -1.5 5 0  -1.6 5 0  -1.7 5 0  -1.8 5 0  -1.9 5 0  -2 5 0  -2.1 5 0  -2.2 5 0  -2.3 5 0  -2.4 5 0  -2.5 5 0  -2.6 5 0  -2.7 5 0  -2.8 5 0  -2.9 5 0  -3 5 0  -3.1 5 0  -3.199999999999999 5 0  -3.300000000000001 5 0  -3.4 5 0  -3.5 5 0  -3.6 5 0  -3.699999999999999 5 0  -3.800000000000001 5 0  -3.9 5 0  -4 5 0  -4.1 5 0  -4.199999999999999 5 0  -4.300000000000001 5 0  -4.4 5 0  -4.5 5 0  -4.6 5 0  -4.699999999999999 5 0  -4.800000000000001 5 0  -4.9 5 0  -5 4.9 0  -5 4.8 0  -5 4.7 0  -5 4.6 0  -5 4.5 0  -5 4.4 0  -5 4.3 0  -5 4.2 0  -5 4.1 0  -5 4 0  -5 3.9 0  -5 3.8 0  -5 3.7 0  -5 3.6 0  -5 3.5 0  -5 3.4 0  -5 3.3 0  -5 3.2 0  -5 3.1 0  -5 3 0  -5 2.9 0  -5 2.8 0  -5 2.7 0  -5 2.6 0  -5 2.5 0  -5 2.4 0  -5 2.3 0  -5 2.2 0  -5 2.1 0  -5 2 0  -5 1.9 0  -5 1.8 0  -5 1.7 0  -5 1.6 0  -5 1.5 0  -5 1.4 0  -5 1.3 0  -5 1.2 0  -5 1.1 0  -5 1 0  -5 0.9000000000000004 0  -5 0.7999999999999998 0  -5 0.7000000000000002 0  -5 0.5999999999999996 0  -5 0.5 0  -5 0.4000000000000004 0  -5 0.2999999999999998 0  -5 0.2000000000000002 0  -5 0.09999999999999964 0  -5 0 0  -5 -0.09999999999999964 0  -5 -0.2000000000000002 0  -5 -0.2999999999999998 0  -5 -0.4000000000000004 0  -5 -0.5 0  -5 -0.5999999999999996 0  -5 -0.7000000000000002 0  -5 -0.7999999999999998 0  -5 -0.9000000000000004 0  -5 -1 0  -5 -1.1 0  -5 -1.2 0  -5 -1.3 0  -5 -1.4 0  -5 -1.5 0  -5 -1.6 0  -5 -1.7 0  -5 -1.8 0  -5 -1.9 0  -5 -2 0  -5 -2.1 0  -5 -2.2 0  -5 -2.3 0  -5 -2.4 0  -5 -2.5 0  -5 -2.6 0  -5 -2.7 0  -5 -2.8 0  -5 -2.9 0  -5 -3 0  -5 -3.1 0  -5 -3.199999999999999 0  -5 -3.300000000000001 0  -5 -3.4 0  -5 -3.5 0  -5 -3.6 0  -5 -3.699999999999999 0  -5 -3.800000000000001 0  -5 -3.9 0  -5 -4 0  -5 -4.1 0  -5 -4.199999999999999 0  -5 -4.300000000000001 0  -5 -4.4 0  -5 -4.5 0  -5 -4.6 0  -5 -4.699999999999999 0  -5 -4.800000000000001 0  -5 -4.9 0  1.24947147817299 0.094996808855091 0  1.227906967783853 0.1925240431250923 0  1.194510404570984 0.2890226963445137 0  1.151678669279272 0.3778369040114915 0  1.093904782983351 0.4686287046956147 0  1.028268834197246 0.552985418732669 0  0.9500815896772439 0.63291780505824 0  0.863432354500309 0.7074598884757397 0  0.7716901525859232 0.7728818319284986 0  0.6693653080153495 0.8302492730376069 0  0.5577937814110288 0.8825325500856155 0  0.4454191224286349 0.9268249882537595 0  0.3329279498016121 0.9590933704370088 0  0.2086705410208381 0.9806614248841404 0  0.0890524867900562 0.9995163739481585 0  -0.02716412034079397 1.002788974638778 0  -0.1448953220755409 0.9891261443244658 0  -0.2717646338403839 0.9702570423099889 0  -0.3909120850030501 0.9459634296611804 0  -0.5016554177256133 0.9098881829497421 0  -0.6109027997548028 0.8634386788446329 0  -0.7130682521660251 0.8088447632567469 0  -0.8077014288909269 0.7440106703533479 0  -0.8985484522793314 0.6706666834606457 0  -0.9838809814377051 0.5910290960423152 0  -1.057953688359253 0.5099414797398845 0  -1.119679695733752 0.4245014445410688 0  -1.172655552714033 0.3323248543784862 0  -1.210628794107837 0.2427912939297849 0  -1.235119137496758 0.148543488954264 0  -1.24630508731586 0.05146486732684567 0  -1.246256025608742 -0.04936640546876735 0  -1.235089264655367 -0.1456867936678926 0  -1.210303461276667 -0.2383468209012819 0  -1.16912371849696 -0.3331475395138568 0  -1.120014147625666 -0.4248178511760456 0  -1.059595522213623 -0.5097556616169924 0  -0.9862882488153613 -0.590002801316361 0  -0.9015851180827907 -0.6685062526870152 0  -0.8112031429308455 -0.7400904431931015 0  -0.7152543856795357 -0.8011114954339262 0  -0.6106192197779756 -0.854212230655334 0  -0.4970819875789995 -0.9036657644977614 0  -0.3842419304035668 -0.9433929465934526 0  -0.2684881910076828 -0.9699143868502536 0  -0.1434432900645345 -0.9889044726758472 0  -0.02792584825572945 -1.001992934519379 0  0.08847869357528795 -0.9948001079418138 0  0.2139616253738679 -0.9773367406748278 0  0.335436940774916 -0.9575195330823327 0  0.4495570483415619 -0.9255000015121808 0  0.5601628887473206 -0.8817250308725174 0  0.6703048041798627 -0.8303126698533402 0  0.7716526500028968 -0.7740029546132595 0  0.8635262412349374 -0.7084740148572636 0  0.9492293754446125 -0.6330086246879401 0  1.025661162092574 -0.5520088420961669 0  1.094593844445657 -0.4675518624688352 0  1.152530381064719 -0.3781401320674601 0  1.196260901977466 -0.2870198071690065 0  1.228569812815878 -0.1916571358457042 0  1.249806211073104 -0.0947447632774291 0  -2.448559830199346 4.918111215471754 0  -2.448433863655419 -4.910489276926174 0  4.910413507533316 2.447890092504671 0  4.918540561213103 -2.449352046768265 0  2.44616326853524 -4.895719964585041 0  2.440596888027053 4.899482870863767 0  -4.910440555232824 -2.447916492803793 0  -4.910437834645143 2.447920417566734 0  -1.748513853600788 4.910997959740951 0  -1.744300581281513 -4.914439689456223 0  4.920588076928046 1.744065342478997 0  4.909115379246725 -1.74782575891525 0  -4.909409701232922 -1.747560074570198 0  -4.910232376026827 1.747305007566357 0  1.745786567712143 4.904853137995729 0  1.747199296111023 -4.892995308465402 0  -1.148825149812975 4.908777937130495 0  -1.129683237666912 -4.916696917982358 0  -4.909116996756919 -1.147889593929931 0  -4.908935170518406 1.147690012680493 0  1.143820813952146 -4.912879302354442 0  1.148835112832626 4.908764543954092 0  4.909256617379549 1.146164805580114 0  4.920097226333189 -1.151951211851878 0  -0.54666038912169 -4.909964644418608 0  -0.5464438558923994 4.918655152006587 0  -4.907841229162605 -0.5486872526563208 0  -4.907865190253196 0.5472450610725041 0  4.907159325144222 -0.5490053198748454 0  4.918828241912281 0.5457654520824482 0  0.5424418850020716 -4.896832787199485 0  0.5511723108595622 4.915475538511294 0  -4.911871882167566 -3.048275593988738 0  4.918444334216447 3.046292946637589 0  4.911379466841649 -3.048251064755598 0  -4.912719818287536 3.045367329927342 0  3.055286197779502 -4.917367135190052 0  -3.04861595639745 -4.911301568617873 0  3.052183560169885 4.913379799829974 0  -3.048061696625132 4.912191565495719 0  -4.906946210583937 -0.04990564769561195 0  0.0451192612240844 -4.911914295556358 0  0.04956683036396427 4.918946896196934 0  4.914008452135052 -0.0512878713357933 0  3.545607793224233 -4.919015916905689 0  -3.548887285854065 4.
[...]
<PointData  Scalars="f_27"> 
<DataArray  type="Float64"  Name="f_27"  format="ascii">0.0000000000000000e+00  0.0000000000000000e+00  0.0000000000000000e+00  0.0000000000000000e+00  9.7426013322598881e-01  0.0000000000000000e+00  0.0000000000000000e+00  0.0000000000000000e+00  0.0000000000000000e+00  0.0000000000000000e+00  0.0000000000000000e+00  0.0000000000000000e+00  0.0000000000000000e+00  0.0000000000000000e+00  0.0000000000000000e+00  0.0000000000000000e+00  0.0000000000000000e+00  0.0000000000000000e+00  0.0000000000000000e+00  0.0000000000000000e+00  0.0000000000000000e+00  0.0000000000000000e+00  0.0000000000000000e+00  0.0000000000000000e+00  0.0000000000000000e+00  0.0000000000000000e+00  0.0000000000000000e+00  0.0000000000000000e+00  0.0000000000000000e+00  0.0000000000000000e+00  0.0000000000000000e+00  0.0000000000000000e+00  0.0000000000000000e+00  0.0000000000000000e+00  0.0000000000000000e+00  0.0000000000000000e+00  0.0000000000000000e+00  0.0000000000000000e+00  0.0000000000000000e+00  0.0000000000000000e+00  0.0000000000000000e+00  0.0000000000000000e+00  0.0000000000000000e+00  0.0000000000000000e+00  0.0000000000000000e+00  0.0000000000000000e+00  0.0000000000000000e+00  0.0000000000000000e+00  0.0000000000000000e+00  0.0000000000000000e+00  0.0000000000000000e+00  0.0000000000000000e+00  0.0000000000000000e+00  0.0000000000000000e+00  0.0000000000000000e+00  0.0000000000000000e+00  0.0000000000000000e+00  0.0000000000000000e+00  0.0000000000000000e+00  0.0000000000000000e+00  0.0000000000000000e+00  0.0000000000000000e+00  0.0000000000000000e+00  0.0000000000000000e+00  0.0000000000000000e+00  0.0000000000000000e+00  0.0000000000000000e+00  0.0000000000000000e+00  0.0000000000000000e+00  0.0000000000000000e+00  0.0000000000000000e+00  0.0000000000000000e+00  0.0000000000000000e+00  0.0000000000000000e+00  0.0000000000000000e+00  0.0000000000000000e+00  0.0000000000000000e+00  0.0000000000000000e+00  0.0000000000000000e+00  0.0000000000000000e+00  0.0000000000000000e+00  0.0000000000000000e+00  0.0000000000000000e+00  0.0000000000000000e+00  0.0000000000000000e+00  0.0000000000000000e+00  0.0000000000000000e+00  0.0000000000000000e+00  0.0000000000000000e+00  0.0000000000000000e+00  0.0000000000000000e+00  0.0000000000000000e+00  0.0000000000000000e+00  0.0000000000000000e+00  0.0000000000000000e+00  0.0000000000000000e+00  0.0000000000000000e+00  0.0000000000000000e+00  0.0000000000000000e+00  0.0000000000000000e+00  0.0000000000000000e+00  0.0000000000000000e+00  0.0000000000000000e+00  0.0000000000000000e+00  0.0000000000000000e+00  0.0000000000000000e+00  0.0000000000000000e+00  0.0000000000000000e+00  0.0000000000000000e+00  0.0000000000000000e+00  0.0000000000000000e+00  0.0000000000000000e+00  0.0000000000000000e+00  0.0000000000000000e+00  0.0000000000000000e+00  0.0000000000000000e+00  0.0000000000000000e+00  0.0000000000000000e+00  0.0000000000000000e+00  0.0000000000000000e+00  0.0000000000000000e+00  0.0000000000000000e+00  0.0000000000000000e+00  0.0000000000000000e+00  0.0000000000000000e+00  0.0000000000000000e+00  0.0000000000000000e+00  0.0000000000000000e+00  0.0000000000000000e+00  0.0000000000000000e+00  0.0000000000000000e+00  0.0000000000000000e+00  0.0000000000000000e+00  0.0000000000000000e+00  0.0000000000000000e+00  0.0000000000000000e+00  0.0000000000000000e+00  0.0000000000000000e+00  0.0000000000000000e+00  0.0000000000000000e+00  0.0000000000000000e+00  0.0000000000000000e+00  0.0000000000000000e+00  0.0000000000000000e+00  0.0000000000000000e+00  0.0000000000000000e+00  0.0000000000000000e+00  0.0000000000000000e+00  0.0000000000000000e+00  0.0000000000000000e+00  0.0000000000000000e+00  0.0000000000000000e+00  0.0000000000000000e+00  0.0000000000000000e+00  0.0000000000000000e+00  0.0000000000000000e+00  0.0000000000000000e+00  0.0000000000000000e+00  0.0000000000000000e+00  0.0000000000000000e+00  0.0000000000000000e+00  0.0000000000000000e+00  0.0000000000000000e+00  0.0000000000000000e+00  0.0000000000000000e+00  0.0000000000000000e+00  0.0000000000000000e+00  0.0000000000000000e+00  0.0000000000000000e+00  0.0000000000000000e+00  0.0000000000000000e+00  0.0000000000000000e+00  0.0000000000000000e+00  0.0000000000000000e+00  0.0000000000000000e+00  0.0000000000000000e+00  0.0000000000000000e+00  0.0000000000000000e+00  0.0000000000000000e+00  0.0000000000000000e+00  0.0000000000000000e+00  0.0000000000000000e+00  0.0000000000000000e+00  0.0000000000000000e+00  0.0000000000000000e+00  0.0000000000000000e+00  0.0000000000000000e+00  0.0000000000000000e+00  0.0000000000000000e+00  0.0000000000000000e+00  0.0000000000000000e+00  0.0000000000000000e+00  0.0000000000000000e+00  0.0000000000000000e+00  0.0000000000000000e+00  0.0000000000000000e+00  0.0000000000000000e+00  0.0000000000000000e+00  0.0000000000000000e+00  0.0000000000000000e+00  0.0000000000000000e+00  0.0000000000000000e+00  0.0000000000000000e+00  0.0000000000000000e+00  0.0000000000000000e+00  0.0000000000000000e+00  0.0000000000000000e+00  0.0000000000000000e+00  0.0000000000000000e+00  0.0000000000000000e+00  0.0000000000000000e+00  0.0000000000000000e+00  0.0000000000000000e+00  0.0000000000000000e+00  0.0000000000000000e+00  0.0000000000000000e+00  0.0000000000000000e+00  0.0000000000000000e+00  0.0000000000000000e+00  0.0000000000000000e+00  0.0000000000000000e+00  0.0000000000000000e+00  0.0000000000000000e+00  0.0000000000000000e+00  0.0000000000000000e+00  0.0000000000000000e+00  0.0000000000000000e+00  0.0000000000000000e+00  0.0000000000000000e+00  0.0000000000000000e+00  0.0000000000000000e+00  0.0000000000000000e+00  0.0000000000000000e+00  0.0000000000000000e+00  0.0000000000000000e+00  0.0000000000000000e+00  0.0000000000000000e+00  0.0000000000000000e+00  0.0000000000000000e+00  0.0000000000000000e+00  0.0000000000000000e+00  0.0000000000000000e+00  0.0000000000000000e+00  0.0000000000000000e+00  0.0000000000000000e+00  0.0000000000000000e+00  0.0000000000000000e+00  0.0000000000000000e+00  0.0000000000000000e+00  0.0000000000000000e+00  0.0000000000000000e+00  0.0000000000000000e+00  0.0000000000000000e+00  0.0000000000000000e+00  0.0000000000000000e+00  0.0000000000000000e+00  0.0000000000000000e+00  0.0000000000000000e+00  0.0000000000000000e+00  0.0000000000000000e+00  0.0000000000000000e+00  0.0000000000000000e+00  0.0000000000000000e+00  0.0000000000000000e+00  0.0000000000000000e+00  0.0000000000000000e+00  0.0000000000000000e+00  0.0000000000000000e+00  0.0000000000000000e+00  0.0000000000000000e+00  0.0000000000000000e+00  0.0000000000000000e+00  0.0000000000000000e+00  0.0000000000000000e+00  0.0000000000000000e+00  0.0000000000000000e+00  0.0000000000000000e+00  0.0000000000000000e+00  0.0000000000000000e+00  0.0000000000000000e+00  0.0000000000000000e+00  0.0000000000000000e+00  0.0000000000000000e+00  0.0000000000000000e+00  0.0000000000000000e+00  0.0000000000000000e+00  0.0000000000000000e+00  0.0000000000000000e+00  0.0000000000000000e+00  0.0000000000000000e+00  0.0000000000000000e+00  0.0000000000000000e+00  0.0000000000000000e+00  0.0000000000000000e+00  0.0000000000000000e+00  0.0000000000000000e+00  0.0000000000000000e+00  0.0000000000000000e+00  0.0000000000000000e+00  0.0000000000000000e+00  0.0000000000000000e+00  0.0000000000000000e+00  0.0000000000000000e+00  0.0000000000000000e+00  0.0000000000000000e+00  0.0000000000000000e+00  0.0000000000000000e+00  0.0000000000000000e+00  0.0000000000000000e+00  0.0000000000000000e+00  0.0000000000000000e+00  0.0000000000000000e+00  0.0000000000000000e+00  0.0000000000000000e+00  0.0000000000000000e+00  0.0000000000000000e+00  0.0000000000000000e+00  0.0000000000000000e+00  0.0000000000000000e+00  0.0000000000000000e+00  0.0000000000000000e+00  0.0000000000000000e+00  0.0000000000000000e+00  0.0000000000000000e+00  0.0000000000000000e+00  0.0000000000000000e+00  0.0000000000000000e+00  0.0000000000000000e+00  0.0000000000000000e+00  0.0000000000000000e+00  0.0000000000000000e+00  0.0000000000000000e+00  0.0000000000000000e+00  0.0000000000000000e+00  0.0000000000000000e+00  0.0000000000000000e+00  0.0000000000000000e+00  0.0000000000000000e+00  0.0000000000000000e+00  0.0000000000000000e+00  0.0000000000000000e+00  0.0000000000000000e+00  0.0000000000000000e+00  0.0000000000000000e+00  0.0000000000000000e+00  0.0000000000000000e+00  0.0000000000000000e+00  0.0000000000000000e+00  0.0000000000000000e+00  0.0000000000000000e+00  0.0000000000000000e+00  0.0000000000000000e+00  0.0000000000000000e+00  0.0000000000000000e+00  0.0000000000000000e+00  0.0000000000000000e+00  0.0000000000000000e+00  0.0000000000000000e+00  0.0000000000000000e+00  0.0000000000000000e+00  0.0000000000000000e+00  0.0000000000000000e+00  0.0000000000000000e+00  0.0000000000000000e+00  0.0000000000000000e+00  0.0000000000000000e+00  0.0000000000000000e+00  0.0000000000000000e+00  0.0000000000000000e+00  0.0000000000000000e+00  0.0000000000000000e+00  0.0000000000000000e+00  0.0000000000000000e+00  0.0000000000000000e+00  0.0000000000000000e+00  0.0000000000000000e+00  0.0000000000000000e+00  0.0000000000000000e+00  0.0000000000000000e+00  0.0000000000000000e+00  0.0000000000000000e+00  0.0000000000000000e+00  0.0000000000000000e+00  0.0000000000000000e+00  0.0000000000000000e+00  0.0000000000000000e+00  0.0000000000000000e+00  0.0000000000000000e+00  0.0000000000000000e+00  0.0000000000000000e+00  0.0000000000000000e+00  0.0000000000000000e+00  0.0000000000000000e+00  0.0000000000000000e+00  0.0000000000000000e+00  0.0000000000000000e+00  0.0000000000000000e+00  0.0000000000000000e+00  0.0000000000000000e+00  0.0000000000000000e+00  0.0000000000000000e+00  9.7477955379102210e-01  9.7943882232780699e-01  9.8248692724665043e-01  9.8420893489747829e-01  9.8206513780308446e-01  9.7297799310694000e-01  9.7790626111381196e-01  9.8058318299577141e-01  9.7723171977695134e-01  9.7656451051529658e-01  9.7910643015720344e-01  9.7455475063381336e-01  9.7014871790684543e-01  9.8212138664498239e-01  9.7572748659642883e-01  9.7321044323131511e-01  9.8312289476031312e-01  9.8360380986022156e-01  9.7233610198304721e-01  9.7837737210850440e-01  9.7778001284287708e-01  9.7659368115370460e-01  9.7748270993426123e-01  9.7805861257917703e-01  9.7978072863245136e-01  9.7912620739703338e-01  9.7954486536834517e-01  9.8053602523718075e-01  9.7969302277171022e-01  9.7994935005749328e-01  9.8141015197426795e-01  9.7951730178508489e-01  9.7661556528094384e-01  9.7366155183395409e-01  9.7883874357933587e-01  9.7540423565697110e-01  9.7731518271148576e-01  9.7739651867802069e-01  9.7842633279846181e-01  9.7648988410696913e-01  9.8062687135827642e-01  9.7512758715245917e-01  9.8025317457014149e-01  9.6990615014474557e-01  9.8048998199360460e-01  9.7997638625010619e-01  9.5400592406035734e-01  9.7670290898508894e-01  9.8058022147250901e-01  9.7343697391024298e-01  9.7587000531696877e-01  9.8221708795414209e-01  9.7953317405767304e-01  9.6864342169878181e-01  9.7704783102689108e-01  9.8069398086526949e-01  9.8002057127637554e-01  9.8008680451323349e-01  9.7089120389529426e-01  9.7543692511027635e-01  9.7769635224303220e-01  9.7602346906253867e-01  -1.6095514906046211e-32  1.8428683347349394e-32  2.0918061143461067e-35  4.8123622212780787e-35  2.6006568151456667e-32  3.9414944919848790e-32  8.5509484395710606e-36  3.4323276069473149e-36  -8.2178990461358584e-32  -4.1948275418731975e-32  3.7439134533592371e-33  9.4964351699055209e-33  6.9084227157313836e-33  7.6160247519348562e-33  4.8526454529868374e-31  2.5818330366204212e-31  -6.8959420193959414e-31  2.8205451797180220e-33  -8.9571110911954562e-31  -1.1948044445444286e-30  -2.0975170598701642e-31  -3.6324778106467697e-31  -3.6513694025165857e-31  -6.9819430677037956e-31  -2.7663654106214015e-31  -3.3941656678667475e-31  -2.4928087426455249e-29  -9.8218775010437996e-30  -1.1691359432502032e-30  -1.8736341096226795e-29  8.8007737618060897e-31  -3.2946730158273164e-31  -3.8553124357384454e-37  3.2809865990657925e-37  2.9883952570446797e-37  -4.0609290419068439e-37  4.4839379448390625e-34  2.5298303442987419e-34  3.1946159926033975e-34  3.1273822197205723e-34  -7.9004458045759557e-29  9.4763086743254329e-31  6.7300410692600458e-32  1.7037440215227571e-28  1.1962600700280463e-36  9.7894174002817808e-37  1.3895668786502426e-36  -3.6449417699417386e-39  -1.2364131652071484e-39  -4.4646455031414207e-39  1.2231897114683554e-40  8.5186708934994592e-38  1.1102433568628898e-40  -1.6152507399140380e-38  -8.6258869338076854e-40  -1.0681636361868645e-40  -1.7498263398461540e-38  1.3059541604501071e-40  -7.8681226936547758e-39  -1.4955871377437783e-40  -4.6754072322129093e-41  -4.9923779302478596e-41  -4.8298814675995322e-41  -2.1056770043292614e-42  -1.2594821625817926e-42  4.1878741252948709e-42  5.0584334011859544e-42  -4.5593506576582841e-41  1.5055299287656054e-28  3.0705926165497456e-31  -5.5218782699572456e-32  1.6015836179507770e-28  4.5843173379803517e-31  1.4591064149940503e-31  2.4860167910878926e-30  2.0473312482976401e-30  1.5775734103963900e-31  2.3963879088371181e-31  -1.4040731813557423e-31  -1.0596267156710233e-30  -2.8356288534902351e-31  -3.8775468594451100e-32  3.7193834826382998e-30  4.9954492024545339e-30  -2.6474957595659982e-32  2.6345336647856959e-31  -5.3719065969847678e-33  9.8627718137456800e-32  -1.9856918242904973e-31  -2.1721998680850544e-31  -1.4625669401418665e-33  -1.3547700511300164e-33  -4.1170618367752724e-32  -3.6092554382334095e-32  7.2925066316172792e-34  8.3226048460418887e-34  4.2285933061016628e-36  -1.1124592700281512e-33  4.2145155484496399e-33  -3.2984370930965467e-36  9.1411807805540960e-34  -3.0195589808095005e-36  3.4607147740777731e-36  3.6754310907520538e-33  1.7480273572399001e-43  7.7078549866806629e-43  -1.7021197981314406e-43  -1.7290597800108384e-43  -1.0917928536371210e-43  -3.9471989381004886e-44  2.7245290938437968e-43  2.1829152720171463e-43  4.4419106355190702e-29  1.6368341043102375e-30  6.5941223624979913e-31  1.9166290259907853e-28  2.8821196434605220e-33  -1.5427922173300675e-34  -2.2089771229300109e-34  -2.3059017290801029e-33  1.7472865136984869e-34  1.9255122282201524e-32  2.7954515464718578e-32  1.6298638337987084e-34  -6.1550577715368673e-38  -8.4268312874397285e-35  -3.5188519198363354e-35  -1.7276241651349810e-38  -4.3787736832425834e-38  5.9503508059978103e-36  -4.9577861323061340e-35  -1.4412895628249161e-39  8.6733216078649181e-41  -1.4230498849536436e-41  -1.4049080425646858e-37  -6.7799952256769032e-40  -1.6516770765582384e-38  -4.4318160903640704e-40  1.1025780745906957e-39  -1.7111362825401508e-41  -6.4737490206035450e-38  -5.8680769786813703e-40  -1.8535532510252906e-40  -1.1652974111480805e-41  1.0476771503777187e-39  -1.1516067969769119e-41  -2.4804619715817590e-38  -4.0051176542484005e-40  -7.3062752789106038e-44  4.1878697151560853e-44  -2.5746131513869095e-44  -9.9570732439913237e-44  -2.1378335440849041e-29  -6.7299221343400945e-29  -2.3026083735137837e-28  6.9553471195155580e-28  7.9677827404819546e-28  -3.3200591622432485e-27  -1.9532023434697258e-27  1.1282651153045501e-26  2.1424537960309043e-27  -2.7134005605166191e-26  9.9258649900066014e-27  2.7061591653275146e-26  -8.1293124319672506e-26  1.5141210565231309e-25  3.5976117624088485e-25  -1.1765029240161793e-24  -1.1874017502771340e-24  5.0951497686534045e-24  3.0347197659291970e-24  -1.6555556806780475e-23  -5.3860643914408905e-24  -1.6980772125296601e-23  4.1535804056985164e-23  2.0361329235606474e-24  -7.1217075472458423e-23  3.1462077249110149e-23  1.0975629597101429e-23  -1.4971839996668160e-22  4.7318598261305047e-22  3.9762644590961284e-22  -2.1014052098367171e-21  -5.2757870881699717e-22  -7.3859497582876322e-23  5.3078016510374070e-21  -8.7638535527810334e-22  -5.7160826200374880e-21  7.2494766798343159e-21  -1.7259523362490323e-20  -2.0040616775005770e-20  1.0685044414464057e-19  1.7226454374749483e-20  -2.5222103130630994e-19  8.5143363546570834e-20  -3.1376806044514263e-19  7.8026744298684478e-20  -3.7960169351308564e-19  1.5281185877152935e-18  5.0376322080447168e-19  3.0840628122911279e-20  -4.0877960661447800e-19  1.1418472381795114e-18  7.0932169389176981e-19  -2.3919065062994262e-21  -4.1218550804530763e-19  7.7003949287672806e-20  5.5544661243791923e-21  6.5669676140570436e-19  -3.9879657368169608e-19  6.7593628322517694e-20  4.2740969551446830e-20  -2.5867752863772829e-20  4.4342410019562107e-20  -3.2820437429188419e-19  6.9741928883557808e-20  -2.3486702012099036e-20  2.0312930169142932e-20  -2.3506832669820069e-19  8.3063265463440755e-20  -1.8753287632367423e-20  -1.2863441995160951e-21  -1.3768692168675860e-19  8.8277699398742086e-20  -3.9064547642379614e-19  5.1690215602177104e-21  3.8400643800050207e-20  3.2293171882406356e-19  -2.5645543148671943e-19  1.0965585958605434e-18  -2.7888622974728155e-20  -2.2268804722984536e-18  1.6636618347468862e-18  -1.0029558767017468e-17  -1.8427375201381967e-19  3.2373855166911650e-18  -9.7885440887762215e-18  1.5098431247806436e-19  1.4159860837446928e-17  -8.9457024222306789e-18  5.0412066764731260e-17  -1.5806389052940813e-17  5.5623313377425234e-17  -9.8311294271133433e-18  9.6369886117583164e-18  4.9309288956937699e-18  -3.7749675557898869e-17  3.8652437066734763e-18  -1.1042087634496806e-18  -2.7481549458380489e-01  1.0296557750627691e-17  -2.3236475391146970e-17  -1.5205901973570611e-18  3.6801027505695053e-17  -3.2910412783305037e-01  -1.5739861301450329e-17  6.7821930081193887e-17  -2.6924642653829967e-01  -1.6082128109210983e-17  4.1998996627546414e-17  -2.2650812112137426e-16  -7.2352218054627804e-17  9.8802527797916245e-19  4.2696827201782894e-17  -2.2475656025300850e-16  4.7495687435693253e-18  -1.5592598885123678e-17  5.3243716816914131e-17  -2.1901415872333327e-16  -1.3707566425004795e-16  2.0264713289798510e-17  -2.4389894590982006e-17  2.6557905553139519e-16  -1.6320332522973088e-17  1.4545111879133301e-17  -4.9224784003929903e-17  2.0190935099771149e-16  9.0893859926830603e-17  -3.4785153946837170e-18  -3.5839240125741761e-17  -6.0625319799249921e-19  1.3224112824426707e-16  -1.3931546609612161e-17  -3.5309324056350767e-17  -1.0327839641186181e-16  2.1317358963082615e-16  -3.0172157856623048e-17  -2.9253708387800658e-17  -2.7442372966698464e-16  2.9535476910377965e-16  -1.0006011648843785e-15  -3.8784031737236773e-16  -3.1744033501229207e-17  3.6003273250084507e-16  -1.3401921690204276e-15  -2.8153415519944208e-16  -6.3493348410007432e-17  3.6900008371671753e-16  -1.8072871154070589e-15  9.9083595111448105e-17  2.5172724858335849e-15  -1.8025246512770884e-15  7.8413325189598959e-15  -3.9982456531543666e-16  4.9793988643159083e-16  -9.0276075184868485e-16  7.2586129703515757e-15  -2.4857872525970672e-15  7.6390766383731102e-15  -9.4410156028609427e-17  -7.8476914254349977e-15  3.3854972082398525e-15  -8.3760308167962903e-15  -2.9082772521241319e-15  -4.7124335657839020e-16  2.9556738374065889e-15  -2.0170048375882208e-14  7.5462172627375425e-15  -3.3509793869864002e-14  9.3400666067055671e-15  -3.3952162265904922e-14  8.7899752751661627e-15  -3.2814715096412710e-14  9.6804244668052384e-15  -4.0728850054154278e-14  1.2226871059956588e-14  -4.8112045551070120e-14  1.2367757024789220e-14  -3.9851884913625843e-14  7.9515063452032449e-15  -1.7809800945992269e-14  1.8763839963576209e-15  1.4569867302338302e-15  -1.5816452231317455e-15  7.0204859239476751e-15  -1.4526819109660363e-15  2.6619504025865934e-15  -9.9834800399529561e-17  -1.0942925324177766e-15  2.0742923769251622e-16  -6.6847711387770425e-17  -1.1825957482369456e-17  2.3828688044022068e-17  -3.9594812754920855e-18  -4.6488887256678154e-18  1.6427898734156686e-18  4.9095181799802410e-19  -3.4938959587509519e-19  3.0724912265616465e-20  -4.4192423188026689e-19  4.3417928974879590e-20  -2.4460437108291180e-15  1.0081293762045222e-19  -1.4239424193883542e-19  -8.9384614417630662e-21  1.2810581576668656e-19  -2.7754622589716615e-20  3.2355208690044572e-20  3.2608107749612766e-