<?xml version="1.0"?>
<VTKFile type="UnstructuredGrid"  version="0.1"  >
<UnstructuredGrid>
<Piece  NumberOfPoints="11902" NumberOfCells="23402">
<Points>
<DataArray  type="Float64"  NumberOfComponents="3"  format="ascii">-5 -5 0  5 -5 0  5 5 0  -5 5 0  1.179880857931229 0.001187810876965612 0  -4.9 -5 0  -4.8 -5 0  -4.7 -5 0  -4.6 -5 0  -4.5 -5 0  -4.4 -5 0  -4.3 -5 0  -4.2 -5 0  -4.1 -5 0  -4 -5 0  -3.9 -5 0  -3.8 -5 0  -3.7 -5 0  -3.6 -5 0  -3.5 -5 0  -3.4 -5 0  -3.3 -5 0  -3.2 -5 0  -3.1 -5 0  -3 -5 0  -2.9 -5 0  -2.8 -5 0  -2.7 -5 0  -2.6 -5 0  -2.5 -5 0  -2.4 -5 0  -2.3 -5 0  -2.2 -5 0  -2.1 -5 0  -2 -5 0  -1.9 -5 0  -1.8 -5 0  -1.7 -5 0  -1.6 -5 0  -1.5 -5 0  -1.4 -5 0  -1.3 -5 0  -1.2 -5 0  -1.1 -5 0  -1 -5 0  -0.9000000000000004 -5 0  -0.7999999999999998 -5 0  -0.7000000000000002 -5 0  -0.5999999999999996 -5 0  -0.5 -5 0  -0.4000000000000004 -5 0  -0.2999999999999998 -5 0  -0.2000000000000002 -5 0  -0.09999999999999964 -5 0  0 -5 0  0.09999999999999964 -5 0  0.2000000000000002 -5 0  0.2999999999999998 -5 0  0.4000000000000004 -5 0  0.5 -5 0  0.5999999999999996 -5 0  0.7000000000000002 -5 0  0.7999999999999998 -5 0  0.9000000000000004 -5 0  1 -5 0  1.1 -5 0  1.2 -5 0  1.3 -5 0  1.4 -5 0  1.5 -5 0  1.6 -5 0  1.7 -5 0  1.8 -5 0  1.9 -5 0  2 -5 0  2.1 -5 0  2.2 -5 0  2.3 -5 0  2.4 -5 0  2.5 -5 0  2.6 -5 0  2.7 -5 0  2.8 -5 0  2.9 -5 0  3 -5 0  3.1 -5 0  3.199999999999999 -5 0  3.300000000000001 -5 0  3.4 -5 0  3.5 -5 0  3.6 -5 0  3.699999999999999 -5 0  3.800000000000001 -5 0  3.9 -5 0  4 -5 0  4.1 -5 0  4.199999999999999 -5 0  4.300000000000001 -5 0  4.4 -5 0  4.5 -5 0  4.6 -5 0  4.699999999999999 -5 0  4.800000000000001 -5 0  4.9 -5 0  5 -4.9 0  5 -4.8 0  5 -4.7 0  5 -4.6 0  5 -4.5 0  5 -4.4 0  5 -4.3 0  5 -4.2 0  5 -4.1 0  5 -4 0  5 -3.9 0  5 -3.8 0  5 -3.7 0  5 -3.6 0  5 -3.5 0  5 -3.4 0  5 -3.3 0  5 -3.2 0  5 -3.1 0  5 -3 0  5 -2.9 0  5 -2.8 0  5 -2.7 0  5 -2.6 0  5 -2.5 0  5 -2.4 0  5 -2.3 0  5 -2.2 0  5 -2.1 0  5 -2 0  5 -1.9 0  5 -1.8 0  5 -1.7 0  5 -1.6 0  5 -1.5 0  5 -1.4 0  5 -1.3 0  5 -1.2 0  5 -1.1 0  5 -1 0  5 -0.9000000000000004 0  5 -0.7999999999999998 0  5 -0.7000000000000002 0  5 -0.5999999999999996 0  5 -0.5 0  5 -0.4000000000000004 0  5 -0.2999999999999998 0  5 -0.2000000000000002 0  5 -0.09999999999999964 0  5 0 0  5 0.09999999999999964 0  5 0.2000000000000002 0  5 0.2999999999999998 0  5 0.4000000000000004 0  5 0.5 0  5 0.5999999999999996 0  5 0.7000000000000002 0  5 0.7999999999999998 0  5 0.9000000000000004 0  5 1 0  5 1.1 0  5 1.2 0  5 1.3 0  5 1.4 0  5 1.5 0  5 1.6 0  5 1.7 0  5 1.8 0  5 1.9 0  5 2 0  5 2.1 0  5 2.2 0  5 2.3 0  5 2.4 0  5 2.5 0  5 2.6 0  5 2.7 0  5 2.8 0  5 2.9 0  5 3 0  5 3.1 0  5 3.199999999999999 0  5 3.300000000000001 0  5 3.4 0  5 3.5 0  5 3.6 0  5 3.699999999999999 0  5 3.800000000000001 0  5 3.9 0  5 4 0  5 4.1 0  5 4.199999999999999 0  5 4.300000000000001 0  5 4.4 0  5 4.5 0  5 4.6 0  5 4.699999999999999 0  5 4.800000000000001 0  5 4.9 0  4.9 5 0  4.8 5 0  4.7 5 0  4.6 5 0  4.5 5 0  4.4 5 0  4.3 5 0  4.2 5 0  4.1 5 0  4 5 0  3.9 5 0  3.8 5 0  3.7 5 0  3.6 5 0  3.5 5 0  3.4 5 0  3.3 5 0  3.2 5 0  3.1 5 0  3 5 0  2.9 5 0  2.8 5 0  2.7 5 0  2.6 5 0  2.5 5 0  2.4 5 0  2.3 5 0  2.2 5 0  2.1 5 0  2 5 0  1.9 5 0  1.8 5 0  1.7 5 0  1.6 5 0  1.5 5 0  1.4 5 0  1.3 5 0  1.2 5 0  1.1 5 0  1 5 0  0.9000000000000004 5 0  0.7999999999999998 5 0  0.7000000000000002 5 0  0.5999999999999996 5 0  0.5 5 0  0.4000000000000004 5 0  0.2999999999999998 5 0  0.2000000000000002 5 0  0.09999999999999964 5 0  0 5 0  -0.09999999999999964 5 0  -0.2000000000000002 5 0  -0.2999999999999998 5 0  -0.4000000000000004 5 0  -0.5 5 0  -0.5999999999999996 5 0  -0.7000000000000002 5 0  -0.7999999999999998 5 0  -0.9000000000000004 5 0  -1 5 0  -1.1 5 0  -1.2 5 0  -1.3 5 0  -1.4 5 0  -1.5 5 0  -1.6 5 0  -1.7 5 0  -1.8 5 0  -1.9 5 0  -2 5 0  -2.1 5 0  -2.2 5 0  -2.3 5 0  -2.4 5 0  -2.5 5 0  -2.6 5 0  -2.7 5 0  -2.8 5 0  -2.9 5 0  -3 5 0  -3.1 5 0  -3.199999999999999 5 0  -3.300000000000001 5 0  -3.4 5 0  -3.5 5 0  -3.6 5 0  -3.699999999999999 5 0  -3.800000000000001 5 0  -3.9 5 0  -4 5 0  -4.1 5 0  -4.199999999999999 5 0  -4.300000000000001 5 0  -4.4 5 0  -4.5 5 0  -4.6 5 0  -4.699999999999999 5 0  -4.800000000000001 5 0  -4.9 5 0  -5 4.9 0  -5 4.8 0  -5 4.7 0  -5 4.6 0  -5 4.5 0  -5 4.4 0  -5 4.3 0  -5 4.2 0  -5 4.1 0  -5 4 0  -5 3.9 0  -5 3.8 0  -5 3.7 0  -5 3.6 0  -5 3.5 0  -5 3.4 0  -5 3.3 0  -5 3.2 0  -5 3.1 0  -5 3 0  -5 2.9 0  -5 2.8 0  -5 2.7 0  -5 2.6 0  -5 2.5 0  -5 2.4 0  -5 2.3 0  -5 2.2 0  -5 2.1 0  -5 2 0  -5 1.9 0  -5 1.8 0  -5 1.7 0  -5 1.6 0  -5 1.5 0  -5 1.4 0  -5 1.3 0  -5 1.2 0  -5 1.1 0  -5 1 0  -5 0.9000000000000004 0  -5 0.7999999999999998 0  -5 0.7000000000000002 0  -5 0.5999999999999996 0  -5 0.5 0  -5 0.4000000000000004 0  -5 0.2999999999999998 0  -5 0.2000000000000002 0  -5 0.09999999999999964 0  -5 0 0  -5 -0.09999999999999964 0  -5 -0.2000000000000002 0  -5 -0.2999999999999998 0  -5 -0.4000000000000004 0  -5 -0.5 0  -5 -0.5999999999999996 0  -5 -0.7000000000000002 0  -5 -0.7999999999999998 0  -5 -0.9000000000000004 0  -5 -1 0  -5 -1.1 0  -5 -1.2 0  -5 -1.3 0  -5 -1.4 0  -5 -1.5 0  -5 -1.6 0  -5 -1.7 0  -5 -1.8 0  -5 -1.9 0  -5 -2 0  -5 -2.1 0  -5 -2.2 0  -5 -2.3 0  -5 -2.4 0  -5 -2.5 0  -5 -2.6 0  -5 -2.7 0  -5 -2.8 0  -5 -2.9 0  -5 -3 0  -5 -3.1 0  -5 -3.199999999999999 0  -5 -3.300000000000001 0  -5 -3.4 0  -5 -3.5 0  -5 -3.6 0  -5 -3.699999999999999 0  -5 -3.800000000000001 0  -5 -3.9 0  -5 -4 0  -5 -4.1 0  -5 -4.199999999999999 0  -5 -4.300000000000001 0  -5 -4.4 0  -5 -4.5 0  -5 -4.6 0  -5 -4.699999999999999 0  -5 -4.800000000000001 0  -5 -4.9 0  1.174099915343296 0.09960978898532781 0  1.155872631685502 0.1981702076706143 0  1.125237331279572 0.295636408824729 0  1.085432423254781 0.3876978173149138 0  1.0338495496585 0.4784948300006887 0  0.9728868147904001 0.5637756735036324 0  0.901258342503454 0.6435434874131241 0  0.8202964492811167 0.7163485551972143 0  0.7322826992044728 0.78221537897976 0  0.6365303463977204 0.8408792367043236 0  0.5337660416450356 0.8913858251933614 0  0.4264627836954888 0.9330730227596877 0  0.3166638261104548 0.9658154577304785 0  0.2019455150813052 0.9882052078304961 0  0.0876688344404645 1.002133194316309 0  -0.0276110949215359 1.004840792639428 0  -0.1429153355859539 0.9957402860381436 0  -0.2585563022415251 0.9782769684267684 0  -0.3713509427089041 0.9518288656512788 0  -0.4794864503950411 0.9152331814085266 0  -0.582706246286407 0.8697955103308357 0  -0.6808561565345366 0.8150781197858181 0  -0.7720880199792342 0.7523962477664331 0  -0.8564751485710375 0.6822027964816807 0  -0.9333060846927436 0.6042744094442725 0  -1.000068978299817 0.5215902302576515 0  -1.057581518774572 0.4343797709646843 0  -1.103900010034117 0.342010833475817 0  -1.138685569215905 0.2474044533445358 0  -1.162181207932663 0.150321290864896 0  -1.17412226958227 0.05084173931030856 0  -1.174132279341856 -0.04926427003261738 0  -1.162164466508463 -0.1484637999712915 0  -1.13973680686439 -0.2455582497289826 0  -1.103562270368357 -0.3415676334826942 0  -1.057956235911418 -0.4331080727277513 0  -1.000954081453483 -0.5206086713137916 0  -0.9346031378544459 -0.6028872281818258 0  -0.8579675233178341 -0.6797489189855354 0  -0.7730913499370172 -0.7491580556152443 0  -0.6807700142571257 -0.810576793068574 0  -0.58301192365578 -0.8650746121399139 0  -0.4771441738827574 -0.9114110327754057 0  -0.3686590134273347 -0.9492306240804458 0  -0.2560147017180921 -0.9768056803204086 0  -0.1415332367161607 -0.9947398686311133 0  -0.02702071301641603 -1.004054962174177 0  0.08827272885803475 -1.000119498626843 0  0.2043571518954918 -0.9861662082582238 0  0.3180084065660371 -0.9641862167541186 0  0.4295107625144122 -0.9316731123470532 0  0.5352074243743332 -0.8904021315107765 0  0.6371899914918985 -0.8403402533934399 0  0.7324876172410456 -0.7830633177338727 0  0.8203964931656598 -0.7169676857553159 0  0.9008001176187094 -0.6429639549481423 0  0.9716564037314521 -0.563080697133679 0  1.033785844462234 -0.4779799671813988 0  1.086502400320435 -0.3877910210695781 0  1.126555733167489 -0.2944052183689749 0  1.156068779594807 -0.1974007860968354 0  1.174111514388543 -0.09917241997328442 0  -2.448866199714253 4.918674702199466 0  -2.448767562259056 -4.911103882998257 0  4.911042228139149 2.448330562201551 0  4.919111184907304 -2.449752556746439 0  2.446551567654531 -4.896441880066282 0  2.440972448088996 4.900181164630843 0  -4.911064308903777 -2.448352253066142 0  -4.911062996215786 2.448356072399469 0  -1.748831227997417 4.91181136977101 0  -1.744604276376192 -4.915220659564225 0  4.921383156809037 1.744464382859253 0  4.910023259223228 -1.748283148473686 0  -4.910307723461176 -1.748010794597815 0  -4.911123811648102 1.74775098506245 0  1.746123684951554 4.905727207102992 0  1.747577097459866 -4.893976653120488 0  -1.14907817268631 4.909764716783897 0  -1.129910748289213 -4.917599221780626 0  -4.910242184581398 -1.148260766217409 0  -4.910063926436761 1.148060738007904 0  1.144057541739485 -4.913823680091392 0  1.149085282391545 4.909754217968374 0  4.910390851286595 1.146538836936666 0  4.921093684607439 -1.152282005845611 0  -0.5467923071549026 -4.911037859686277 0  -0.5465629644085999 4.919627463564898 0  -4.909149344871137 -0.5488936945755682 0  -4.909173943738431 0.5474493759617733 0  4.908489062191201 -0.549215627690098 0  4.919991473281526 0.5459477075110596 0  0.5425865879555665 -4.898065631969341 0  0.5512937554673836 4.916486721352215 0  -4.912292362591029 -3.048635461036182 0  4.918836668001038 3.046629611654225 0  4.911804644661798 -3.048616680015158 0  -4.913138189351692 3.045724281360189 0  3.055559050329737 -4.91777922657216 0  -3.048909257696258 -4.911742174427467 0  3.052470592143587 4.91381285790005 0  -3.048353137990027 4.912628712187012 0  -4.908322807248314 -0.04992618488420515 0  0.04512751123953016 -4.912996106626229 0  0.04957605973511591 4.919944800974965 0  4.915292061027006 -0.05130710650252204 0  3.545823695939228 -4.919303980078799 0  -3.549122010956645 4.9
[...]
<PointData  Scalars="f_27"> 
<DataArray  type="Float64"  Name="f_27"  format="ascii">0.0000000000000000e+00  0.0000000000000000e+00  0.0000000000000000e+00  0.0000000000000000e+00  8.2239892769666212e-01  0.0000000000000000e+00  0.0000000000000000e+00  0.0000000000000000e+00  0.0000000000000000e+00  0.0000000000000000e+00  0.0000000000000000e+00  0.0000000000000000e+00  0.0000000000000000e+00  0.0000000000000000e+00  0.0000000000000000e+00  0.0000000000000000e+00  0.0000000000000000e+00  0.0000000000000000e+00  0.0000000000000000e+00  0.0000000000000000e+00  0.0000000000000000e+00  0.0000000000000000e+00  0.0000000000000000e+00  0.0000000000000000e+00  0.0000000000000000e+00  0.0000000000000000e+00  0.0000000000000000e+00  0.0000000000000000e+00  0.0000000000000000e+00  0.0000000000000000e+00  0.0000000000000000e+00  0.0000000000000000e+00  0.0000000000000000e+00  0.0000000000000000e+00  0.0000000000000000e+00  0.0000000000000000e+00  0.0000000000000000e+00  0.0000000000000000e+00  0.0000000000000000e+00  0.0000000000000000e+00  0.0000000000000000e+00  0.0000000000000000e+00  0.0000000000000000e+00  0.0000000000000000e+00  0.0000000000000000e+00  0.0000000000000000e+00  0.0000000000000000e+00  0.0000000000000000e+00  0.0000000000000000e+00  0.0000000000000000e+00  0.0000000000000000e+00  0.0000000000000000e+00  0.0000000000000000e+00  0.0000000000000000e+00  0.0000000000000000e+00  0.0000000000000000e+00  0.0000000000000000e+00  0.0000000000000000e+00  0.0000000000000000e+00  0.0000000000000000e+00  0.0000000000000000e+00  0.0000000000000000e+00  0.0000000000000000e+00  0.0000000000000000e+00  0.0000000000000000e+00  0.0000000000000000e+00  0.0000000000000000e+00  0.0000000000000000e+00  0.0000000000000000e+00  0.0000000000000000e+00  0.0000000000000000e+00  0.0000000000000000e+00  0.0000000000000000e+00  0.0000000000000000e+00  0.0000000000000000e+00  0.0000000000000000e+00  0.0000000000000000e+00  0.0000000000000000e+00  0.0000000000000000e+00  0.0000000000000000e+00  0.0000000000000000e+00  0.0000000000000000e+00  0.0000000000000000e+00  0.0000000000000000e+00  0.0000000000000000e+00  0.0000000000000000e+00  0.0000000000000000e+00  0.0000000000000000e+00  0.0000000000000000e+00  0.0000000000000000e+00  0.0000000000000000e+00  0.0000000000000000e+00  0.0000000000000000e+00  0.0000000000000000e+00  0.0000000000000000e+00  0.0000000000000000e+00  0.0000000000000000e+00  0.0000000000000000e+00  0.0000000000000000e+00  0.0000000000000000e+00  0.0000000000000000e+00  0.0000000000000000e+00  0.0000000000000000e+00  0.0000000000000000e+00  0.0000000000000000e+00  0.0000000000000000e+00  0.0000000000000000e+00  0.0000000000000000e+00  0.0000000000000000e+00  0.0000000000000000e+00  0.0000000000000000e+00  0.0000000000000000e+00  0.0000000000000000e+00  0.0000000000000000e+00  0.0000000000000000e+00  0.0000000000000000e+00  0.0000000000000000e+00  0.0000000000000000e+00  0.0000000000000000e+00  0.0000000000000000e+00  0.0000000000000000e+00  0.0000000000000000e+00  0.0000000000000000e+00  0.0000000000000000e+00  0.0000000000000000e+00  0.0000000000000000e+00  0.0000000000000000e+00  0.0000000000000000e+00  0.0000000000000000e+00  0.0000000000000000e+00  0.0000000000000000e+00  0.0000000000000000e+00  0.0000000000000000e+00  0.0000000000000000e+00  0.0000000000000000e+00  0.0000000000000000e+00  0.0000000000000000e+00  0.0000000000000000e+00  0.0000000000000000e+00  0.0000000000000000e+00  0.0000000000000000e+00  0.0000000000000000e+00  0.0000000000000000e+00  0.0000000000000000e+00  0.0000000000000000e+00  0.0000000000000000e+00  0.0000000000000000e+00  0.0000000000000000e+00  0.0000000000000000e+00  0.0000000000000000e+00  0.0000000000000000e+00  0.0000000000000000e+00  0.0000000000000000e+00  0.0000000000000000e+00  0.0000000000000000e+00  0.0000000000000000e+00  0.0000000000000000e+00  0.0000000000000000e+00  0.0000000000000000e+00  0.0000000000000000e+00  0.0000000000000000e+00  0.0000000000000000e+00  0.0000000000000000e+00  0.0000000000000000e+00  0.0000000000000000e+00  0.0000000000000000e+00  0.0000000000000000e+00  0.0000000000000000e+00  0.0000000000000000e+00  0.0000000000000000e+00  0.0000000000000000e+00  0.0000000000000000e+00  0.0000000000000000e+00  0.0000000000000000e+00  0.0000000000000000e+00  0.0000000000000000e+00  0.0000000000000000e+00  0.0000000000000000e+00  0.0000000000000000e+00  0.0000000000000000e+00  0.0000000000000000e+00  0.0000000000000000e+00  0.0000000000000000e+00  0.0000000000000000e+00  0.0000000000000000e+00  0.0000000000000000e+00  0.0000000000000000e+00  0.0000000000000000e+00  0.0000000000000000e+00  0.0000000000000000e+00  0.0000000000000000e+00  0.0000000000000000e+00  0.0000000000000000e+00  0.0000000000000000e+00  0.0000000000000000e+00  0.0000000000000000e+00  0.0000000000000000e+00  0.0000000000000000e+00  0.0000000000000000e+00  0.0000000000000000e+00  0.0000000000000000e+00  0.0000000000000000e+00  0.0000000000000000e+00  0.0000000000000000e+00  0.0000000000000000e+00  0.0000000000000000e+00  0.0000000000000000e+00  0.0000000000000000e+00  0.0000000000000000e+00  0.0000000000000000e+00  0.0000000000000000e+00  0.0000000000000000e+00  0.0000000000000000e+00  0.0000000000000000e+00  0.0000000000000000e+00  0.0000000000000000e+00  0.0000000000000000e+00  0.0000000000000000e+00  0.0000000000000000e+00  0.0000000000000000e+00  0.0000000000000000e+00  0.0000000000000000e+00  0.0000000000000000e+00  0.0000000000000000e+00  0.0000000000000000e+00  0.0000000000000000e+00  0.0000000000000000e+00  0.0000000000000000e+00  0.0000000000000000e+00  0.0000000000000000e+00  0.0000000000000000e+00  0.0000000000000000e+00  0.0000000000000000e+00  0.0000000000000000e+00  0.0000000000000000e+00  0.0000000000000000e+00  0.0000000000000000e+00  0.0000000000000000e+00  0.0000000000000000e+00  0.0000000000000000e+00  0.0000000000000000e+00  0.0000000000000000e+00  0.0000000000000000e+00  0.0000000000000000e+00  0.0000000000000000e+00  0.0000000000000000e+00  0.0000000000000000e+00  0.0000000000000000e+00  0.0000000000000000e+00  0.0000000000000000e+00  0.0000000000000000e+00  0.0000000000000000e+00  0.0000000000000000e+00  0.0000000000000000e+00  0.0000000000000000e+00  0.0000000000000000e+00  0.0000000000000000e+00  0.0000000000000000e+00  0.0000000000000000e+00  0.0000000000000000e+00  0.0000000000000000e+00  0.0000000000000000e+00  0.0000000000000000e+00  0.0000000000000000e+00  0.0000000000000000e+00  0.0000000000000000e+00  0.0000000000000000e+00  0.0000000000000000e+00  0.0000000000000000e+00  0.0000000000000000e+00  0.0000000000000000e+00  0.0000000000000000e+00  0.0000000000000000e+00  0.0000000000000000e+00  0.0000000000000000e+00  0.0000000000000000e+00  0.0000000000000000e+00  0.0000000000000000e+00  0.0000000000000000e+00  0.0000000000000000e+00  0.0000000000000000e+00  0.0000000000000000e+00  0.0000000000000000e+00  0.0000000000000000e+00  0.0000000000000000e+00  0.0000000000000000e+00  0.0000000000000000e+00  0.0000000000000000e+00  0.0000000000000000e+00  0.0000000000000000e+00  0.0000000000000000e+00  0.0000000000000000e+00  0.0000000000000000e+00  0.0000000000000000e+00  0.0000000000000000e+00  0.0000000000000000e+00  0.0000000000000000e+00  0.0000000000000000e+00  0.0000000000000000e+00  0.0000000000000000e+00  0.0000000000000000e+00  0.0000000000000000e+00  0.0000000000000000e+00  0.0000000000000000e+00  0.0000000000000000e+00  0.0000000000000000e+00  0.0000000000000000e+00  0.0000000000000000e+00  0.0000000000000000e+00  0.0000000000000000e+00  0.0000000000000000e+00  0.0000000000000000e+00  0.0000000000000000e+00  0.0000000000000000e+00  0.0000000000000000e+00  0.0000000000000000e+00  0.0000000000000000e+00  0.0000000000000000e+00  0.0000000000000000e+00  0.0000000000000000e+00  0.0000000000000000e+00  0.0000000000000000e+00  0.0000000000000000e+00  0.0000000000000000e+00  0.0000000000000000e+00  0.0000000000000000e+00  0.0000000000000000e+00  0.0000000000000000e+00  0.0000000000000000e+00  0.0000000000000000e+00  0.0000000000000000e+00  0.0000000000000000e+00  0.0000000000000000e+00  0.0000000000000000e+00  0.0000000000000000e+00  0.0000000000000000e+00  0.0000000000000000e+00  0.0000000000000000e+00  0.0000000000000000e+00  0.0000000000000000e+00  0.0000000000000000e+00  0.0000000000000000e+00  0.0000000000000000e+00  0.0000000000000000e+00  0.0000000000000000e+00  0.0000000000000000e+00  0.0000000000000000e+00  0.0000000000000000e+00  0.0000000000000000e+00  0.0000000000000000e+00  0.0000000000000000e+00  0.0000000000000000e+00  0.0000000000000000e+00  0.0000000000000000e+00  0.0000000000000000e+00  0.0000000000000000e+00  0.0000000000000000e+00  0.0000000000000000e+00  0.0000000000000000e+00  0.0000000000000000e+00  0.0000000000000000e+00  0.0000000000000000e+00  0.0000000000000000e+00  0.0000000000000000e+00  0.0000000000000000e+00  0.0000000000000000e+00  0.0000000000000000e+00  0.0000000000000000e+00  0.0000000000000000e+00  0.0000000000000000e+00  0.0000000000000000e+00  0.0000000000000000e+00  0.0000000000000000e+00  0.0000000000000000e+00  0.0000000000000000e+00  0.0000000000000000e+00  0.0000000000000000e+00  0.0000000000000000e+00  0.0000000000000000e+00  0.0000000000000000e+00  0.0000000000000000e+00  0.0000000000000000e+00  0.0000000000000000e+00  0.0000000000000000e+00  0.0000000000000000e+00  0.0000000000000000e+00  0.0000000000000000e+00  0.0000000000000000e+00  0.0000000000000000e+00  0.0000000000000000e+00  0.0000000000000000e+00  0.0000000000000000e+00  0.0000000000000000e+00  0.0000000000000000e+00  0.0000000000000000e+00  0.0000000000000000e+00  0.0000000000000000e+00  0.0000000000000000e+00  0.0000000000000000e+00  0.0000000000000000e+00  0.0000000000000000e+00  8.1634473709933075e-01  8.2544569418409608e-01  8.6337363513076726e-01  8.6218956110207046e-01  8.3933819597260551e-01  7.9592759959901305e-01  8.0440453300309456e-01  8.4866112994026521e-01  8.3179837288898462e-01  7.9265903410889238e-01  8.0970348291238170e-01  8.1943493047708160e-01  7.8260647068540790e-01  8.3444396561588730e-01  8.2847500455777245e-01  8.3256982366248689e-01  8.5651668397425063e-01  8.2428266779684523e-01  8.1362838966306750e-01  8.3533421682342268e-01  8.2446251255524583e-01  8.3112739502289634e-01  8.2369430703479907e-01  8.0610786894335562e-01  8.2442076363678152e-01  8.4446751431550027e-01  8.1867495355940356e-01  8.3060765959952609e-01  8.5452567120506240e-01  8.4255535076771748e-01  8.2988665743164447e-01  8.2631699623532417e-01  8.3677012807778928e-01  7.7579261375750519e-01  8.3423913615327927e-01  8.1451145146864268e-01  8.3104317761114854e-01  8.0580550627793357e-01  8.0760268457913109e-01  8.3338158519884431e-01  8.6974451209018544e-01  7.9487291940685523e-01  8.3833717856553802e-01  8.0861571396830023e-01  8.1694202564184459e-01  8.3095538694340776e-01  7.5787183735397001e-01  7.9149311450979454e-01  8.2474821331984027e-01  8.1346262084765197e-01  8.3136612266487586e-01  8.4659976232819489e-01  8.3074113626347956e-01  8.0128874852076337e-01  8.1994602391177818e-01  8.2665738363755903e-01  8.4520490152350380e-01  8.2620753242686906e-01  7.7810129516588222e-01  8.1417588140610009e-01  8.1969604173637178e-01  8.0897936691779637e-01  -1.4514673221975443e-31  1.0591060158394122e-31  2.0645488358029383e-34  3.5065071817532103e-34  1.7920918329902969e-31  2.4360878661989130e-31  2.3973330162910934e-36  -3.0958765971918898e-35  -2.7681727549558545e-31  -9.9882664148354669e-32  4.8523194018033263e-32  6.8201336437465108e-32  3.7577508164263141e-32  4.4671087366935616e-32  2.3332250658035341e-30  1.2523109021166341e-30  -3.7283526557177124e-30  1.5454194185433295e-31  -5.3992413834156147e-30  -7.5400928182534703e-30  -1.2510868248000231e-30  -1.3589728993788321e-30  -3.6319366426529898e-30  -4.5014236432476014e-30  -2.6646926945467258e-30  -1.9800379216341403e-30  -6.4697692892807750e-29  1.1561598122769932e-29  -3.0306924811550212e-29  -1.5862801142891040e-28  5.6450293685197550e-30  -1.3088012310133633e-30  -3.3411123462187343e-36  2.2692621810793563e-36  1.8080301217663934e-36  -3.3111511690289671e-36  3.2445211045557724e-33  2.1376783574673601e-33  1.7903643521671709e-33  2.1081811968548026e-33  -7.1881935657459270e-28  7.6579053258382078e-30  -3.2165539950465948e-31  1.2258760310523307e-27  7.3754252667574366e-36  4.3787066179663697e-36  9.6411172651665104e-36  -3.0321540144377250e-38  1.2737272977806891e-39  -3.3127527511103367e-38  1.1462111546375549e-38  -1.8460686120045274e-36  6.1487464890989203e-40  -1.1701673756735784e-37  -2.6824348968213845e-38  -1.0276743582073679e-39  -1.2422517708288222e-37  8.8835246908515016e-40  -6.9394171105085318e-38  -1.3839996589413504e-39  -2.8593568324672003e-40  -3.6351317692593582e-40  -2.9538076763810408e-40  -9.9996537328507208e-42  -1.5118674417904163e-42  3.2998211848138757e-41  4.2599798518603170e-41  -3.7986992418734836e-40  1.1794025157346286e-27  1.5859275504815556e-30  -9.6223988061520579e-31  1.0981631523444187e-27  2.1001519195880171e-30  1.1370002691352258e-30  5.4337832173166044e-30  5.0773381127426101e-30  1.2092569354946770e-30  1.1923067361486802e-30  -9.4034001585626801e-31  -6.8650483826630278e-30  -1.1983973594957008e-30  -3.3928293179567101e-31  2.3620118614513361e-29  3.9055772103850947e-29  -2.3544743794483466e-31  1.2395497546323097e-30  -9.0800254629597284e-31  5.2714164630565489e-31  -1.5062679047859939e-30  -1.1519391416834119e-30  -1.2005438495986661e-32  -1.1017168725854403e-32  -2.9830902847491020e-31  -3.3477493329876621e-31  6.2668270121757357e-33  6.1815420462135683e-33  2.8618684045582557e-35  -1.1935179638598585e-32  1.9520079936825798e-32  -2.9062714132182575e-35  6.6816088961160939e-33  -2.8805547395919466e-35  2.6752119376975960e-35  2.6762243953795913e-32  1.5978006648962667e-42  5.8062193817791622e-42  -1.1810113064906431e-42  -2.4249179595205326e-42  -6.2417047717527272e-43  -1.7621179564697498e-42  2.5845865354128042e-42  1.9007460386093169e-42  2.3232420943337422e-28  1.1445873289128866e-29  2.0912750136461550e-30  1.2421963084672651e-27  4.5345598314179684e-32  -1.3779514757312859e-33  -1.6039262847248361e-33  -1.2652638635730759e-31  1.5921101103994067e-33  1.2599491300111548e-31  2.1581562667744461e-31  1.4556906937018923e-33  -4.4774261202733621e-37  -6.9902333259615929e-34  -3.1652218183668481e-34  -2.2125588134462407e-39  -3.6534375874750532e-37  -9.8844224151566840e-36  -4.3350162347884855e-34  1.0893322309812057e-37  2.3953925015782785e-39  -1.4187581440249532e-40  -1.2623711349209546e-36  -2.3922013184879563e-39  -4.9395890333822341e-37  -2.2574249054164558e-39  7.5148731106241452e-39  -8.1339086984866598e-41  -6.1016568197756501e-37  -3.2957859405054801e-39  7.9336829741678480e-41  -1.2552349898323426e-40  7.0274954932772437e-39  -3.8723189643675125e-41  -3.1503598690745610e-37  -3.1298794788575341e-39  -5.9971845217988281e-43  2.5923221844985473e-43  -3.8548379182804639e-43  -9.0074784071059399e-43  -3.1147152096477834e-28  4.5994210691588765e-29  -1.5341681883437667e-27  3.6742659857052082e-27  6.1784515189139044e-27  -2.2124756024381534e-26  -1.8697001407235921e-26  8.7448326012691771e-26  4.0190711017721659e-26  -2.6118890547052615e-25  -3.0022371050819137e-26  5.4679664336747434e-25  -2.4292051215049257e-25  -3.4859612431852478e-25  1.6369389731545039e-24  -3.6597185899207135e-24  -6.4741408988410294e-24  2.3505292560867932e-23  1.8959000802213139e-23  -9.1155637420036956e-23  -3.9743085868791860e-23  -5.4889361206432296e-23  2.6306543895360462e-22  3.4692570258558822e-23  -5.3557350402441135e-22  1.6332568043779358e-22  3.6923720410246484e-22  -1.0025315728747739e-21  2.6062117601479602e-21  3.0623479035475615e-21  -1.4496395627972744e-20  -5.0653675969720955e-21  3.5457322522279945e-21  4.1962631399760220e-20  -3.2723570399383106e-21  -5.9183307516811331e-20  5.0534500096876161e-20  -8.8619207346711172e-20  -1.5831387229587984e-19  7.7055471352368082e-19  1.7661418908311480e-19  -2.0374024707203825e-18  5.3992069930524974e-19  -1.8746700259056468e-18  1.2013047747715657e-18  -2.8046460717269074e-18  1.0378152128728043e-17  4.1723661430538052e-18  1.2971761107621727e-19  -2.9436310815314602e-18  7.2182225087338069e-18  5.7617113494801536e-18  -1.5055446334819828e-19  -2.9116671819062257e-18  5.9796882942667465e-19  -1.6559114356488663e-19  5.7626666359412416e-18  -2.8614270038887649e-18  5.5548476224272834e-19  7.0707743438026378e-20  -1.6896396251415998e-19  4.2109602480060053e-19  -2.6054980679250981e-18  3.7889867407595294e-19  -1.7382618750841590e-19  2.2354221057035910e-19  -1.9555835314124699e-18  5.4803802109594455e-19  -1.4533203986225881e-19  3.9689668302736381e-20  -1.1289225640293689e-18  5.5307791761344131e-19  -1.7943495488369699e-18  3.0382783012749315e-20  -2.3688130707120051e-19  4.5209233518791019e-18  -2.1333198907647590e-18  6.5437290962556373e-18  1.1673233647147224e-18  -2.4046987437182354e-17  1.4123496391081787e-17  -7.5868716438759744e-17  -1.8979316297617723e-18  2.1506100452701404e-17  -5.0080825107045206e-17  -8.3187892880598195e-18  1.4862590222319717e-16  -7.8078910556188985e-17  4.1183781282617466e-16  -1.2462339493693668e-16  4.3045715468242621e-16  -7.6549294444885358e-17  8.4045764165636566e-17  3.3060734728203058e-17  -2.7186044376537964e-16  3.0027346064728363e-17  1.0033892434898654e-17  -2.3485339432630212e-01  7.8851499172516887e-17  -2.0874185866951617e-16  7.7781569962865622e-18  1.7196323982097349e-16  -2.4768281888093879e-01  -8.6117000088497601e-17  3.9520749338315692e-16  -2.3207260325700496e-01  -9.8135217810461153e-17  2.7280760574748518e-16  -1.3823135588703316e-15  -5.4764815772374301e-16  3.8833578720863900e-17  1.4613132116681997e-16  -1.7696032336276913e-15  2.7639251788334638e-17  -7.2253050949956627e-17  2.7624499667428417e-16  -1.0198816882095723e-15  -7.7769000822960643e-16  1.2577778359918604e-16  -1.8263821406410917e-16  1.6745292089847445e-15  -3.5923291000260369e-18  7.2978239855540464e-17  -2.7000855079781836e-16  1.0803009997804502e-15  4.1120214415398663e-16  2.1282723256618302e-17  -3.5861336336496553e-16  7.1406683783691969e-16  9.8994693215551273e-16  -6.3113036546222114e-17  -4.3387404288809575e-16  -3.4688153256467968e-17  1.7903345815933720e-15  -2.0534841126238163e-16  -4.0497143298165662e-16  -1.4047560558132064e-15  2.4116914606885707e-15  -9.7735019797855209e-15  -2.1298069658969537e-15  -4.1899848706841507e-16  2.7191407478917788e-15  -1.1542655307247341e-14  -1.2601820145447718e-15  -5.9637234310075302e-16  2.5043728084353863e-15  -1.3171782003166488e-14  1.1071782617433056e-15  1.4692811105732113e-14  -1.1305224285668699e-14  5.0252276468591255e-14  -2.7972562428282769e-15  3.0285090015298705e-15  -4.7866849024816616e-15  3.4456856806387492e-14  -8.4590232806551270e-15  4.5656642005060331e-15  1.4342294622565419e-14  -1.0435302423161956e-13  2.9959592977561618e-14  -5.2322361408665854e-14  -2.6962597510397593e-14  -2.8883843593952926e-15  2.1820573528427338e-14  -1.3852668697689103e-13  4.9628194898522336e-14  -2.1806016809218359e-13  6.2775070977040168e-14  -2.4158936394628579e-13  6.6870950480560927e-14  -2.5981784351573392e-13  7.4542784748916985e-14  -2.9738160815926039e-13  8.4644573200495748e-14  -3.2414307798268503e-13  8.4965814167183455e-14  -2.8907397979422692e-13  6.3508811642397687e-14  -1.6773134077889005e-13  2.4491788973257882e-14  -2.1297219452293574e-14  -7.1433919913023840e-15  5.0791730193309439e-14  -1.2913113228308848e-14  3.1149333003900872e-14  -3.1963218045983490e-15  -3.5348489326059914e-15  2.3272700486418324e-15  -1.2477158973241339e-16  -2.6809959272524842e-16  1.4654969438173043e-16  -8.0915600901531621e-20  -3.7497346031860469e-17  9.3349200712974341e-18  5.3685037750119009e-18  -2.7000234759409842e-18  -1.2468437476003372e-19  -3.0400315652341654e-18  4.3992961558979675e-19  -1.7454749721673045e-14  8.5462917529456878e-19  -1.6886679059594575e-18  4.9494948040744602e-20  8.6109618761801696e-19  -2.3097987043540940e-19  3.8872657193081010e-19  4.8135092769053270e-22 