<?xml version="1.0"?>
<VTKFile type="UnstructuredGrid"  version="0.1"  >
<UnstructuredGrid>
<Piece  NumberOfPoints="2549" NumberOfCells="4928">
<Points>
<DataArray  type="Float64"  NumberOfComponents="3"  format="ascii">1.469509422236225 0.03658247415014142 0  1.46476058846628 0.05958444889717767 0  1.440818885571982 0.06843907413009091 0  1.428236264544932 0.08442380365105315 0  1.42269084798983 0.09658860815437686 0  1.417259845644172 0.1200790516664915 0  1.396987486484949 0.1232240286629454 0  1.364823015334191 0.1283417136660448 0  1.387501266882384 0.1524914670987509 0  1.489094944403104 0.2590397421152796 0  1.381343664051549 0.1770506144212911 0  1.374569649996452 0.2168838259735445 0  1.336692734295188 0.2338117938819845 0  1.33326780587929 0.261374204300077 0  1.329670894277211 0.2924834652454297 0  1.311000671324189 0.3247436364965856 0  1.301088287254289 0.3584224723830703 0  1.283110441831894 0.3694437076673306 0  1.269553725241268 0.421457093223654 0  1.256507314327559 0.4604081102121392 0  1.237950720683841 0.5051470322380014 0  1.21983262877803 0.5502447575429538 0  1.198483283928663 0.5977891239348295 0  1.173959937372815 0.6487471155982254 0  1.149133450872763 0.7028654510593693 0  1.113679636320879 0.7402412132103315 0  1.084466690394793 0.7945483752080644 0  1.050706336747219 0.8499501806977484 0  1.011012431934421 0.9039999099748489 0  0.9684366963819979 0.9595977581055951 0  0.9216381833678404 1.014482982038297 0  0.8698954682762496 1.069886905108749 0  0.8143140232154196 1.122671067461951 0  0.7554770457127291 1.172404602580119 0  0.6899266271899214 1.223412288196618 0  0.6213065245482837 1.270546024771168 0  0.547381054038516 1.314128418599398 0  0.4695108841814646 1.353714285872151 0  0.3877150539561184 1.387937503537115 0  0.3021526104109888 1.417334506004769 0  0.2138119510715229 1.439978705376672 0  0.1240049679796556 1.455348193159419 0  0.03178966950345007 1.465339040322584 0  -0.06055448303284922 1.46709449647101 0  -0.1529805993014574 1.461775075587012 0  -0.2441309699959121 1.448607409595823 0  -0.3334404611826804 1.428930192689724 0  -0.4200516712619464 1.40045732619424 0  -0.5025025143128553 1.368841226385771 0  -0.5823695117217863 1.330397868566996 0  -0.6574496850950993 1.285032459887557 0  -0.7279129157714981 1.236651377860605 0  -0.7932293925584066 1.183941633421435 0  -0.8541850382141248 1.128500905160132 0  -0.9085236522985168 1.071379852234247 0  -0.9617332160702218 1.010386590332181 0  -1.004143955942568 0.9574355743684378 0  -1.04870675117652 0.9029596919295511 0  -1.087609049516355 0.8412000790174009 0  -1.121236298915616 0.7830053622033464 0  -1.151354938590552 0.7272755822484737 0  -1.175590104384535 0.6672979239915736 0  -1.204216567197676 0.624363781619957 0  -1.221175357956933 0.5499434656070149 0  -1.222445277913429 0.5108958113537672 0  -1.263165423006335 0.4964501078731434 0  -1.278245499945347 0.4469471198340993 0  -1.2876880946002 0.4081386795350132 0  -1.296476246515788 0.370312720725234 0  -1.320672215801729 0.3470986839235823 0  -1.326766396057248 0.2975851561004784 0  -1.31066184968006 0.3252153062246722 0  -1.375389150154601 0.2868082184767556 0  -1.36880102467504 0.1917590975523301 0  -1.366954433783131 0.1668048215254932 0  -1.3697254260691 0.1337203872852354 0  -1.382307490380384 0.1159281062944408 0  -1.385403260509242 0.08399753047526061 0  -1.393491936980998 0.1069389363472146 0  -1.368848206097367 0.02540688532580148 0  -1.399442929556194 0.09441010265635295 0  -1.433485198972678 0.1545936401237092 0  -1.464853710208696 0.07984875887261456 0  -1.474687521974885 0.05200714870611207 0  -1.500527882627179 0.02626229664232891 0  -1.483958676508981 -0.0005951502893009261 0  -1.469988810148827 -0.03105332195560721 0  -1.53448430111917 -0.3416417245818217 0  -1.396018679762368 -0.04624146295199751 0  -1.35781751720243 0.2986657484420379 0  -1.437806809614033 -0.06370830373195656 0  -1.456970728188192 0.009054030104989645 0  -1.417981239476579 -0.1243536001159386 0  -1.388962100955489 -0.09035849353781152 0  -1.372606994826513 -0.1034115501292448 0  -1.379631817802243 -0.1263552467296407 0  -1.397044650291782 -0.2430484296360875 0  -1.311585995788862 -0.3410804670387992 0  -1.35892901525052 -0.2431467437971806 0  -1.355921716683502 -0.3014983650422222 0  -1.319322768928619 -0.3270940866616272 0  -1.324213801973076 -0.3660039534080736 0  -1.320648196270546 -0.4051784643861717 0  -1.354619873770799 -0.4472480858698762 0  -1.234008145589838 -0.4677175503656478 0  -1.204224405080919 -0.5004453116918207 0  -1.25081901424775 -0.6207038060596634 0  -1.196503181810557 -0.6379551471468969 0  -1.187063522966873 -0.7035583653905148 0  -1.159991768845837 -0.766968143651878 0  -1.14041751408336 -0.8309941482822178 0  -1.092773391662215 -0.9093883461635143 0  -1.029759792431031 -0.9353447381412662 0  -1.008544342567798 -1.009277794705826 0  -0.9531743119313125 -1.091753632144638 0  -0.89598524877824 -1.145893219322088 0  -0.8351060227644659 -1.214875722759343 0  -0.7681186969675388 -1.274203557271368 0  -0.6955985237098603 -1.331547683526649 0  -0.6158632610840157 -1.384257720782448 0  -0.5334241859525575 -1.432611353120867 0  -0.4475298175768828 -1.470165941859844 0  -0.3541079124866768 -1.505474867194597 0  -0.2598322379385696 -1.532670902005509 0  -0.1614688595530139 -1.550964172196187 0  -0.06193612833382328 -1.560739671081545 0  0.03847368044756166 -1.561511768636377 0  0.1384570366543194 -1.553209293847127 0  0.2370843166640842 -1.536174742188447 0  0.3330961011262252 -1.510627487213269 0  0.425950127387762 -1.477516750390125 0  0.5147563220148887 -1.437205231315908 0  0.5987670245602106 -1.390703355154785 0  0.6779600031625773 -1.338589442127465 0  0.7505161674222989 -1.282689534355988 0  0.820240529093624 -1.221301929120788 0  0.8798836746490118 -1.164316589386567 0  0.9369449897955349 -1.102728815614148 0  0.9904248846092257 -1.037087773000624 0  1.036918217933567 -0.9728559056701767 0  1.078936682898301 -0.9084593209990933 0  1.116850528731233 -0.8457042433319326 0  1.149199591097838 -0.7832233266796067 0  1.178938364753042 -0.7228716969558364 0  1.208560747534778 -0.6757170887520934 0  1.231080224100259 -0.6168204769315636 0  1.2544126274136 -0.5605632261536735 0  1.271197819618179 -0.5070759687906715 0  1.291562173581627 -0.4595610807107235 0  1.290205699803167 -0.403307194075472 0  1.312079484720105 -0.3757100629071966 0  1.3009897144081 -0.2976005976230073 0  1.284566364871137 -0.302992793592589 0  1.34456264315282 -0.2692322736044041 0  1.365216186382576 -0.2221062176770777 0  1.356629352659514 -0.1910150918200624 0  1.363633236821911 -0.161579018469267 0  1.373588378378071 -0.1341562506366564 0  1.372020367014668 -0.0997233818566363 0  1.261200291574526 0.2186358411506277 0  1.399107183153586 -0.06990458943847115 0  1.398164917758873 -0.07988077604475714 0  1.406715306085947 -0.05217405385380013 0  1.425776325453917 -0.03915778016892579 0  1.42574348595032 -0.01908596749018533 0  1.435532419531967 -0.008002573507959694 0  1.442701169412009 0.00757946864681752 0  1.462382783049275 0.01613953666551662 0  -0.097784879154392 0.8875560272295741 0  0.6902714361713617 -0.5039851177386766 0  -0.8035790888648253 -0.3886879569351321 0  -0.07195512656227673 -0.9473039374976303 0  0.6491594140494797 0.4987806823212745 0  1.086629453560446 0.1185599925342224 0  -0.7945249998091527 0.4032442810159038 0  -1.154775564995192 0.02545394600207765 0  1.097484498978689 -0.06031852366354333 0  -1.036678088746627 -0.1785134025884349 0  -0.7322636271255598 0.01200473737470067 0  -0.4380275192313923 -0.1418996747291502 0  -1.026994661798154 0.2068058371015827 0  0.383992856498839 -0.8324167134225143 0  0.08316761800787047 -0.3054773450091575 0  0.3054239657339887 0.7716242544781663 0  0.2173561805007723 0.1860048634863429 0  0.5600254242654894 0.01824161399738225 0  -0.4784381176308815 -0.7005404494470258 0  -0.5040667006941291 0.6922764307827723 0  -0.2411908367550784 0.3079787895339406 0  0.9163679209553253 -0.2093788972027479 0  0.8939225696660666 0.248601651822778 0  0.3515780189632713 -0.2148956134215176 0  -0.01251520617872909 0.2349264877262857 0  -0.4920165055567077 0.2094310261015445 0  -0.1874486758203391 -0.2813753950152954 0  0.8599050055121634 0.02440789013672491 0  1.245978089490113 0.03510764485441055 0  0.8035486874131116 -0.3373254959782321 0  0.7169992490208444 -0.1052779298159502 0  0.5841488917946498 -0.2067549591635435 0  0.4392970132503253 -0.07632019321414549 0  0.5134034228623412 -0.3704392774632355 0  0.8620022193326679 -0.08030112142971015 0  0.7122079698118761 0.02116524170926529 0  -0.8585825370329823 0.1201570707117722 0  -1.071634054336108 0.09760496954521902 0  -0.9477718306553462 0.01999669723719654 0  -0.8650785107814765 -0.0918666682763532 0  -1.074973349145876 -0.05531414132219937 0  -1.238782799049515 -0.08442893303321189 0  -1.311218073588146 0.0003060054782954144 0  -1.306987612484829 0.05580457939359434 0  -1.228404880699027 0.1369293642304311 0  -0.1272286685507353 -0.614853434656029 0  -0.2993042973025611 -0.5071935011686727 0  -0.2880743563248686 -0.8463886542461445 0  -0.3083630394117907 -0.2044004616365499 0  -0.4498175702033274 -0.4055677826550736 0  -1.22906898763823 -0.2022265686673405 0  -1.210740093266332 0.2419641992321032 0  0.3834396539170787 -0.5033167221411778 0  0.2151064931591142 -0.2470934283125649 0  0.2443620772024856 -0.562599342361806 0  -0.911133227139457 0.2895208016898246 0  -0.7271330350794243 0.1889426707242349 0  1.26784734000677 -0.07478533488546145 0  1.205072884984264 -0.1724292159240446 0  1.184317792898496 0.2296560799241837 0  1.259332624255213 0.1437489452937997 0  -0.9097665426778238 -0.6559627520621091 0  -1.043276458904435 -0.4488758162495056 0  -1.021086205786504 0.4732108262110936 0  -0.887055261561111 0.661658004533169 0  0.9431076167420533 -0.6012730141998855 0  0.7790244235515006 -0.8210754862193166 0  0.731085718551669 0.7948388204603488 0  0.8982695366696982 0.6088949971398224 0  0.049483960
[...]
<PointData  Vectors="f_48"> 
<DataArray  type="Float64"  Name="f_48"  NumberOfComponents="3" format="ascii">-1.9687729582038572e-07 -1.4710105513280494e-08 0.0000000000000000e+00  4.5625460629789355e-07 -3.3887121043046708e-07 0.0000000000000000e+00  8.5534472383657052e-07 1.2697417795666296e-07 0.0000000000000000e+00  5.9907614484326013e-07 -5.0840442167483128e-07 0.0000000000000000e+00  4.8137402271898630e-07 -5.7362890795562102e-07 0.0000000000000000e+00  3.3299947969898678e-07 -8.9679416308881449e-08 0.0000000000000000e+00  1.2591508145458814e-06 1.0859547199776304e-06 0.0000000000000000e+00  1.0820389557673314e-07 -8.7841641090508589e-07 0.0000000000000000e+00  7.6925929509611307e-07 2.6347447925550829e-07 0.0000000000000000e+00  -9.4737411387589378e-08 -1.1220068950294577e-07 0.0000000000000000e+00  8.1018963326895347e-07 4.1957363073628061e-07 0.0000000000000000e+00  2.2272898397444890e-08 1.7080393444854150e-07 0.0000000000000000e+00  -9.5837332168335389e-07 1.2992551926945097e-07 0.0000000000000000e+00  7.9125345963279470e-07 4.0420085436812037e-07 0.0000000000000000e+00  -3.8042787736849094e-07 1.4539661645419293e-07 0.0000000000000000e+00  -4.3971454638087061e-08 4.9383083714052921e-07 0.0000000000000000e+00  1.0397904663007650e-07 2.1145301365936803e-07 0.0000000000000000e+00  -3.1994284602005009e-06 5.4534515921027763e-07 0.0000000000000000e+00  3.6532109046399560e-06 2.2251213693846643e-06 0.0000000000000000e+00  -1.6653814615660564e-06 8.0829409589224304e-07 0.0000000000000000e+00  -5.0434402735094123e-07 1.0070499133110760e-06 0.0000000000000000e+00  1.9761569830347224e-07 2.2088918869259325e-06 0.0000000000000000e+00  -2.5064631991785284e-06 -2.1394307958332451e-07 0.0000000000000000e+00  3.3966337377050174e-06 5.2475565230791479e-06 0.0000000000000000e+00  -2.7043779813040547e-06 -4.0129182963315737e-07 0.0000000000000000e+00  -3.7147663309621685e-06 -3.0313926043939311e-06 0.0000000000000000e+00  3.6279581617533591e-06 8.7529703609192145e-06 0.0000000000000000e+00  -2.8076122936784493e-06 -1.1388667043188416e-06 0.0000000000000000e+00  -1.1842045827495019e-06 1.4071159365739659e-06 0.0000000000000000e+00  -1.6450361987426242e-06 1.8279013381290949e-06 0.0000000000000000e+00  -1.6264931508578825e-06 9.4707845964638651e-07 0.0000000000000000e+00  -1.8332437521216557e-06 1.6235875555121439e-06 0.0000000000000000e+00  -1.7122880180082546e-06 -1.5529235686925494e-07 0.0000000000000000e+00  -1.7944932786309931e-06 4.7413615998608878e-07 0.0000000000000000e+00  -2.1875987320771652e-06 1.3766352215141937e-06 0.0000000000000000e+00  -1.8219855625228466e-06 1.0303355001002369e-07 0.0000000000000000e+00  -1.8978468388333709e-06 3.1214286061658629e-07 0.0000000000000000e+00  -1.7877923995348705e-06 -1.5624460098970645e-07 0.0000000000000000e+00  -1.5173156334275608e-06 -3.1073973295211016e-07 0.0000000000000000e+00  -1.8210584126760241e-06 -2.8858724834681604e-07 0.0000000000000000e+00  -4.0176550031114809e-07 -1.0018651276874620e-06 0.0000000000000000e+00  -6.5067283023753936e-07 -7.3720520010133164e-07 0.0000000000000000e+00  -5.1296076879730120e-07 -8.5620404243200364e-07 0.0000000000000000e+00  -2.9249488620986071e-08 -6.3131635253307629e-07 0.0000000000000000e+00  9.0806553484093246e-08 -5.8449192474879227e-07 0.0000000000000000e+00  -9.5755228485284011e-09 -3.6040663644863292e-07 0.0000000000000000e+00  2.5405738031117339e-07 -1.3428941289217933e-07 0.0000000000000000e+00  3.2470638837316550e-08 1.0909892839562514e-08 0.0000000000000000e+00  -5.2769272052842324e-08 9.8956254778579501e-08 0.0000000000000000e+00  -3.7928664763971027e-07 7.1055844024356963e-08 0.0000000000000000e+00  -5.8279805188644240e-07 -9.5045573075800729e-08 0.0000000000000000e+00  -8.0862096480209065e-07 -8.4398858687436589e-08 0.0000000000000000e+00  -8.8087594734745598e-07 -3.4703751771394338e-07 0.0000000000000000e+00  -1.1406124289921351e-06 -7.7803205558000012e-07 0.0000000000000000e+00  -1.0300531680301445e-06 -8.2354740131295912e-07 0.0000000000000000e+00  -1.1343915312244940e-06 -1.8184574947164495e-06 0.0000000000000000e+00  -1.3118281903848057e-06 9.7252474170291735e-07 0.0000000000000000e+00  -2.0892256326787568e-06 5.3436499456901660e-07 0.0000000000000000e+00  6.9032413138336474e-07 -4.4317197229467156e-06 0.0000000000000000e+00  -2.8081615624910087e-06 1.8209306618565775e-06 0.0000000000000000e+00  2.1937609982726979e-06 -5.6626199745785494e-06 0.0000000000000000e+00  -2.2805069352405771e-06 1.1344890200786975e-06 0.0000000000000000e+00  -2.9980638827198656e-06 -8.9767862492879033e-07 0.0000000000000000e+00  8.1662649613932743e-06 -4.0503323798675394e-06 0.0000000000000000e+00  -5.6225024229686589e-06 2.2335616727941219e-07 0.0000000000000000e+00  -1.3768802623472563e-06 -4.5853019806479733e-07 0.0000000000000000e+00  3.2096323790155723e-06 -2.8016993601977979e-06 0.0000000000000000e+00  1.4754527976940629e-06 -1.9682194605178488e-06 0.0000000000000000e+00  -2.2345729779371389e-06 -1.1818616626234706e-07 0.0000000000000000e+00  -8.8731469784445205e-07 -9.8271271564770195e-07 0.0000000000000000e+00  1.0287343801062054e-06 -2.0696200590856122e-06 0.0000000000000000e+00  -8.9292623333526714e-08 5.9551717728119472e-07 0.0000000000000000e+00  -7.2772857911328700e-07 -8.2278508576422561e-07 0.0000000000000000e+00  2.3743730244242738e-06 -8.9206839731943055e-07 0.0000000000000000e+00  4.8717346367831103e-07 -5.7437346236926119e-07 0.0000000000000000e+00  -2.1389421760833418e-06 -2.7678938981937426e-06 0.0000000000000000e+00  -2.6410086137319429e-07 1.0603873423961106e-06 0.0000000000000000e+00  1.1416494966211322e-06 -5.5746699614708937e-07 0.0000000000000000e+00  4.6438777483330267e-07 -5.7379103498175682e-07 0.0000000000000000e+00  3.1312990849856209e-07 -1.2166835123055173e-07 0.0000000000000000e+00  4.2711711246713431e-07 -1.8282918193882191e-07 0.0000000000000000e+00  1.6545064932158386e-08 -3.2746249080108843e-07 0.0000000000000000e+00  -2.8351583286907603e-08 2.3648053322952357e-07 0.0000000000000000e+00  2.2094862244082806e-07 4.1630196275796905e-08 0.0000000000000000e+00  4.0360456373043502e-07 4.1419250091430239e-07 0.0000000000000000e+00  -3.2359728382969599e-07 -7.3908499812306960e-07 0.0000000000000000e+00  -9.8258371372781385e-08 5.1585247288756503e-07 0.0000000000000000e+00  4.0333464619411186e-07 -1.6521934596286918e-07 0.0000000000000000e+00  3.0327176285989999e-07 4.8639323979044665e-07 0.0000000000000000e+00  -2.7518293973673737e-07 1.2524673936428874e-07 0.0000000000000000e+00  4.1531596008304194e-07 5.3678644977529949e-07 0.0000000000000000e+00  -6.6102390127580959e-07 -4.8381175172224010e-07 0.0000000000000000e+00  7.2281128668414251e-08 6.5908378147879395e-07 0.0000000000000000e+00  9.2670081873949858e-07 6.4987678002535896e-07 0.0000000000000000e+00  -2.4505882537216317e-07 7.5297190840885834e-07 0.0000000000000000e+00  2.4769608951363038e-07 3.0947333424445154e-07 0.0000000000000000e+00  -9.5732598363665005e-08 6.2366756141102540e-08 0.0000000000000000e+00  1.2606452120177706e-07 -2.7093268277768830e-08 0.0000000000000000e+00  -1.9350633595354706e-07 -7.7298525526522622e-08 0.0000000000000000e+00  -3.8849295213916547e-08 -3.0036492361777431e-07 0.0000000000000000e+00  2.8433225189332373e-06 -5.8529690044984322e-07 0.0000000000000000e+00  -5.7998399547450652e-06 -4.6746660324965063e-07 0.0000000000000000e+00  6.7578655858568866e-06 5.3657503286172922e-07 0.0000000000000000e+00  4.9483819545119398e-07 2.1046334733015983e-06 0.0000000000000000e+00  2.3135558564694254e-06 1.6748666456042363e-06 0.0000000000000000e+00  -1.2468628613669967e-08 -8.1099013874352092e-07 0.0000000000000000e+00  2.6715697051713192e-07 1.0560391812471376e-06 0.0000000000000000e+00  -9.8049697003882586e-07 2.9376985774847031e-07 0.0000000000000000e+00  4.5235994288858471e-08 4.7332727171613567e-07 0.0000000000000000e+00  -1.2940025632036714e-07 2.7682196448190589e-07 0.0000000000000000e+00  -1.1468232563308681e-06 1.6562954492635496e-08 0.0000000000000000e+00  8.7514235443845634e-07 -1.8779028063380297e-06 0.0000000000000000e+00  -8.7052368806944963e-07 -1.1127969013827629e-07 0.0000000000000000e+00  3.3289958348170249e-07 1.8559129903894520e-06 0.0000000000000000e+00  -4.6119698753933362e-07 2.6945572837092431e-08 0.0000000000000000e+00  -2.5517802477169103e-07 2.9735050722466801e-07 0.0000000000000000e+00  -4.0695651906464594e-07 3.4721752429742013e-07 0.0000000000000000e+00  -3.1007732201585376e-07 5.7378240873117072e-08 0.0000000000000000e+00  -1.2114637142820296e-07 -3.9100511857180237e-08 0.0000000000000000e+00  3.5528741981909167e-08 -4.0375674969316557e-07 0.0000000000000000e+00  3.2507929101622806e-07 -1.2753718960835138e-07 0.0000000000000000e+00  -6.5006245315815581e-08 2.3142834202508784e-07 0.0000000000000000e+00  1.0405816678914322e-06 -3.0409132557690774e-07 0.0000000000000000e+00  4.9502312850387148e-07 3.1702973376224676e-07 0.0000000000000000e+00  5.0924474272643157e-07 5.1427418274121009e-07 0.0000000000000000e+00  5.2439377375140375e-07 7.8346790255202612e-07 0.0000000000000000e+00  4.0707961242674410e-08 9.8164752341010113e-07 0.0000000000000000e+00  -1.2605697128622196e-07 1.1580310324103928e-06 0.0000000000000000e+00  -9.8298026105016725e-07 9.8729739630590800e-07 0.0000000000000000e+00  -1.5733902214586957e-06 6.8687857540816986e-07 0.0000000000000000e+00  -1.8679740441869366e-06 4.6801388796486019e-07 0.0000000000000000e+00  -2.2624611122235920e-06 -9.5648183733313824e-08 0.0000000000000000e+00  -2.4722832887181429e-06 -6.1777095676714846e-07 0.0000000000000000e+00  -2.4725868042171571e-06 -9.5236798596472319e-07 0.0000000000000000e+00  -2.7566402246461026e-06 -2.6512564414126776e-06 0.0000000000000000e+00  -2.2648803363488361e-06 -1.4316499127040080e-06 0.0000000000000000e+00  -2.2329697808796506e-06 -5.7032377291406344e-07 0.0000000000000000e+00  -2.0129075706738159e-06 -3.0515750906390667e-06 0.0000000000000000e+00  -1.7043663872614053e-06 -2.9211312951953000e-06 0.0000000000000000e+00  -1.3120186526905419e-06 -3.8212501807915966e-06 0.0000000000000000e+00  -1.3618006595383333e-06 -2.5761866384261122e-06 0.0000000000000000e+00  -2.4051546301631235e-06 -1.2904628974040175e-06 0.0000000000000000e+00  3.2214444977410223e-06 -8.6814092861369072e-06 0.0000000000000000e+00  -6.0374038848892839e-06 4.9984625130758962e-06 0.0000000000000000e+00  -2.5980649015843674e-06 -2.4179180567288850e-06 0.0000000000000000e+00  2.8580451000735270e-07 -2.1619310512427208e-06 0.0000000000000000e+00  3.9233356791399184e-07 -4.8049953798209588e-06 0.0000000000000000e+00  -8.4266297216381466e-06 5.3920673713725428e-06 0.0000000000000000e+00  6.0982075023866788e-06 -4.8674488617052365e-06 0.0000000000000000e+00  -4.7752121316118971e-06 -2.9413207848683614e-06 0.0000000000000000e+00  -1.0214495839009202e-06 5.3815612184192963e-07 0.0000000000000000e+00  6.8421676719540192e-07 -9.7805133471551180e-06 0.0000000000000000e+00  3.7031486236395290e-07 7.6501246331959599e-07 0.0000000000000000e+00  -1.7737568079295524e-06 2.3412018241657314e-07 0.0000000000000000e+00  1.0863843079377782e-06 -1.5212463101325945e-06 0.0000000000000000e+00  1.2220643939841466e-06 -2.3672906443996777e-06 0.0000000000000000e+00  -2.9323419146856427e-06 -5.3040649222431368e-07 0.0000000000000000e+00  6.7570535858501358e-07 -1.1078552208579353e-06 0.0000000000000000e+00  7.3606867350466732e-07 -8.6057690717305470e-07 0.0000000000000000e+00  -1.7531335714327361e-07 1.9831373379756760e-07 0.0000000000000000e+00  7.0871187295632567e-07 -8.0889671871179350e-07 0.0000000000000000e+00  -5.3291009706081570e-07 -2.8296393832028500e-07 0.0000000000000000e+00  -1.1767853334834247e-06 2.3383831663392087e-08 0.0000000000000000e+00  1.1678482393191456e-07 3.6649501157765561e-08 0.0000000000000000e+00  -3.1863442653883530e-07 -3.9965910978841913e-07 0.0000000000000000e+00  4.6693938997311019e-09 1.1090661696565567e-07 0.0000000000000000e+00  -2.3152694689118832e-07 -1.1754276859764105e-07 0.0000000000000000e+00  6.8538556429085523e-08 1.0380645679950734e-07 0.0000000000000000e+00  2.6903349082182842e+02 -1.1412866374374385e+03 0.0000000000000000e+00  -1.0093398890123739e+03 -4.2565768596851274e+02 0.0000000000000000e+00  1.8244895339629020e+03 -1.1307007739587386e+03 0.0000000000000000e+00  3.0443848351260522e+02 2.3410671967096628e+03 0.0000000000000000e+00  -1.0914017598853388e+03 4.5577812596390606e+02 0.0000000000000000e+00  1.3348263921106158e+00 -3.5048189885081960e+00 0.0000000000000000e+00  -1.0491897557669554e+03 -9.9951653567404037e+02 0.0000000000000000e+00  3.6020056597078067e+00 -7.7496519135518679e+02 0.0000000000000000e+00  -4.9653614336637524e+01 -8.4748534199467792e+02 0.0000000000000000e+00  4.7866554050305956e+02 -8.9803912143538219e+02 0.0000000000000000e+00  3.5427864668648039e+02 -2.3638453177347142e+03 0.0000000000000000e+00  2.7138649961361571e+03 -2.2594699666988308e+03 0.0000000000000000e+00  -4.8967570572576250e+02 -1.3408628159700295e+03 0.0000000000000000e+00  -9.8765794339406796e+02 6.6496586330085745e+02 0.0000000000000000e+00  1.7496061532881973e+02 -2.7431600445890075e+02 0.0000000000000000e+00  -7.7800436217417678e+02 -6.3373044319760390e+02 0.0000000000000000e+00  -4.8077840987407978e+02 4.0890571693070848e+02 0.0000000000000000e+00  3.6534232010925962e+01 6.6957646015833996e+02 0.0000000000000000e+00  3.0552820433682996e+03 1.2161716391736406e+03 0.0000000000000000e+00  1.4203014635620906e+02 -1.9198147130720287e+01 0.0000000000000000e+00  -4.0943648851698850e+02 -5.9140308965143738e+01 0.0000000000000000e+00  -4.9436208483692968e+02 -1.1697017092502754e+03 0.0000000000000000e+00  -3.7681212665587657e+02 6.5741883365411729e+02 0.0000000000000000e+00  1.0693923046742934e+03 5.0226195665796183e+02 0.0000000000000000e+00  4.0423690013530141e+01 7.2094735361905578e+01 0.0000000000000000e+00  -7.7910616242770118e+02 -1.4349610738737144e+03 0.0000000000000000e+00  2.5687073989241480e+03 1.4614139837367957e+03 0.0000000000000000e+00  6.8142570124899189e+00 -1.2852269309146243e+02 0.0000000000000000e+00  3.2937402932705574e+01 -3.1632823107061006e+02 0.0000000000000000e+00  -8.2815190373901214e+02 -9.2002660811936494e+02 0.0000000000000000e+00  -5.7636762949633450e+01 -1.8417188554696568e+02 0.0000000000000000e+00  1.2336336057770609e+02 1.4241652249054593e+02 0.0000000000000000e+00  4.4651488446425930e+02 8.7730355559667737e+02 0.0000000000000000e+00  1.6558483554709593e+02 5.7737339561067579e+01 0.0000000000000000e+00  -1.0733798093956288e+02 -6.1019711632552242e+02 0.0000000000000000e+00  1.1472376341583319e-01 2.4386184715328832e+02 0.0000000000000000e+00  -2.8425102393349152e+02 -1.9077674529466913e+03 0.0000000000000000e+00  -1.4668670449021832e+02 -1.2174310919683974e+03 0.0000000000000000e+00  1.1682010519842643e+02 -1.6255003796782221e+03 0.0000000000000000e+00  6.7846556007656386e+02 -1.8131922656512475e+03 0.0000000000000000e+00  1.9102401825465350e+02 -9.5979902401873619e+02 0.0000000000000000e+00  2.8696585600608877e+01 -2.4962505270237600e+02 0.0000000000000000e+00  -7.1226073510558185e+00 -1.5013449500565034e+02 0.0000000000000000e+00  4.1128387657322776e+00 -2.5592807171574148e+02 0.0000000000000000e+00  -1.1428980248881996e+02 -6.2407424146836104e+02 0.0000000000000000e+00  1.1137745586166639e+03 2.9988498685215914e+03 0.0000000000000000e+00  3.4299985758576167e+03 2.2298583615040802e+03 0.0000000000000000e+00  1.8698604359095455e+03 2.3929897456254234e+03 0.0000000000000000e+00  3.4999835847541617e+03 -6.6459344698135328e+02 0.0000000000000000e+00  4.0940301094375282e+03 2.2657391147796044e+01 0.0000000000000000e+00  1.0485977724211583e+02 -2.0967335523102565e+02 0.0000000000000000e+00  -2.7812978663188829e+02 -6.2199195846347391e+02 0.0000000000000000e+00  1.2980157953833623e+02 -3.1310581394111903e+01 0.0000000000000000e+00  1.2369310416249725e+03 -1.3061211505524594e+02 0.0000000000000000e+00  -2.0456568609113765e+02 1.5823838881286676e+02 0.0000000000000000e+00  -8.3167084100515945e+02 -1.4164435871591422e+03 0.0000000000000000e+00  -6.4226658328974497e+02 -1.8758220833332691e+03 0.0000000000000000e+00  -1.6577471908306560e+01 -5.4381885374149181e+02 0.0000000000000000e+00  -2.1037467283212300e+02 -9.0047740148029675e+02 0.0000000000000000e+00  -1.1085379262627701e+02 1.9426011914965099e+02 0.0000000000000000e+00  -6.6792734392122155e-01 2.5014910442200611e+00 0.0000000000000000e+00  8.2630316828039588e+02 -2.7425745428146359e+02 0.0000000000000000e+00  5.3573926684705600e+02 -3.6172132912701568e+02 0.0000000000000000e+00  -8.3418123353083047e+02 -7.1747405254818170e+02 0.0000000000000000e+00  -9.2971653106766530e+02 -4.1400800446785678e+02 0.0000000000000000e+00  -1.4675777460583233e+03 -9.5908397058218861e+02 0.0000000000000000e+00  -1.6564412471900685e+03 -2.2114538850023283e+02 0.0000000000000000e+00  -1.2948736415072892e+03 8.1053590933877160e+01 0.0000000000000000e+00  -1.0881242426364167e+03 5.3364242713743693e+02 0.0000000000000000e+00  -1.4468904939431280e+02 1.2520243216140254e+03 0.0000000000000000e+00  5.7215343553516800e+02 1.0326037314539469e+03 0.0000000000000000e+00  2.5619148683658676e+02 -4.4022956751259335e+02 0.0000000000000000e+00  -6.9102586575735202e+01 -8.2228789342641414e+02 0.0000000000000000e+00  -9.4579205023102202e+02 7.6467972405004332e+01 0.0000000000000000e+00  -1.8929510527933846e+02 9.3488792289955802e+02 0.0000000000000000e+00  -4.9077184620141622e+02 7.0898834000618569e+02 0.0000000000000000e+00  -6.9194315113736752e+02 2.9806283024575862e+02 0.0000000000000000e+00  2.9585936454219400e+03 -1.7518642792142439e+03 0.0000000000000000e+00  1.1416985187811983e+03 -2.7232336693335769e+03 0.0000000000000000e+00  1.4853238452765991e+03 -2.1483990663028103e+03 0.0000000000000000e+00  -2.1477312224392711e+02 2.9196527670106192e+01 0.0000000000000000e+00  4.3729935156323376e+02 5.2957852782925056e+02 0.0000000000000000e+00  4.2432813986777779e+02 1.7690701739804058e+02 0.0000000000000000e+00  3.4859588397410079e+02 -2.9460222291471752e+02 0.0000000000000000e+00  -5.7628465392974545e+02 -6.9961242841245291e+02 0.0000000000000000e+00  1.0136399093121120e+03 -1.1632304684682365e+03 0.0000000000000000e+00  -1.9852430014573480e+02 6.0868909276187617e+02 0.0000000000000000e+00  -7.7641704104166308e+02 7.7546806239840521e+02 0.0000000000000000e+00  -9.3499350483609490e+01 3.4112853733782163e+02 0.0000000000000000e+00  -5.4566920304741404e+02 -1.2670671432180436e+02 0.0000000000000000e+00  -1.0302820703527250e+03 -1.0854743075711394e+02 0.0000000000000000e+00  -4.3122405853771028e+02 1.6164254784504910e+03 0.0000000000000000e+00  -7.0073334549587457e+02 1.5349062614834806e+03 0.0000000000000000e+00  4.0678646563516048e+02 -6.1040237514201586e+01 0.0000000000000000e+00  6.5306062312144502e+02 -8.0776196224584817e+02 0.0000000000000000e+00  6.6614990170091460e+02 -6.1342485779933554e+02 0.0000000000000000e+00  4.6317341755133361e+02 1.1020555637278765e+03 0.0000000000000000e+00  2.6508179347879627e+02 1.2662456826751049e+03 0.0000000000000000e+00  -1.4501071701408221e+03 4.6575083002467960e+02 0.0000000000000000e+00  -8.5972180560829372e+02 1.0603282971314800e+03 0.0000000000000000e+00  -5.8293049139950324e+02 -8.3229651788299714e+02 0.0000000000000000e+00  -1.0931655333135752e+03 -4.6305136985049251e+02 0.0000000000000000e+00  1.0906461108598355e+03 -3.5030178332344190e+02 0.0000000000000000e+00  -4.1721353046759589e+02 -5.0396340326387065e+02 0.0000000000000000e+00  -3.6266828150341843e+02 -1.0570989118660139e+03 0.0000000000000000e+00  1.0297305279161628e+03 6.3254673869275678e+02 0.0000000000000000e+00  1.1629741582033046e+03 5.9512421134337302e+01 0.0000000000000000e+00  2.8999431297562987e+03 -3.8535219786604785e+02 0.0000000000000000e+00  -5.9605217790840175e+02 -1.9732601186005947e+01 0.0000000000000000e+00  3.6869939132081825e+01 -1.7347912238867959e+01 0.0000000000000000e+00  -7.2371560667941822e+02 -2.6913985730249249e+02 0.0000000000000000e+00  -1.4842780448917688e+02 -2.3413652733661993e+03 0.0