<?xml version="1.0"?>
<VTKFile type="UnstructuredGrid"  version="0.1"  >
<UnstructuredGrid>
<Piece  NumberOfPoints="2549" NumberOfCells="4928">
<Points>
<DataArray  type="Float64"  NumberOfComponents="3"  format="ascii">1.473403874342973 0.03191745664817678 0  1.469006687948756 0.05495770150123924 0  1.445257754917852 0.06382438635291013 0  1.433176975206809 0.08001465880635267 0  1.428071943677687 0.09201547643731162 0  1.423677018435114 0.1155900557324889 0  1.404260325650583 0.1201526440008067 0  1.373501643841821 0.1264235397232145 0  1.394839991146794 0.1531777786179525 0  1.195081037750726 0.3974574540729673 0  1.386794118634233 0.1768511041346873 0  1.377784831446575 0.2139851928542062 0  1.339374840211271 0.2316131537938729 0  1.337525494197185 0.2589500464547553 0  1.334336075188132 0.2905974274943028 0  1.31603814768031 0.3232623581666093 0  1.308031960638103 0.3578623092998088 0  1.287480633765328 0.3685819026839668 0  1.273553137803415 0.4198086520738731 0  1.2617725909843 0.4604731344588099 0  1.241599418266295 0.5047456981868843 0  1.223548142259627 0.5503877797958703 0  1.200893949936197 0.5978524773475616 0  1.17800851915137 0.6492612730447883 0  1.15333740019847 0.7063645830526283 0  1.111706633715777 0.7375924118930375 0  1.085070018029611 0.7929028245230915 0  1.052847784564305 0.8503923678847221 0  1.011747024523934 0.9033698785319498 0  0.9689113908451252 0.9591592695758184 0  0.9217741500184924 1.013729967137824 0  0.8695983417627742 1.068826955775921 0  0.8139423426412757 1.121424733166935 0  0.7549743077491766 1.170904636517414 0  0.689140141006038 1.221440319646125 0  0.620485877896419 1.268278170575623 0  0.5466175003987793 1.311488370989656 0  0.4687778601056338 1.350753239107743 0  0.3872101413085511 1.384711547339879 0  0.3017768622481667 1.413695667724688 0  0.2137999895696742 1.436338220216474 0  0.1243533243274027 1.451574177606834 0  0.03239308761883896 1.461370590894293 0  -0.0594887340843286 1.463119933091049 0  -0.1515831794120817 1.457833156687959 0  -0.2422678582263161 1.44470429514585 0  -0.3312694479644944 1.425290006838556 0  -0.4174626059523758 1.396984074435263 0  -0.4996203745598734 1.365654084019001 0  -0.5791702240132 1.327547778869264 0  -0.6540413741234399 1.282575315945345 0  -0.7243643390309434 1.2347105338056 0  -0.7896451488918014 1.182452790392297 0  -0.8505613002916056 1.127550951212062 0  -0.9051515791612651 1.07097783181379 0  -0.9585777794577164 1.01056663505504 0  -1.001012566979806 0.9577055882707065 0  -1.046160009030479 0.9043626934188801 0  -1.08531231461277 0.8425714562807395 0  -1.11974184608835 0.7848570299357887 0  -1.148630379222513 0.7286157458388566 0  -1.172413575341801 0.6682726739537034 0  -1.20475153804626 0.6286595307384739 0  -1.218862938090823 0.5515212816128581 0  -1.219186105233294 0.5114566353316725 0  -1.263491020303941 0.5009488724740078 0  -1.278468169948164 0.4501764747182449 0  -1.28794982040186 0.4115168226468405 0  -1.295154415967271 0.3729292382131529 0  -1.320746108991613 0.3509110016296845 0  -1.329829416317356 0.3015462597095535 0  -1.305472804886359 0.3240231007481312 0  -1.376368963801367 0.2892534742084784 0  -1.370755948246574 0.1943579132106133 0  -1.367898097975714 0.1695139521372042 0  -1.372202220056863 0.1366626250281429 0  -1.386577942218755 0.1201413619378975 0  -1.397910802934263 0.0875454187453875 0  -1.396467893662532 0.1127509351416373 0  -1.386868080858995 0.02385273844348446 0  -1.400761381945614 0.09678494875269729 0  -1.418362913645792 0.1605413461751491 0  -1.467884656268095 0.08663781349090963 0  -1.478080399448071 0.05723442042470098 0  -1.503206007301313 0.03127985526071971 0  -1.488118258089892 0.003794272965299762 0  -1.47446258072624 -0.02870019721199948 0  -1.497662345029968 -0.4891692403856718 0  -1.398318423845134 -0.04245319258660787 0  -1.346269213751971 0.4609466368224464 0  -1.442742520984093 -0.05787040702284777 0  -1.453958561972657 0.01680910372971222 0  -1.418725313399215 -0.1223676902772342 0  -1.392596295237418 -0.08633447620885394 0  -1.376316015217816 -0.100032038757415 0  -1.382588717089693 -0.1231220330521806 0  -1.398763942731964 -0.2405873741078867 0  -1.329418981020955 -0.3473498828161488 0  -1.360674836256266 -0.2392699910462781 0  -1.357804229467688 -0.2969230861694666 0  -1.323732997837772 -0.3238538019629059 0  -1.329627755426275 -0.3617098999840989 0  -1.327918809221292 -0.401268441836485 0  -1.347914961729994 -0.4485120487047395 0  -1.238732780489674 -0.4669021272957138 0  -1.209074428151029 -0.4999561076090758 0  -1.251880476452862 -0.6173641199697175 0  -1.199774438100674 -0.637520922236344 0  -1.189068067803279 -0.7019872477090731 0  -1.162632255987803 -0.765577764501668 0  -1.141904752412034 -0.8290327798488499 0  -1.098075266889441 -0.9096172219074717 0  -1.032800933719831 -0.9334798280918986 0  -1.009117443746535 -1.006820105726102 0  -0.9550148927298613 -1.089255158630591 0  -0.8979662408105921 -1.143111814055399 0  -0.8367884080114687 -1.211618182466339 0  -0.7700030696771953 -1.270665801897421 0  -0.6977051490480399 -1.327766664802051 0  -0.6181715782349524 -1.380229065463734 0  -0.5361659460415386 -1.428463956133347 0  -0.450519848838334 -1.465876623681223 0  -0.3576089942677313 -1.5012639549686 0  -0.2637312502645774 -1.528416209562828 0  -0.165810755162024 -1.546819300319527 0  -0.06675160445414269 -1.556840493651767 0  0.03323483605362352 -1.557850938086321 0  0.1328174179738335 -1.549991587995255 0  0.2310832805713884 -1.533286801283131 0  0.3267903355747492 -1.50820982066927 0  0.4194306010509858 -1.475726122858073 0  0.5081196512667953 -1.436021492779065 0  0.5921026599079267 -1.390175642894573 0  0.6713962982317416 -1.338783947492003 0  0.7440895477027136 -1.283509328114942 0  0.8144159427026221 -1.223012274544587 0  0.8742629713930495 -1.166475983764983 0  0.9314409206133161 -1.105283438746198 0  0.9855417660138684 -1.040289042214992 0  1.032634699293409 -0.9766062892197889 0  1.075282073732782 -0.9125274753470567 0  1.114101168415417 -0.8504408043091276 0  1.146697943737142 -0.7876481214998073 0  1.174277311990216 -0.7263979625625515 0  1.208202572640636 -0.6825970719868978 0  1.231361144090619 -0.6223583528463154 0  1.253944771021994 -0.5663685905756446 0  1.271749408378069 -0.5122196301247161 0  1.284350198640254 -0.4632316692583446 0  1.289474433675746 -0.4086389834452578 0  1.315761008929962 -0.3816604100108008 0  1.31832654570953 -0.3020259379841432 0  1.296530422039256 -0.3174863939830931 0  1.349217508900341 -0.2736102244024213 0  1.366853309503127 -0.2255957387363322 0  1.362419179535173 -0.1943146493591419 0  1.367383483079509 -0.1646594037175514 0  1.377057469105359 -0.1364735920192769 0  1.375430403019848 -0.1020698892182732 0  1.36370135548303 0.8234777832622094 0  1.409580040058276 -0.07854638763085547 0  1.404597082788759 -0.08707299679316728 0  1.411884329931807 -0.05653233205691346 0  1.430684830035288 -0.04305934920237457 0  1.430024718786663 -0.02285823396848187 0  1.439645972817388 -0.01189893700515141 0  1.446368124592104 0.003660877992964281 0  1.466194684424374 0.01154715595970249 0  -0.09679991809546323 0.8836575667098975 0  0.6909864781320396 -0.5049002092994613 0  -0.8067063235062281 -0.3860866491514889 0  -0.07530286222984203 -0.943492788417343 0  0.6519310798936931 0.4973636064238051 0  1.091138609616664 0.1166360043890611 0  -0.7944677078520672 0.4037181402147084 0  -1.157192435568319 0.02818580519278244 0  1.101790729022265 -0.06307224602244793 0  -1.039380405126085 -0.1761973311532238 0  -0.7337457817012178 0.01370030565991909 0  -0.4390560084262223 -0.1400541383095716 0  -1.02835756204416 0.2089065794657474 0  0.3816504402606699 -0.8309404267799447 0  0.08472809162894825 -0.3046532523250076 0  0.3065962585274143 0.7686011879685855 0  0.2197354712734836 0.183866478693496 0  0.5636109673513169 0.01762867580530443 0  -0.4816400485476041 -0.6967344057722177 0  -0.5028224121487707 0.6898772425627239 0  -0.2388709303021873 0.3047575324470902 0  0.919729920099433 -0.2116196188537044 0  0.8980486561535164 0.2474420968129657 0  0.3542213404924784 -0.2142537086256489 0  -0.009885531101609116 0.2299570322916046 0  -0.4914635276796665 0.2088794511356123 0  -0.1883142581432099 -0.2801725812910507 0  0.8640466145209685 0.02286904230692543 0  1.250784626608497 0.03251591414741711 0  0.8058030906784284 -0.3389859997553324 0  0.720573552935493 -0.1063504222791892 0  0.5870824654283278 -0.2070955537385406 0  0.4424855850584974 -0.0763837135000827 0  0.5152248926390098 -0.3701948207035075 0  0.8658936342090517 -0.08204768562987595 0  0.7160983594968815 0.02012775554167801 0  -0.8599636186927423 0.121849490363021 0  -1.073597117031887 0.1000104293767874 0  -0.949772801455517 0.02212671887363805 0  -0.8673347191015369 -0.08973147762062855 0  -1.077407870404139 -0.05281382708097259 0  -1.241535672247243 -0.08124810948646788 0  -1.314339827890701 0.003634430462960261 0  -1.310012585841424 0.0589431638507743 0  -1.230520862444505 0.1397855885364069 0  -0.1298785521501452 -0.6116321134335727 0  -0.3021791647849251 -0.5038208799474174 0  -0.2913336366243651 -0.8423361567848829 0  -0.3091392996331759 -0.2027690659777196 0  -0.4525054570469215 -0.402311479528047 0  -1.23150592433339 -0.1991258116053239 0  -1.212287933156574 0.244769814493746 0  0.3840684387532903 -0.5021784050688528 0  0.2174331402506094 -0.2461996927357294 0  0.244197000105431 -0.5607389244342055 0  -0.91184530186188 0.290967618513461 0  -0.7277933681850615 0.1898817967814485 0  1.2721695715854 -0.07794319486726743 0  1.209234513529359 -0.1762270836997171 0  1.188724847456974 0.2280382136297952 0  1.264241487309786 0.1413911587762696 0  -0.9128737187334359 -0.6534487369861319 0  -1.047048538710231 -0.4469046038891205 0  -1.021008909850462 0.4748298450050991 0  -0.8859358769869852 0.6620382370635396 0  0.9427907296196749 -0.6042085870832451 0  0.776606313218438 -0.8227353987866338 0  0.7324680688333889 0.7934787647362348 0  0.9008819555883799 0.6079890465573312 0  0.045163277157299
[...]
<PointData  Vectors="f_48"> 
<DataArray  type="Float64"  Name="f_48"  NumberOfComponents="3" format="ascii">-3.8286425159866393e-07 -9.7547340907030656e-08 0.0000000000000000e+00  8.8846330352308755e-07 -7.3003146629150639e-07 0.0000000000000000e+00  1.8498739437387583e-06 4.3696047116370429e-07 0.0000000000000000e+00  1.5189584065759355e-06 -1.2864941176027417e-06 0.0000000000000000e+00  1.0399599460518903e-06 -1.4919706993547450e-06 0.0000000000000000e+00  1.7745114563905465e-06 -8.9996379216548039e-07 0.0000000000000000e+00  -1.2586831556397971e-06 5.6029662237376568e-06 0.0000000000000000e+00  1.3967518711878146e-05 -1.2770787550589644e-06 0.0000000000000000e+00  2.1813717518835702e-06 -4.7373016209653920e-07 0.0000000000000000e+00  -8.7120189901645364e-07 1.8784654759010604e-07 0.0000000000000000e+00  1.7513513619894746e-06 -4.3128568177750880e-07 0.0000000000000000e+00  -9.1175411999485005e-07 -9.4082978822842987e-07 0.0000000000000000e+00  7.5318679301898177e-06 1.2875244318193034e-06 0.0000000000000000e+00  -3.9775825579804787e-06 -2.2661535267721830e-06 0.0000000000000000e+00  1.8771374597856923e-06 -1.4452664718422704e-07 0.0000000000000000e+00  -3.1098917674201556e-07 -1.2082462864025942e-06 0.0000000000000000e+00  7.6802438847210985e-07 -1.8189921032684130e-07 0.0000000000000000e+00  2.2631082294281126e-06 -6.4045083945997194e-07 0.0000000000000000e+00  -1.6448741531820531e-06 -4.9222904758758267e-07 0.0000000000000000e+00  3.9804553865843493e-07 1.6496448598939765e-07 0.0000000000000000e+00  -2.9354259768273991e-07 1.0342739778145185e-07 0.0000000000000000e+00  8.8208257938483029e-08 5.8210811144649531e-07 0.0000000000000000e+00  -6.6818538975206473e-07 1.8026076372848631e-07 0.0000000000000000e+00  1.3062358988468443e-06 1.8868421971132339e-06 0.0000000000000000e+00  -6.0861939375562954e-07 1.9258630990522984e-07 0.0000000000000000e+00  -1.6185405564516890e-06 -1.0602456374708056e-06 0.0000000000000000e+00  2.6928939892364702e-06 4.8652236915928495e-06 0.0000000000000000e+00  -1.5496910535216228e-06 8.1521419333801673e-08 0.0000000000000000e+00  -6.7051723212931791e-07 2.3835825793170670e-07 0.0000000000000000e+00  -9.6806002745976805e-07 1.9374713621719974e-06 0.0000000000000000e+00  -1.0465222376818623e-06 3.7147674424344059e-07 0.0000000000000000e+00  -1.2433433738727344e-06 1.3049283958891148e-06 0.0000000000000000e+00  -1.2119060423302030e-06 2.1782033842363404e-07 0.0000000000000000e+00  -1.2758842019271084e-06 3.3630464687382834e-07 0.0000000000000000e+00  -1.5795063890441095e-06 9.8843511873770180e-07 0.0000000000000000e+00  -1.4405431554499290e-06 2.4800521270296969e-07 0.0000000000000000e+00  -1.4267398947266951e-06 2.0982569764183546e-07 0.0000000000000000e+00  -1.4769741037359941e-06 5.8565948974648029e-09 0.0000000000000000e+00  -1.1831080707510008e-06 -2.8865069446571567e-07 0.0000000000000000e+00  -1.4896830317609325e-06 -1.9818847530218404e-07 0.0000000000000000e+00  -4.8941967239238857e-07 -7.7921412789084752e-07 0.0000000000000000e+00  -5.1110037484485845e-07 -6.4030834924186426e-07 0.0000000000000000e+00  -4.7664538502204272e-07 -7.5257027218291089e-07 0.0000000000000000e+00  -8.6221612784994585e-08 -5.8907720935265859e-07 0.0000000000000000e+00  1.2605189185689633e-07 -5.7375704023812746e-07 0.0000000000000000e+00  -4.7517848448592593e-08 -4.0183631775251750e-07 0.0000000000000000e+00  3.2691490903041677e-07 -2.1649432031361977e-07 0.0000000000000000e+00  1.9243582619391509e-07 2.4571811355096768e-10 0.0000000000000000e+00  -4.8467007615437396e-08 -1.6339220780468582e-07 0.0000000000000000e+00  -1.6621142258633344e-08 1.6307399268230428e-07 0.0000000000000000e+00  -2.6400987431191423e-07 3.4639373827545865e-10 0.0000000000000000e+00  -3.9710997111641731e-07 -1.0286191349054418e-08 0.0000000000000000e+00  -4.9364790596470017e-07 -1.5154570143368137e-07 0.0000000000000000e+00  -6.3883241234470278e-07 -4.2131271363182739e-07 0.0000000000000000e+00  -6.0430026480015972e-07 -3.0400649064142063e-07 0.0000000000000000e+00  -6.3278310174919249e-07 -1.1185973135114428e-06 0.0000000000000000e+00  -6.7117442143368224e-07 5.3653355128322253e-07 0.0000000000000000e+00  -1.0774687911457892e-06 1.0378374305674789e-07 0.0000000000000000e+00  2.0795559375654256e-07 -2.0290765307505177e-06 0.0000000000000000e+00  -1.3415686509133167e-06 5.7605196803839623e-07 0.0000000000000000e+00  1.5838694950872749e-06 -3.1179691684676240e-06 0.0000000000000000e+00  -1.4545415282797266e-06 1.0110687885160845e-06 0.0000000000000000e+00  -4.7923215427499747e-07 -7.3760110480538182e-07 0.0000000000000000e+00  8.5960442565743410e-07 -5.8779539378524107e-07 0.0000000000000000e+00  3.5816686951089259e-07 -3.7780755033194371e-08 0.0000000000000000e+00  8.3316410418954590e-07 -2.8406901741821480e-07 0.0000000000000000e+00  -7.3445077766958714e-07 5.1323867060890128e-07 0.0000000000000000e+00  -2.0676313405803096e-07 -9.3862195535678806e-08 0.0000000000000000e+00  4.2493029086687949e-07 1.5294186999312312e-07 0.0000000000000000e+00  9.2557892876514160e-08 3.0884483815039658e-08 0.0000000000000000e+00  3.0912976992409608e-07 4.8861504556413709e-07 0.0000000000000000e+00  1.3952189461734658e-07 -1.3575593799228335e-07 0.0000000000000000e+00  4.2527968009048764e-07 7.1090656469633057e-08 0.0000000000000000e+00  -5.6872617989101507e-07 -5.9952699211281093e-08 0.0000000000000000e+00  -1.7783267920148685e-07 2.2899019553618708e-08 0.0000000000000000e+00  5.1921467284203790e-07 6.7495998967800235e-07 0.0000000000000000e+00  8.0839928533148382e-07 1.6042189245085265e-07 0.0000000000000000e+00  -5.9297204698238035e-07 -3.5659196685312584e-08 0.0000000000000000e+00  -9.9834633344125742e-09 2.9500397223305936e-07 0.0000000000000000e+00  -1.9099895902464534e-07 -1.6472171671747183e-07 0.0000000000000000e+00  -2.1277844920253676e-07 1.2664220702975411e-07 0.0000000000000000e+00  2.1479482611209787e-07 1.5328536885997889e-07 0.0000000000000000e+00  1.8081464417409831e-07 1.0324078848727691e-07 0.0000000000000000e+00  4.4321211204015428e-07 1.8980744246850690e-08 0.0000000000000000e+00  5.0582859332280368e-07 7.7387344961029301e-07 0.0000000000000000e+00  -5.8958413058354203e-07 -8.4540780480353338e-07 0.0000000000000000e+00  -1.0090475714705151e-07 4.3066336262854465e-07 0.0000000000000000e+00  1.5618841897973143e-07 -1.0345244393054007e-07 0.0000000000000000e+00  2.1059420569192143e-07 5.4113810264534618e-07 0.0000000000000000e+00  -8.6075751598917892e-08 3.0593498077982195e-08 0.0000000000000000e+00  5.8940584382631012e-07 7.2210086901189194e-07 0.0000000000000000e+00  -9.9797598294071556e-07 -7.6259468518585227e-07 0.0000000000000000e+00  -5.5881761397733191e-07 1.2644829626491332e-06 0.0000000000000000e+00  3.5902722317340061e-06 2.2920565312920189e-06 0.0000000000000000e+00  -3.7097424158035781e-06 3.2198605443326462e-06 0.0000000000000000e+00  2.7076727188746257e-06 4.4183249422258176e-08 0.0000000000000000e+00  -6.5399120186451831e-07 6.2182765630588114e-07 0.0000000000000000e+00  -8.5895208906781397e-08 -4.1156170176719553e-07 0.0000000000000000e+00  7.6746659203825984e-07 7.8531191658834702e-07 0.0000000000000000e+00  -5.2818548412899353e-07 6.2786663252687824e-07 0.0000000000000000e+00  -2.2342108497785050e-06 1.3511913022689830e-06 0.0000000000000000e+00  1.9414552300629269e-06 5.8249785764659201e-07 0.0000000000000000e+00  3.0980149564765707e-07 6.1940983368679881e-07 0.0000000000000000e+00  5.1117735540660354e-07 1.7666273721502775e-07 0.0000000000000000e+00  -1.8919991544185814e-06 1.4356380111527798e-07 0.0000000000000000e+00  -8.4475227676876969e-07 7.1855255534435769e-07 0.0000000000000000e+00  8.3873574672512244e-07 4.2259488224211413e-06 0.0000000000000000e+00  -3.8996278120941303e-06 -5.5281047260402057e-07 0.0000000000000000e+00  4.5867369579958733e-06 3.4411268499910792e-06 0.0000000000000000e+00  -1.3603936332305202e-06 1.5292879218252011e-06 0.0000000000000000e+00  3.2359988221038803e-06 3.8169327345155002e-06 0.0000000000000000e+00  -1.3164704998730869e-06 3.6430728359427747e-07 0.0000000000000000e+00  -1.5615485548561247e-06 -5.4356273787941714e-07 0.0000000000000000e+00  2.1756470644798239e-06 4.6469273748306834e-06 0.0000000000000000e+00  -1.3102456163559089e-06 -1.1545522492898111e-06 0.0000000000000000e+00  -6.4002255901362029e-07 6.0680602944985392e-07 0.0000000000000000e+00  -1.0988225833412857e-06 2.2995367474573073e-06 0.0000000000000000e+00  -5.5474754911253750e-07 -4.2769084599405225e-08 0.0000000000000000e+00  -9.1110436861558259e-07 5.8688662669959196e-07 0.0000000000000000e+00  -5.5898499205743111e-07 2.1207105082251999e-07 0.0000000000000000e+00  -3.0824688692292684e-07 -7.3237898607303338e-08 0.0000000000000000e+00  -1.2245576926418990e-07 -4.1895129428282990e-08 0.0000000000000000e+00  2.8043625567365611e-07 -1.5288267051875630e-07 0.0000000000000000e+00  2.4125307111465416e-07 1.1848025760158521e-07 0.0000000000000000e+00  3.1209341911210121e-07 3.1169927990291700e-07 0.0000000000000000e+00  3.3859832313994094e-07 5.6032579120041109e-07 0.0000000000000000e+00  2.5410963864207768e-08 7.4746781929773895e-07 0.0000000000000000e+00  -1.0095804961680966e-07 9.6603861957967246e-07 0.0000000000000000e+00  -9.2457778700422553e-07 8.0668015251765406e-07 0.0000000000000000e+00  -1.3576435816681637e-06 6.3541255246553576e-07 0.0000000000000000e+00  -1.6603566384384531e-06 4.6730827309383818e-07 0.0000000000000000e+00  -2.1252818116086406e-06 -1.1269546820190843e-07 0.0000000000000000e+00  -2.2313797027006464e-06 -4.2427923180188456e-07 0.0000000000000000e+00  -2.4338800922245123e-06 -9.8102992113982293e-07 0.0000000000000000e+00  -2.5927948913651726e-06 -2.3258742361326371e-06 0.0000000000000000e+00  -2.1950402512752075e-06 -8.8736739297665392e-07 0.0000000000000000e+00  -2.2006977796160797e-06 -1.1008668199142598e-06 0.0000000000000000e+00  -1.9983106018914435e-06 -2.9396910463491566e-06 0.0000000000000000e+00  -1.8396976556079162e-06 -2.4396176101749022e-06 0.0000000000000000e+00  -1.3936396441331113e-06 -3.8618614927612140e-06 0.0000000000000000e+00  -1.0994473900914420e-06 -2.8416207426680990e-06 0.0000000000000000e+00  -3.7577048649791293e-06 5.3910263544410729e-07 0.0000000000000000e+00  6.9513205650212239e-06 -1.2035795116580677e-05 0.0000000000000000e+00  -6.1026132974483677e-06 3.6367805221403346e-06 0.0000000000000000e+00  -4.3350049419715527e-06 1.8611095246567861e-08 0.0000000000000000e+00  5.4390507977126625e-06 -6.7292138157429882e-06 0.0000000000000000e+00  -2.0511989915708411e-06 -1.7576294797152577e-06 0.0000000000000000e+00  -1.7488828523724253e-06 -2.4515960977096922e-06 0.0000000000000000e+00  1.1573863810875977e-05 -4.6691585394487180e-06 0.0000000000000000e+00  -7.4976204780281892e-06 -1.5829762798291800e-06 0.0000000000000000e+00  2.4073152680012330e-06 -1.1810505696488484e-06 0.0000000000000000e+00  -4.9256211940419683e-06 -3.8390596968635794e-06 0.0000000000000000e+00  -1.0039935368472931e-06 1.0182873840214905e-06 0.0000000000000000e+00  -1.3667481020000819e-06 5.9649617837248177e-08 0.0000000000000000e+00  9.3477064598154872e-07 -1.7028619642978165e-06 0.0000000000000000e+00  1.4823841167516407e-06 -2.6895297367543003e-06 0.0000000000000000e+00  -3.3352358142219167e-06 -8.2296650427686906e-07 0.0000000000000000e+00  9.9423217652879842e-07 -1.6153043737014006e-06 0.0000000000000000e+00  4.3728266488882117e-08 -6.4288252369717084e-07 0.0000000000000000e+00  -5.7717339419607865e-08 1.5630979473050823e-07 0.0000000000000000e+00  4.4719985892400434e-08 -5.2877443967785087e-07 0.0000000000000000e+00  1.5629840458559469e-07 2.2866380084639879e-07 0.0000000000000000e+00  -3.3369597787664619e-06 -1.3104460765443047e-06 0.0000000000000000e+00  -9.4182851520842868e-08 1.5132326832370627e-07 0.0000000000000000e+00  -1.3648562613799780e-06 -2.2522545502362495e-06 0.0000000000000000e+00  -3.3995558695643854e-07 2.5856486390111983e-07 0.0000000000000000e+00  -1.6650063362246118e-06 -1.1430659640805000e-06 0.0000000000000000e+00  -2.3497735546010961e-07 8.3282964556539935e-08 0.0000000000000000e+00  2.7766453395081862e+02 -1.1366906622363974e+03 0.0000000000000000e+00  -1.4780010104615226e+03 -6.4766794232937320e+02 0.0000000000000000e+00  6.6378444561133279e+01 -5.4518519480710665e+01 0.0000000000000000e+00  2.5850477639195236e+02 1.6022830247224210e+03 0.0000000000000000e+00  4.5310366029168802e+02 -1.3467039631632730e+02 0.0000000000000000e+00  5.8307633523790059e+02 -1.1530591535585870e+03 0.0000000000000000e+00  3.8406125006856615e+02 2.8878877682273225e+02 0.0000000000000000e+00  6.3523904900219762e+01 5.0883426874119760e+02 0.0000000000000000e+00  2.3897274029165128e+01 -1.7608301352451579e+03 0.0000000000000000e+00  -2.3680205152243141e+02 6.2051871108187981e+02 0.0000000000000000e+00  5.6500489541820746e+00 2.8648475544294143e+02 0.0000000000000000e+00  5.8327592392557017e+02 -8.2237577218596209e+02 0.0000000000000000e+00  1.2499137876563140e+02 2.3513398588038601e+02 0.0000000000000000e+00  -9.0797232282179743e+02 6.1537600674681744e+02 0.0000000000000000e+00  2.1652355616732780e+02 -2.8167132773455489e+02 0.0000000000000000e+00  -6.3045327434855016e+00 -2.9465342911975942e+00 0.0000000000000000e+00  6.3028339563131624e+02 -3.3313861816758549e+02 0.0000000000000000e+00  6.9653679069684586e+01 -1.0613804704027166e+03 0.0000000000000000e+00  1.6284774498532586e+03 4.9786194124041072e+02 0.0000000000000000e+00  1.2750724727302850e+03 -2.8175583589436087e+02 0.0000000000000000e+00  9.8189810760835428e+02 3.8943355595993996e+00 0.0000000000000000e+00  -8.0155062242777296e+02 -2.0001491985015216e+03 0.0000000000000000e+00  5.3379087283303465e+02 -6.9998505199791998e+02 0.0000000000000000e+00  1.1029636813281162e+02 6.9248771305339176e+01 0.0000000000000000e+00  -2.4711165860303492e+01 3.7959209980887397e+02 0.0000000000000000e+00  5.2726756753209133e+02 6.2915603926166273e+02 0.0000000000000000e+00  1.4788688144737287e+03 4.6019471563370416e+02 0.0000000000000000e+00  2.4528278749072905e+02 -1.6395073397970598e+03 0.0000000000000000e+00  4.0881651744473743e+02 -1.0223580679958350e+03 0.0000000000000000e+00  -1.3150276465138063e+03 -1.5099488392884530e+03 0.0000000000000000e+00  -3.7600499515056720e+02 -1.5755388365482904e+03 0.0000000000000000e+00  -6.2291051203709128e+02 -8.7446258034027483e+02 0.0000000000000000e+00  -1.7227100321164255e+02 -4.7424307164077089e+02 0.0000000000000000e+00  -6.1394197892216732e+02 -2.6908920571619774e+02 0.0000000000000000e+00  -2.0192130842810155e+02 -1.9157980166059808e+03 0.0000000000000000e+00  1.5194979714349429e+02 -1.4302489347726441e+03 0.0000000000000000e+00  1.2258341694443816e+02 4.0129399137971200e+02 0.0000000000000000e+00  1.0570387173093266e+02 3.9835976213562770e+02 0.0000000000000000e+00  3.5630962459887101e+01 5.1042270900363354e+02 0.0000000000000000e+00  -9.0789553644505517e+01 4.2325898347877228e+02 0.0000000000000000e+00  -4.6561222758065441e+01 6.5252428131886677e+02 0.0000000000000000e+00  -2.3970652470256749e+01 5.6045890238758000e+02 0.0000000000000000e+00  4.3634229644424316e+01 3.1200068030516655e+02 0.0000000000000000e+00  3.8163084623038301e+01 2.2394604638872613e+02 0.0000000000000000e+00  7.6287845136464952e+01 2.1284054284369981e+02 0.0000000000000000e+00  8.4726564858303573e+02 1.8795750657595083e+03 0.0000000000000000e+00  2.1287328392469699e+03 1.0277495031797748e+03 0.0000000000000000e+00  1.2441871582158628e+03 1.4287781783353810e+03 0.0000000000000000e+00  1.3533933191396088e+03 -6.9371254860198314e+02 0.0000000000000000e+00  1.8627470644333425e+03 -2.9608059422777745e+02 0.0000000000000000e+00  -1.8785257323040011e+02 4.8697103589152528e+02 0.0000000000000000e+00  6.8961287304825078e+01 1.0186918568567161e+02 0.0000000000000000e+00  -2.6310689170552729e+02 4.2503897532528029e+01 0.0000000000000000e+00  6.1194918856610548e+02 9.5410349981928633e+00 0.0000000000000000e+00  -2.0966498143018947e+02 1.5907626840558373e+02 0.0000000000000000e+00  1.7886612483351635e+02 2.2967733751272675e+02 0.0000000000000000e+00  2.4843814942065089e+02 4.6925185227567619e+02 0.0000000000000000e+00  -4.4147186083900735e+01 -9.5062789097584118e+02 0.0000000000000000e+00  -3.8122903979478338e+02 -1.1965727805149370e+03 0.0000000000000000e+00  5.1554085491076080e+02 -5.1005918788718998e+02 0.0000000000000000e+00  6.3079793298193420e+02 -5.5322101845874249e+02 0.0000000000000000e+00  -1.8463904962944710e+02 7.0955986686307838e+01 0.0000000000000000e+00  -3.2068116307068328e+02 2.6572600999620920e+02 0.0000000000000000e+00  3.6040202332696625e-01 -5.1616321870984905e-01 0.0000000000000000e+00  -2.2736280912981528e+01 -8.2988515294223824e+00 0.0000000000000000e+00  -1.6192954050632950e+03 -9.8963107374403990e+02 0.0000000000000000e+00  -1.7215596125769830e+03 -2.0977837812818896e+02 0.0000000000000000e+00  -3.9012057947908153e+02 2.3157703222020314e+00 0.0000000000000000e+00  -1.5924413335212375e+02 6.2937185027648013e+01 0.0000000000000000e+00  -9.4644536402681993e+01 9.3920777097077689e+02 0.0000000000000000e+00  3.5402618242739214e+02 6.1077774032871173e+02 0.0000000000000000e+00  3.1865633494724233e+02 -5.5630932900818459e+02 0.0000000000000000e+00  -5.1611311590029750e+01 -6.8403586506459567e+02 0.0000000000000000e+00  -1.1855890871103725e+03 8.5019732665831413e+01 0.0000000000000000e+00  2.5768002875229462e+02 -6.9457354215493092e+02 0.0000000000000000e+00  7.0773623713571033e+02 -7.7897040184814341e+02 0.0000000000000000e+00  1.0114092212943941e+03 -2.7456619552951383e+02 0.0000000000000000e+00  6.8546326273060617e+02 -5.8824785587571898e+02 0.0000000000000000e+00  3.0754254593390993e+01 -1.8246269719918863e+02 0.0000000000000000e+00  8.4570616904092066e+00 -2.0572513726504926e+01 0.0000000000000000e+00  4.2476952913965289e+02 1.4126276940167037e+02 0.0000000000000000e+00  2.2303432561946460e+02 3.6304876270764947e+02 0.0000000000000000e+00  1.5157351386964433e+02 1.5095697979985013e+02 0.0000000000000000e+00  -2.9708520537591244e+02 3.3069559148409206e+02 0.0000000000000000e+00  5.3602843627723651e+01 5.0645887136676208e+01 0.0000000000000000e+00  -2.4100682036498523e+02 3.6094536159288191e+02 0.0000000000000000e+00  5.0236988178839300e+02 -1.0836483032869230e+03 0.0000000000000000e+00  4.9726105110805662e+02 -3.9134210602827096e+02 0.0000000000000000e+00  4.9869710146023857e+02 -1.2225418749572486e+03 0.0000000000000000e+00  8.3069825987999525e+02 3.3141794623209773e+02 0.0000000000000000e+00  3.8806672009166914e+02 7.8023294657842300e+01 0.0000000000000000e+00  -2.6218602586655874e+02 1.0714467534661942e+03 0.0000000000000000e+00  -5.1068379984955834e+02 1.1665359233948366e+03 0.0000000000000000e+00  1.6989805150392187e+03 -4.3983319338888037e+02 0.0000000000000000e+00  9.5502699310694027e+02 -1.2303953058242405e+03 0.0000000000000000e+00  1.0613129530731035e+03 -1.0290677335972923e+03 0.0000000000000000e+00  2.6256040863423501e-02 3.9600493083018378e+01 0.0000000000000000e+00  1.6218354242231129e+02 6.2859569932199690e+02 0.0000000000000000e+00  -1.3904604751088282e+03 4.6225732549568414e+02 0.0000000000000000e+00  -7.2654198152819708e+02 9.1879994757715576e+02 0.0000000000000000e+00  -3.4664876192614213e+02 -5.1892405838389323e+02 0.0000000000000000e+00  -4.6286025339922037e+02 -2.1737882638994469e+02 0.0000000000000000e+00  2.6426963399476290e+02 -4.5855015170901612e+02 0.0000000000000000e+00  1.5184641814326534e+02 2.4679736714582893e+02 0.0000000000000000e+00  -1.7446054600229911e+02 -5.7471187882141101e+02 0.0000000000000000e+00  4.3990276655908383e+02 2.5318112387444077e+02 0.0000000000000000e+00  1.7390175875363866e+02 2.4748463878002289e-01 0.0000000000000000e+00  9.4303393864505392e+02 -2.3235284066383122e+02 0.0000000000000000e+00  1.5786897477883068e+02 2.8773826707147027e-01 0.0000000000000000e+00  4.0541522291673073e+02 -2.3181341003937780e+02 0.0000000000000000e+00  8.7083728385211646e+02 2.3663480525507561e+02 0.0000000000000000e+00  9.3536078898441076e+01 3.6010666811737315e+02 0.0000000000000000e+00  6.8652024414609