<?xml version="1.0"?>
<VTKFile type="UnstructuredGrid"  version="0.1"  >
<UnstructuredGrid>
<Piece  NumberOfPoints="2549" NumberOfCells="4928">
<Points>
<DataArray  type="Float64"  NumberOfComponents="3"  format="ascii">1.468297489787079 0.01496077114224658 0  1.464253105731025 0.03784641862003293 0  1.441183512789286 0.04897359567602403 0  1.427523165954807 0.0650743963530096 0  1.421289301541751 0.07587941306982532 0  1.422530523009615 0.09767550749872483 0  1.403868721245638 0.1061524130317939 0  1.37525267751485 0.1131853210705933 0  1.37554188095329 0.1484026239395276 0  1.472713002461159 0.1466072006098639 0  1.363375100516938 0.1652883565702735 0  1.354807572469597 0.1906540651103902 0  1.343857888733243 0.2187438324799424 0  1.336325415834685 0.2481209223644187 0  1.330875822502815 0.2779115518110621 0  1.312636966155134 0.3101164871247986 0  1.30694609112237 0.3431052135623053 0  1.29368981133856 0.3577782378725614 0  1.273263338668899 0.4108726852482489 0  1.259281524783114 0.4472396263408825 0  1.24403560845728 0.4934883107794575 0  1.225099689505175 0.5381833784543091 0  1.205045978870653 0.5860885936491428 0  1.180771458390527 0.6377204081702054 0  1.153885603413034 0.6895198376502224 0  1.12455290596597 0.7311516550730167 0  1.093327371825173 0.785127077487644 0  1.059551814908605 0.8400583933597281 0  1.021023392189109 0.8952682903121681 0  0.9789794462861263 0.9512958943576154 0  0.9327316140205126 1.007059881632857 0  0.8818786404925079 1.063366765936392 0  0.8262540484396207 1.116775959929804 0  0.7678148818386928 1.167392742740097 0  0.7030916433046652 1.219715676962088 0  0.6343671619739631 1.267651728853096 0  0.5607181576994942 1.312409240362125 0  0.4828491244550639 1.352897079428768 0  0.4008938842205446 1.388241479279585 0  0.3154243937038244 1.418917119827787 0  0.2264685238156505 1.442075831762689 0  0.1362701512859271 1.458376790373156 0  0.04378556863453881 1.469399157804341 0  -0.04929992323691054 1.471860653432731 0  -0.1422059738170222 1.467278646108774 0  -0.2341787705699503 1.454813754395224 0  -0.3240181467894731 1.435479611600545 0  -0.411569025106317 1.407589520844974 0  -0.4947015121956604 1.376366287734881 0  -0.5752360942491773 1.337982674187462 0  -0.6511568382607751 1.29286569407629 0  -0.7222302411609497 1.244454848977247 0  -0.788204714515077 1.191728885069194 0  -0.8497074192014502 1.136125345595066 0  -0.9044728769294821 1.078818089926978 0  -0.9580103170181659 1.017511297785227 0  -1.000877462197888 0.9646011052506567 0  -1.045630729256965 0.9095285783695484 0  -1.084717060425095 0.8476988651802158 0  -1.118639126822073 0.7893075199885472 0  -1.148091337189864 0.7327736658367172 0  -1.175600881225725 0.6748709463131272 0  -1.203301983643257 0.6281970694190904 0  -1.213276979467561 0.5552814796711423 0  -1.223830832228507 0.5192348782939865 0  -1.26289196585701 0.499709800407694 0  -1.273918333950327 0.4513695604022126 0  -1.286499735857143 0.4132715444495469 0  -1.297192003143069 0.3759124520502474 0  -1.319602157872046 0.3500718895914028 0  -1.323091362166505 0.3012711362697512 0  -1.314859549589267 0.3323778612883208 0  -1.375468665419733 0.2908754718574506 0  -1.364567146792877 0.1975226768349816 0  -1.369125324722577 0.1719152421698675 0  -1.367077712967807 0.1383860155333277 0  -1.376414034038213 0.1191131744105068 0  -1.372287458734874 0.09197130059796156 0  -1.393526620557443 0.1020518469955112 0  -1.365047687317416 0.02744879491466956 0  -1.414017492178633 0.09400115540859744 0  -1.473665365628499 0.117765286342365 0  -1.467223718871872 0.05858902920070282 0  -1.472400471015433 0.03311602644518005 0  -1.492706212885181 0.002638647004635911 0  -1.469733604434051 -0.01866104819030102 0  -1.44908776930226 -0.04575299096229937 0  -1.302190727052458 -0.2003778636938474 0  -1.38097614001441 -0.03491677115074107 0  -1.429250210906106 0.2912423838244802 0  -1.424561502805322 -0.06638564833820602 0  -1.456575493154289 0.001369783998006408 0  -1.410069097653124 -0.123156490040277 0  -1.381027604923299 -0.08933435265100209 0  -1.364678724047367 -0.1012174186739636 0  -1.372511194724248 -0.124016593801107 0  -1.390349299393517 -0.2410019696573162 0  -1.276332637752619 -0.2763539940617609 0  -1.351019845728792 -0.2426098736079593 0  -1.339646824147686 -0.3071424435618644 0  -1.305315832551192 -0.3182588959703725 0  -1.320333165067575 -0.3653104604651627 0  -1.304727760238716 -0.4044040158426059 0  -1.315413214007638 -0.4701916774525193 0  -1.219832758243264 -0.453518956795638 0  -1.197107652274552 -0.4862814379415701 0  -1.267190298537291 -0.586711538655338 0  -1.217292688448622 -0.6311389704255597 0  -1.186773014910683 -0.6917402214114918 0  -1.167931672987392 -0.7570194799947073 0  -1.136309345746096 -0.8191321108726342 0  -1.112988688455432 -0.8995624286521462 0  -1.046325585395159 -0.9379240463844094 0  -1.003640769099068 -0.9972441911504742 0  -0.9651010316892349 -1.083809930666702 0  -0.9065057062026609 -1.144204733986662 0  -0.8443016487974186 -1.210408140143771 0  -0.7779543138535344 -1.27204405105029 0  -0.7055217002387395 -1.329909670463872 0  -0.6258215710765194 -1.383835145297924 0  -0.5435433791188611 -1.432941724352236 0  -0.4572646845716018 -1.471334871513045 0  -0.3638325405210741 -1.507534045367391 0  -0.2692605960762749 -1.535443360916473 0  -0.1705539488900547 -1.554512203692872 0  -0.07063007638883062 -1.564881745701067 0  0.03022375219577436 -1.566226892858403 0  0.1306781897443904 -1.558365922826286 0  0.2297885752736543 -1.541725804745721 0  0.3262816829943129 -1.516463821733321 0  0.4195817898448841 -1.483521575835701 0  0.5087828239387406 -1.443304765538685 0  0.593134558563737 -1.396821025196066 0  0.6725634909366034 -1.344635006280218 0  0.745316940892767 -1.288648198066583 0  0.8149209492986101 -1.227004629176018 0  0.8746417397861876 -1.170015852079793 0  0.9318544051737844 -1.108398380972826 0  0.9850855025792132 -1.042536365639125 0  1.031345074011324 -0.9781468825822266 0  1.072957727949913 -0.9136083263002532 0  1.110648202138278 -0.850774592005908 0  1.14234086452477 -0.7881420779710676 0  1.171599602019107 -0.7278317999112862 0  1.201365147641691 -0.6808838254325338 0  1.223356433923198 -0.6217015912571373 0  1.245636548426951 -0.5652555510352092 0  1.262903083553254 -0.5118749764735746 0  1.278247605527845 -0.4627594093426126 0  1.287043215655433 -0.4102180660905272 0  1.301209495404969 -0.3742682062618786 0  1.318743279904159 -0.3004525576317197 0  1.283458458051409 -0.2816576297470409 0  1.332753357279112 -0.2866289870888075 0  1.351424780543745 -0.2411111361612517 0  1.352534358410432 -0.2083223682934317 0  1.358571509934227 -0.1745465136595796 0  1.364531456777407 -0.1432884929152307 0  1.361654987133635 -0.1143463620117235 0  1.477209642455449 0.06712339096550382 0  1.393961864780999 -0.1058847425338972 0  1.389506265680173 -0.1085523291556838 0  1.400878401326796 -0.0723150631849319 0  1.423599013879826 -0.05887629636422305 0  1.423839569235655 -0.04085227505520133 0  1.434034707991166 -0.02722562316768593 0  1.44097757025133 -0.01376592645289438 0  1.46143876879641 -0.005389960603295278 0  -0.09056833171260831 0.8931652218723458 0  0.682642870512427 -0.5103272967745046 0  -0.8005029302301451 -0.3846850784591158 0  -0.07737498134620142 -0.9510350343789421 0  0.6532661171281575 0.4939924362600232 0  1.083429407982456 0.1085029593457906 0  -0.7917129052854954 0.4093737264237722 0  -1.150572553978571 0.03099409288111783 0  1.09101362051482 -0.06921043831503371 0  -1.030956936308956 -0.172035598066771 0  -0.7288904407191131 0.01722355066846305 0  -0.436599067327715 -0.1386955564334064 0  -1.024097181359893 0.2123729793747525 0  0.3777213878448469 -0.8380380742382316 0  0.07825451455228637 -0.3060475119399572 0  0.3128912884464092 0.7724635146751444 0  0.2179950983743378 0.187333855765688 0  0.5564685056266743 0.01320764677872535 0  -0.4808282056114519 -0.7005281696947477 0  -0.4999206722068047 0.6995991115757988 0  -0.240155308415269 0.3159005963326172 0  0.9083076080984934 -0.2165353803137091 0  0.893737900407563 0.2406944082053583 0  0.3459067834940389 -0.2188750874363448 0  -0.01154662257079979 0.2434756342379599 0  -0.4900616840398423 0.2156133662110938 0  -0.1883686349739452 -0.2793067055266325 0  0.8554636063019531 0.01708456708817636 0  1.242495377119934 0.02192793845433489 0  0.7954998459934266 -0.3440493671804553 0  0.7111481382502527 -0.1116338425530831 0  0.5777910665110773 -0.2125242809273391 0  0.434871167950176 -0.08056355825961106 0  0.5063376740855715 -0.3761258993325026 0  0.8558519662969436 -0.08744486316418471 0  0.7081704568726891 0.01491169800688176 0  -0.8552056094950612 0.1258801994882995 0  -1.068121055629411 0.103263057929123 0  -0.9437260244451207 0.02588499632739337 0  -0.8607373896354136 -0.08626176580903606 0  -1.070070599941958 -0.04923416576185059 0  -1.232791281765027 -0.07964854315654925 0  -1.305810916225317 0.00447266179460266 0  -1.303299276290605 0.060105941920001 0  -1.225726438643542 0.1416885017733277 0  -0.1303515373131388 -0.6168336171591959 0  -0.3003306756020903 -0.5075570947052147 0  -0.2923461444452115 -0.8483503265490949 0  -0.3081493655825003 -0.2018452444091735 0  -0.4492355448998334 -0.4045000605689084 0  -1.222418982202426 -0.1968008227598081 0  -1.208351188218351 0.2467814704431697 0  0.3765441299432707 -0.5085292017536422 0  0.2096590631292605 -0.2494696458619589 0  0.2380287456839561 -0.5670213588947016 0  -0.9083282273321466 0.2952634377697383 0  -0.724213172783623 0.1947116745819812 0  1.26156952385692 -0.08639085845119968 0  1.196020440072123 -0.1803664441824794 0  1.183408502692448 0.2185560529587223 0  1.253033400005608 0.1288919693607284 0  -0.9114849693601863 -0.6513771174102274 0  -1.037922053578054 -0.4424244188031254 0  -1.018483202451429 0.4787981341834029 0  -0.8840190170726374 0.6680154960949487 0  0.9353357210154329 -0.6075589605446818 0  0.7725538061881816 -0.8270347728540951 0  0.739215252343544 0.7894564081716583 0  0.9041269679745955 0.6009625816857909 0  0.04
[...]
<PointData  Vectors="f_17142"> 
<DataArray  type="Float64"  Name="f_17142"  NumberOfComponents="3" format="ascii">1.0656424583794670e+00 -7.3277929293158864e-02 0.0000000000000000e+00  7.8822792933788843e-01 6.2870246731247759e-01 0.0000000000000000e+00  5.1449610620211150e-01 9.0550627916285886e-01 0.0000000000000000e+00  8.2644347616664304e-01 5.9078764648296456e-01 0.0000000000000000e+00  1.0432191832301314e+00 5.4623739054082358e-03 0.0000000000000000e+00  9.0021249196934827e-01 4.3691342290926954e-01 0.0000000000000000e+00  4.4624844973916493e-02 1.1915921082760774e+00 0.0000000000000000e+00  1.0611723805678932e+00 3.0537778614936034e-01 0.0000000000000000e+00  -1.1654871358880820e-02 1.2739290065151062e-03 0.0000000000000000e+00  1.0049875023998389e-01 1.3793651741910977e+00 0.0000000000000000e+00  4.7871749492426463e-01 8.9138076157668245e-01 0.0000000000000000e+00  9.6803736981145461e-01 2.5512313323295160e-01 0.0000000000000000e+00  9.4037523514753396e-01 3.6213378047505701e-01 0.0000000000000000e+00  9.9622947573715459e-01 1.3073810798236782e-01 0.0000000000000000e+00  9.1346962125656517e-01 4.1638458257640826e-01 0.0000000000000000e+00  9.4535923008750888e-01 3.2441781975234296e-01 0.0000000000000000e+00  9.3636722211903989e-01 3.4984310680037550e-01 0.0000000000000000e+00  8.7297413605635465e-01 4.9702436709899789e-01 0.0000000000000000e+00  9.4692258240378679e-01 3.2436335069430283e-01 0.0000000000000000e+00  9.4313337722792034e-01 3.3201917724331625e-01 0.0000000000000000e+00  9.3828993884378908e-01 3.4611240611446431e-01 0.0000000000000000e+00  9.1917515928193516e-01 3.9412795928819933e-01 0.0000000000000000e+00  9.1492592661319505e-01 4.0345405872441348e-01 0.0000000000000000e+00  9.0286349879390815e-01 4.3104337971470713e-01 0.0000000000000000e+00  8.4866425254950584e-01 5.3029949598532433e-01 0.0000000000000000e+00  8.3705751794428407e-01 5.4754702198237737e-01 0.0000000000000000e+00  8.7011089474398218e-01 4.9369294252397578e-01 0.0000000000000000e+00  8.3383308606262407e-01 5.5236566016471689e-01 0.0000000000000000e+00  8.1007125908596023e-01 5.8649522682042987e-01 0.0000000000000000e+00  7.8522367054202280e-01 6.1938501753655850e-01 0.0000000000000000e+00  7.5763008511859964e-01 6.5294458917614850e-01 0.0000000000000000e+00  7.1931371767759178e-01 6.9510020145971052e-01 0.0000000000000000e+00  6.6968802919141046e-01 7.4288057832258514e-01 0.0000000000000000e+00  6.4407175896565905e-01 7.6511191220148134e-01 0.0000000000000000e+00  6.0357412241427433e-01 7.9768210920109583e-01 0.0000000000000000e+00  5.4447956888534510e-01 8.3911714787876446e-01 0.0000000000000000e+00  4.9237816223811559e-01 8.7074124389536578e-01 0.0000000000000000e+00  4.2762979798422457e-01 9.0432753218605955e-01 0.0000000000000000e+00  3.6900220475220374e-01 9.2936817673438754e-01 0.0000000000000000e+00  2.9736657494036145e-01 9.5738726086606041e-01 0.0000000000000000e+00  2.1063908864546796e-01 9.7265245652467591e-01 0.0000000000000000e+00  1.4992935717618103e-01 9.7220148918692939e-01 0.0000000000000000e+00  7.5376094737372668e-02 1.2568411467113150e+00 0.0000000000000000e+00  2.0367553670497486e-03 -6.0185077121407449e-01 0.0000000000000000e+00  9.5010538581358758e-02 -9.4476046848234596e-01 0.0000000000000000e+00  1.6987888911569876e-01 -1.0140321229749421e+00 0.0000000000000000e+00  2.6060474944369683e-01 -9.5999593164830033e-01 0.0000000000000000e+00  3.2966024165888164e-01 -9.4500792486280150e-01 0.0000000000000000e+00  3.8551232831202153e-01 -9.2319509636447172e-01 0.0000000000000000e+00  4.7495218040475079e-01 -8.8061104379932165e-01 0.0000000000000000e+00  5.3801984570889017e-01 -8.4331304917939853e-01 0.0000000000000000e+00  5.9395746094124335e-01 -8.0487342714652810e-01 0.0000000000000000e+00  6.4814474835231684e-01 -7.6194651965960292e-01 0.0000000000000000e+00  6.9797742768173288e-01 -7.1653126375294562e-01 0.0000000000000000e+00  7.4035931056812243e-01 -6.7256819002658264e-01 0.0000000000000000e+00  7.6936053551150740e-01 -6.3892821417266121e-01 0.0000000000000000e+00  7.6968755772560316e-01 -6.3862729806576346e-01 0.0000000000000000e+00  8.0981965718903171e-01 -5.8746438926218558e-01 0.0000000000000000e+00  8.6204047137211204e-01 -5.0771941668145526e-01 0.0000000000000000e+00  8.7085269362786488e-01 -4.9186010765893962e-01 0.0000000000000000e+00  9.0887532512577784e-01 -4.1813737142546159e-01 0.0000000000000000e+00  8.6423365096706750e-01 -5.0886618086163571e-01 0.0000000000000000e+00  9.4461619662005480e-01 -3.2696336194596815e-01 0.0000000000000000e+00  1.0326664387140414e+00 -6.7131668360954938e-02 0.0000000000000000e+00  6.6158041296703063e-01 -7.8175080916645356e-01 0.0000000000000000e+00  7.6505018500155997e-01 -6.4533396805436227e-01 0.0000000000000000e+00  1.0090333883906850e+00 -1.8260489061753146e-01 0.0000000000000000e+00  9.6352706117502096e-01 -2.6838477788197479e-01 0.0000000000000000e+00  8.5815733568538211e-01 -5.2451752004454100e-01 0.0000000000000000e+00  9.1833629819083040e-01 -4.0044614311975651e-01 0.0000000000000000e+00  1.0340829948044785e+00 3.9610196480873591e-02 0.0000000000000000e+00  6.1845649727580820e-01 -9.1146401974994440e-01 0.0000000000000000e+00  9.5759657181585200e-01 -2.8192501812464860e-01 0.0000000000000000e+00  1.0172871257029501e+00 1.7179625447192129e-01 0.0000000000000000e+00  9.9665648106888172e-01 -6.4604742409047927e-02 0.0000000000000000e+00  9.9169609873819575e-01 -1.3021099634203173e-01 0.0000000000000000e+00  1.0367156792358987e+00 -2.6516576059457281e-01 0.0000000000000000e+00  7.8588618118374409e-01 6.9226424038373946e-01 0.0000000000000000e+00  8.6079511258606001e-01 5.0269239954633205e-01 0.0000000000000000e+00  9.3904048102256232e-01 3.8227472676374441e-01 0.0000000000000000e+00  5.3232507502964321e-01 8.8100889753484934e-01 0.0000000000000000e+00  7.2584280293808701e-01 6.8655727930362931e-01 0.0000000000000000e+00  1.0843231404329579e+00 -5.8863359131326926e-02 0.0000000000000000e+00  8.9169402194141645e-01 -6.1116291908500398e-01 0.0000000000000000e+00  9.5575246693758331e-01 5.8704578767527618e-02 0.0000000000000000e+00  7.3142259292547940e-01 7.7488744188443137e-01 0.0000000000000000e+00  7.1049940171399217e-01 7.0852247884631714e-01 0.0000000000000000e+00  8.0739398585044286e-01 6.0604070892398165e-01 0.0000000000000000e+00  9.7289932596073947e-01 2.5470215373827065e-01 0.0000000000000000e+00  1.0028543971884534e+00 3.9047125125656813e-02 0.0000000000000000e+00  9.9913479614631329e-01 6.2932401416617462e-02 0.0000000000000000e+00  8.9856071580132224e-01 5.2160852593636708e-01 0.0000000000000000e+00  1.0087912387455940e+00 7.0875441654646890e-02 0.0000000000000000e+00  7.3071701116617238e-01 -8.2681782813168569e-01 0.0000000000000000e+00  9.0410509262193184e-01 5.0730514662598492e-01 0.0000000000000000e+00  1.0699333175497392e+00 -4.2264000014703268e-01 0.0000000000000000e+00  8.6935367343178527e-01 4.4142451038681135e-01 0.0000000000000000e+00  1.5993389098150673e-01 1.0788431635515370e+00 0.0000000000000000e+00  8.7534449322029606e-01 4.6186693432396597e-01 0.0000000000000000e+00  9.0307365076436075e-01 4.9582261900697888e-01 0.0000000000000000e+00  8.8486906424205480e-01 -3.4894030288013922e-01 0.0000000000000000e+00  9.9322924002607282e-01 1.7641167520685730e-02 0.0000000000000000e+00  1.1298452075509735e+00 1.6013532344389630e-01 0.0000000000000000e+00  4.6283580978755118e-01 -6.1020032686743531e-01 0.0000000000000000e+00  1.3538433132409732e-02 1.0774195964495987e+00 0.0000000000000000e+00  9.0170302239414968e-01 -4.3208796007599853e-01 0.0000000000000000e+00  8.9725472612824075e-01 -4.1146962553991034e-01 0.0000000000000000e+00  7.6475958142773359e-01 8.5464388323841700e-01 0.0000000000000000e+00  9.7207984960231597e-01 2.3705809514391965e-01 0.0000000000000000e+00  9.0846675828807644e-01 4.1717753712956934e-01 0.0000000000000000e+00  9.7150859823064850e-01 2.9291981185908078e-01 0.0000000000000000e+00  7.8973434399161468e-01 6.1529395549818655e-01 0.0000000000000000e+00  5.7158047523441324e-01 8.4730697456864290e-01 0.0000000000000000e+00  9.3825587215104622e-01 3.9234318019430264e-01 0.0000000000000000e+00  8.3371879549190009e-01 5.5330297163111908e-01 0.0000000000000000e+00  6.9860088019046662e-01 7.1911585048096638e-01 0.0000000000000000e+00  7.1999854019410747e-01 6.9396397077122485e-01 0.0000000000000000e+00  6.5103165812339125e-01 7.5992676076454235e-01 0.0000000000000000e+00  5.9007237058997875e-01 8.0761848822878535e-01 0.0000000000000000e+00  5.4197390429758507e-01 8.4106720374141120e-01 0.0000000000000000e+00  4.6008293142019596e-01 8.8862832054633223e-01 0.0000000000000000e+00  3.7831765640935827e-01 9.2544782715389518e-01 0.0000000000000000e+00  3.2994712312174673e-01 9.4566659947596177e-01 0.0000000000000000e+00  2.3566019489185913e-01 9.7843502297082896e-01 0.0000000000000000e+00  1.4600262669713121e-01 9.1038023638446908e-01 0.0000000000000000e+00  5.3298239989967196e-02 1.4573243438318328e+00 0.0000000000000000e+00  1.9440668891003592e-02 -1.1419559302208067e+00 0.0000000000000000e+00  1.2383872727603366e-01 -9.0360774081474005e-01 0.0000000000000000e+00  2.1005707388780562e-01 -9.9756985943760601e-01 0.0000000000000000e+00  2.9392560875631540e-01 -9.5432741451119962e-01 0.0000000000000000e+00  3.7251621578728322e-01 -9.2839319923946106e-01 0.0000000000000000e+00  4.4783439926255636e-01 -8.9473043261841090e-01 0.0000000000000000e+00  5.1694015721743247e-01 -8.5648130936015499e-01 0.0000000000000000e+00  5.7970245392700848e-01 -8.1536577874397165e-01 0.0000000000000000e+00  6.4069529443286277e-01 -7.6828795103956971e-01 0.0000000000000000e+00  6.7739482952298902e-01 -7.3585003537649729e-01 0.0000000000000000e+00  7.0907174317488042e-01 -7.0543696102088926e-01 0.0000000000000000e+00  7.5692243106409973e-01 -6.5410813716547678e-01 0.0000000000000000e+00  7.9595610274126405e-01 -6.0589496706275536e-01 0.0000000000000000e+00  8.2854728619353579e-01 -5.6041383139027856e-01 0.0000000000000000e+00  8.4809499402277233e-01 -5.3014925192007356e-01 0.0000000000000000e+00  8.7308584523280164e-01 -4.8815275789555651e-01 0.0000000000000000e+00  9.0995465298514522e-01 -4.1767878685637927e-01 0.0000000000000000e+00  8.6248790019062371e-01 -5.0702636254753930e-01 0.0000000000000000e+00  8.9440949371384793e-01 -4.4847876780831197e-01 0.0000000000000000e+00  9.4246705438691314e-01 -3.3789095679571990e-01 0.0000000000000000e+00  9.3860413082208993e-01 -3.4484325835123020e-01 0.0000000000000000e+00  9.4956057270580840e-01 -3.1503219427278911e-01 0.0000000000000000e+00  9.8016767437164765e-01 -2.0735655351272592e-01 0.0000000000000000e+00  9.7015961322420385e-01 -2.4679315666955301e-01 0.0000000000000000e+00  9.4955316394603229e-01 -3.2580634014882665e-01 0.0000000000000000e+00  9.8945220039336623e-01 -1.2821800453855600e-01 0.0000000000000000e+00  -1.5415663584607681e-01 1.6474530946523014e+00 0.0000000000000000e+00  5.8678430628051570e-01 -7.9161315127635867e-01 0.0000000000000000e+00  1.0577504856566229e+00 -1.8395226918180435e-01 0.0000000000000000e+00  1.0001860023106199e+00 -3.9196664385659129e-02 0.0000000000000000e+00  9.6301623175794371e-01 -2.8291835060047088e-01 0.0000000000000000e+00  1.0245239459995836e+00 1.0139327605027759e-01 0.0000000000000000e+00  8.7535127207856067e-01 -4.9890923097126644e-01 0.0000000000000000e+00  8.6389772978939894e-01 -5.0298834645397716e-01 0.0000000000000000e+00  9.0992276877145772e-01 -4.1786452448339845e-01 0.0000000000000000e+00  9.7106309861703766e-01 -2.5939802990587352e-01 0.0000000000000000e+00  7.9399012818406045e-01 -6.2019776357561562e-01 0.0000000000000000e+00  7.2346063001713790e-01 -7.0169079096218867e-01 0.0000000000000000e+00  1.0164873999827504e+00 -1.7163197593536697e-01 0.0000000000000000e+00  8.4612111309177185e-01 -5.5507554273617465e-01 0.0000000000000000e+00  5.8416345837407080e-01 -8.4026986598789932e-01 0.0000000000000000e+00  7.0739416746663741e-01 -7.4618665263993789e-01 0.0000000000000000e+00  9.2944399823664314e-02 -9.1975169491476894e-01 0.0000000000000000e+00  7.7536512813918124e-01 -6.3176680137961716e-01 0.0000000000000000e+00  9.0630581825663870e-01 4.2293989238053797e-01 0.0000000000000000e+00  1.0048931166491649e-01 8.7047464583715162e-01 0.0000000000000000e+00  8.7380877179756589e-01 4.8694473829348994e-01 0.0000000000000000e+00  9.9569651117685121e-01 -9.3178667030477474e-02 0.0000000000000000e+00  9.2484095866382587e-01 -3.8089387519702128e-01 0.0000000000000000e+00  9.9586101370387081e-01 9.1267896127296438e-02 0.0000000000000000e+00  9.5433378863291130e-01 -2.9899016137825885e-01 0.0000000000000000e+00  9.7380608020617421e-01 2.2755897333413189e-01 0.0000000000000000e+00  9.9768546722813778e-01 7.0221771407562306e-02 0.0000000000000000e+00  9.1324548680915452e-01 4.0886122023938948e-01 0.0000000000000000e+00  9.9178653323045762e-01 -1.2858472641187402e-01 0.0000000000000000e+00  4.2816159823196503e-01 -9.0396692268989409e-01 0.0000000000000000e+00  2.3901509389354839e-01 -9.4291636048599659e-01 0.0000000000000000e+00  4.6889740207887148e-01 8.8365905974493808e-01 0.0000000000000000e+00  9.4340286299920717e-01 3.3687764960383237e-01 0.0000000000000000e+00  9.8973886275849743e-01 -1.4553560398376597e-01 0.0000000000000000e+00  6.0069630145839792e-01 7.9985416886321647e-01 0.0000000000000000e+00  6.4293494244983007e-01 -7.6637631670746009e-01 0.0000000000000000e+00  7.6156079893891748e-01 -6.5223582001701452e-01 0.0000000000000000e+00  9.2230991255677774e-01 -3.8667409759385590e-01 0.0000000000000000e+00  9.9301660128984082e-01 1.1918317874521227e-01 0.0000000000000000e+00  7.8817526086725709e-01 -6.1643236711745353e-01 0.0000000000000000e+00  3.7930070756148221e-01 9.1946466752552092e-01 0.0000000000000000e+00  9.6867441837740664e-01 -2.5054079788906936e-01 0.0000000000000000e+00  5.2872821891407618e-01 8.5011800680956873e-01 0.0000000000000000e+00  9.8891547079237607e-01 -1.4889897290570661e-01 0.0000000000000000e+00  9.7779286432869095e-01 -2.0974019532202756e-01 0.0000000000000000e+00  8.7291186685467737e-01 -4.8810557591501519e-01 0.0000000000000000e+00  9.5468005173545600e-01 -2.9824815343105138e-01 0.0000000000000000e+00  8.9193559399512401e-01 -4.5293583450831748e-01 0.0000000000000000e+00  9.4185803923068978e-01 -3.3779322481508495e-01 0.0000000000000000e+00  7.5970778791331850e-01 -6.5075524548448327e-01 0.0000000000000000e+00  9.6392251999535283e-01 -2.6644081867974445e-01 0.0000000000000000e+00  9.9034700457011060e-01 -1.3952627620273245e-01 0.0000000000000000e+00  9.9844038874696406e-01 -5.7557528166179497e-02 0.0000000000000000e+00  1.0000574753205109e+00 -7.1653034913882359e-04 0.0000000000000000e+00  9.9842711260994832e-01 5.6799803831927891e-02 0.0000000000000000e+00  9.8581833567069532e-01 1.6827695802395215e-01 0.0000000000000000e+00  9.9041222045846533e-01 1.3850016361538972e-01 0.0000000000000000e+00  9.8480973795749838e-01 1.7209254295670071e-01 0.0000000000000000e+00  9.8297250145814030e-01 1.8449062126879254e-01 0.0000000000000000e+00  9.7758435832148471e-01 2.1337410879348770e-01 0.0000000000000000e+00  9.9972964585430024e-01 2.6757474855412515e-02 0.0000000000000000e+00  2.1870922955749014e-01 9.7145471537417694e-01 0.0000000000000000e+00  5.0956372921611082e-01 8.6089995397965557e-01 0.0000000000000000e+00  3.6206579212452056e-01 9.3259626307842725e-01 0.0000000000000000e+00  7.8371821022378696e-01 6.2279907766321096e-01 0.0000000000000000e+00  7.3050379221735617e-01 6.8345187043236477e-01 0.0000000000000000e+00  9.5039993078088525e-01 3.1191720804017103e-01 0.0000000000000000e+00  9.9162517084929280e-01 -1.2984021252714875e-01 0.0000000000000000e+00  5.6856712933086206e-01 -8.2297810936740123e-01 0.0000000000000000e+00  6.0339896957982997e-01 -7.9849957447884956e-01 0.0000000000000000e+00  3.6898019773720575e-01 -9.2938702287900654e-01 0.0000000000000000e+00  9.7178805835481308e-01 -2.3640357506509613e-01 0.0000000000000000e+00  9.8776549825984983e-01 -1.5743291338510215e-01 0.0000000000000000e+00  9.3945969156207487e-01 -3.4312493074970013e-01 0.0000000000000000e+00  8.6786207824335504e-01 -4.9790676413390805e-01 0.0000000000000000e+00  9.9960867433776512e-01 3.3785718770212497e-02 0.0000000000000000e+00  9.7179177334120326e-01 -2.6645473093939931e-01 0.0000000000000000e+00  8.7370573227022286e-01 4.8693232347505044e-01 0.0000000000000000e+00  9.5162638892414775e-01 3.0743529383351781e-01 0.0000000000000000e+00  9.2188617681581031e-01 -3.8767802504671028e-01 0.0000000000000000e+00  8.4499501618012218e-01 -5.3505992181873296e-01 0.0000000000000000e+00  8.3899693112075968e-01 -5.4430223635079755e-01 0.0000000000000000e+00  7.2472898855708212e-01 -6.8930842653086977e-01 0.0000000000000000e+00  7.5802103229337114e-01 6.5256941162309079e-01 0.0000000000000000e+00  8.8091891205551687e-01 4.7365034669337580e-01 0.0000000000000000e+00  2.9961256013532677e-02 -1.4003577783108543e+00 0.0000000000000000e+00  2.7098362984570423e-01 9.6286552702051342e-01 0.0000000000000000e+00  2.4682186690707827e-01 -9.6362366874133121e-01 0.0000000000000000e+00  5.9319337121995067e-02 1.3238220035504289e+00 0.0000000000000000e+00  6.2694917494883684e-01 -7.7931917554440300e-01 0.0000000000000000e+00  1.0009338403319166e+00 -2.0228384415830591e-03 0.0000000000000000e+00  9.8088221691683908e-01 1.9710112549782738e-01 0.0000000000000000e+00  8.7936952135792690e-01 4.7750957080482465e-01 0.0000000000000000e+00  8.8580879235254317e-01 4.6468672710159448e-01 0.0000000000000000e+00  9.8310947017324812e-01 1.8485993149055954e-01 0.0000000000000000e+00  9.6226161212867645e-01 2.7272816812716322e-01 0.0000000000000000e+00  8.0443380929855246e-01 6.0640937305135345e-01 0.0000000000000000e+00  3.7425460019240125e-01 9.4437414312905421e-01 0.0000000000000000e+00  7.9309960730677287e-01 -5.6147727781951207e-01 0.0000000000000000e+00  9.5138462507375843e-01 3.0590664155840569e-01 0.0000000000000000e+00  9.5654458181740198e-01 -2.9229819792833273e-01 0.0000000000000000e+00  9.5509880698498517e-01 2.9646419080972791e-01 0.0000000000000000e+00  9.9979293400952940e-01 2.9038708654428303e-02 0.0000000000000000e+00  9.5928456906507009e-01 2.8333020786157814e-01 0.0000000000000000e+00  9.9980382331033413e-01 -2.3182467089274426e-02 0.0000000000000000e+00  6.7480991128698764e-01 7.3883352126996993e-01 0.0000000000000000e+00  7.1276216686664984e-01 7.0193479784727519e-01 0.0000000000000000e+00  8.1133239382284519e-02 -1.0376268705748111e+00 0.0000000000000000e+00  1.7590893121149015e-01 -9.8979855339836875e-01 0.0000000000000000e+00  6.3328612125924599e-01 -7.7474008588890531e-01 0.0000000000000000e+00  3.0301316957049995e-01 -9.5307947429977780e-01 0.0000000000000000e+00  3.8459443846935848e-01 -9.2356830563934311e-01 0.0000000000000000e+00  9.5794522383769753e-01 -2.9301501550490999e-01 0.0000000000000000e+00  1.5586175727129800e-01 8.9140985343297763e-01 0.0000000000000000e+00  5.6820678905361588e-01 -8.2319463279477367e-01 0.0000000000000000e+00  3.1617397752129206e-01 -9.4859732326456914e-01 0.0000000000000000e+00  3.2263549561113958e-01 9.4646147081302190e-01 0.0000000000000000e+00  5.7828422581251304e-01 8.1617756780578565e-01 0.0000000000000000e+00  8.3438355255194019e-01 5.6278645304146646e-01 0.0000000000000000e+00  3.9113023828097149e-01 9.2095260549785385e-01 0.0000000000000000e+00  1.9783402685333448e-01 9.7976648006200162e-01 0.0000000000000000e+00  5.1719542560878784e-01 8.5626102527170211e-01 0.0000000000000000e+00  7.3511358710867947e-01 6.7835151131581473e-01 0.0000000000000000e+00  7.9131319808246625e-01 6.1181655513930211e-01 0.0000000000000000e+00  7.1962757277550427e-01 -6.9468432862308882e-01 0.0000000000000000e+00  5.0270171515057394e-01 -8.6483040847174852e-01 0.0000000000000000e+00  8.2338366012822373e-01 -5.6797653595025743e-01 0.0000000000000000e+00  9.9968010992220013e-01 -3.5466934714163185e-02 0.0000000000000000e+00  9.3589928228916952e-01 -3.5327134325740178e-01 0.0000000000000000e+00  1.0007106106647539e+00 -2.0321192897356118e-02 0.0000000000000000e+00  9.60