<?xml version="1.0"?>
<VTKFile type="UnstructuredGrid"  version="0.1"  >
<UnstructuredGrid>
<Piece  NumberOfPoints="2549" NumberOfCells="4928">
<Points>
<DataArray  type="Float64"  NumberOfComponents="3"  format="ascii">2 0 0  1.996686137018095 0.05754231104100042 0  1.986882897305854 0.1143419787233611 0  1.970975633076588 0.1697461736080849 0  1.949521707683106 0.2232516020504374 0  1.92316148102163 0.2745222750136555 0  1.892542813236142 0.323373506980794 0  1.858271349552875 0.3697389590748243 0  1.820885526891715 0.4136350740557075 0  1.780849258848747 0.4551307277194839 0  1.738554874553317 0.4943245260370203 0  1.694330878507049 0.5313291997757913 0  1.648451186236745 0.5662615752889001 0  1.601144123217999 0.5992364926897525 0  1.552600433702648 0.6303633660965611 0  1.502980077905183 0.659744436395664 0  1.452417851070797 0.6874740696729748 0  1.401027953784824 0.7136386818120056 0  1.348907720609051 0.7383169985313379 0  1.29614058371176 0.7615805254953902 0  1.242798492047359 0.7834940823268561 0  1.188943861023348 0.8041163621228731 0  1.134631154358537 0.8235004771642536 0  1.079908172939354 0.8416944721837589 0  1.024817109964837 0.8587417963397553 0  0.9693954136298085 0.8746817324080646 0  0.9136765221153764 0.8895497755796398 0  0.8576904445844472 0.9033779803145155 0  0.801464266694953 0.9161952615587904 0  0.7450225714102614 0.9280276623152515 0  0.6883877952988928 0.9388985892101885 0  0.6315805321092666 0.9488290192996544 0  0.5746197931158087 0.9578376811025375 0  0.5175232373657314 0.9659412118222429 0  0.4603073510223729 0.9731542969378965 0  0.4029876351072817 0.9794897863110468 0  0.3455787518345055 0.9849587968895583 0  0.2880946601251717 0.9895707992366389 0  0.2305487379218517 0.993333690086398 0  0.1729538938792191 0.9962538520116265 0  0.115322670663361 0.998336201090478 0  0.05766733915096163 0.9995842233142798 0  -1.322274611685462e-09 1 0  -0.05766734179523565 0.9995842232761419 0  -0.1153226733068079 0.9983362010141388 0  -0.1729538991952786 0.996253851780904 0  -0.2305487459060017 0.9933336896231258 0  -0.2880946707711053 0.9895707984617989 0  -0.3455787651340506 0.9849587957230019 0  -0.4029876510566202 0.9794897846705534 0  -0.4603073696092293 0.9731542947399749 0  -0.5175232585755485 0.9659412089813419 0  -0.5746198169315506 0.9578376775306909 0  -0.6315805531144443 0.9488290158041717 0  -0.6883878135015997 0.9388985858736937 0  -0.745022586820829 0.9280276592223424 0  -0.8014642793262121 0.9161952587964145 0  -0.8576904516640802 0.9033779786341188 0  -0.9136765236872437 0.8895497751760147 0  -0.9693954097454738 0.8746817334843007 0  -1.02481710068483 0.8587417991084308 0  -1.07990816384232 0.8416944751016707 0  -1.134631145449371 0.8235004802330488 0  -1.188943852307292 0.8041163653447019 0  -1.242798483530528 0.7834940857042606 0  -1.296140602082296 0.7615805176791459 0  -1.348907765262195 0.7383169781359747 0  -1.401028023999701 0.7136386473502353 0  -1.452417945986507 0.6874740195411637 0  -1.502980204542554 0.659744364271727 0  -1.55260059049229 0.6303632695523657 0  -1.601144308255775 0.5992363690857174 0  -1.648451397199867 0.566261421754521 0  -1.694331058738459 0.5313290560928818 0  -1.738555024805723 0.4943243939263901 0  -1.780849380123489 0.4551306090875966 0  -1.820885620520759 0.4136349710133106 0  -1.858271414561462 0.3697388773931348 0  -1.892542852486391 0.3233734495527862 0  -1.923161498240549 0.2745222448569359 0  -1.949521707638369 0.2232516021481025 0  -1.970975633050448 0.1697461736839625 0  -1.986882897293919 0.1143419787752093 0  -1.99668613701505 0.05754231106741577 0  -2 -2.119381739288827e-14 0  -1.996686137015017 -0.05754231106770592 0  -1.986882897293798 -0.114341978775735 0  -1.970975633050334 -0.1697461736842945 0  -1.949521707638351 -0.2232516021481412 0  -1.923161498240437 -0.2745222448571329 0  -1.892542852486365 -0.3233734495528243 0  -1.858271414561291 -0.36973887739335 0  -1.820885620520727 -0.4136349710133463 0  -1.780849380123318 -0.4551306090877636 0  -1.738555024805688 -0.4943243939264208 0  -1.69433105873832 -0.5313290560929934 0  -1.648451397199832 -0.5662614217545467 0  -1.601144308255667 -0.5992363690857894 0  -1.552600590492252 -0.6303632695523889 0  -1.50298020454247 -0.659744364271775 0  -1.452417945986467 -0.6874740195411845 0  -1.40102802399929 -0.713638647350437 0  -1.348907765261459 -0.7383169781363109 0  -1.296140602081886 -0.7615805176793204 0  -1.242798483530485 -0.7834940857042775 0  -1.188943852307122 -0.8041163653447646 0  -1.134631145449091 -0.8235004802331454 0  -1.079908163842153 -0.8416944751017243 0  -1.02481710068479 -0.8587417991084427 0  -0.9693954097453934 -0.874681733484323 0  -0.9136765236871304 -0.8895497751760438 0  -0.8576904516640044 -0.9033779786341368 0  -0.8014642793261747 -0.9161952587964226 0  -0.7450225868207132 -0.9280276592223656 0  -0.688387813501408 -0.9388985858737288 0  -0.6315805531141928 -0.9488290158042135 0  -0.574619816931241 -0.9578376775307373 0  -0.5175232585753057 -0.9659412089813745 0  -0.4603073696090547 -0.9731542947399956 0  -0.4029876510565167 -0.979489784670564 0  -0.3455787651340186 -0.9849587957230047 0  -0.2880946707710729 -0.9895707984618012 0  -0.2305487459059683 -0.9933336896231277 0  -0.1729538991952446 -0.9962538517809054 0  -0.1153226733067752 -0.9983362010141397 0  -0.05766734179520062 -0.9995842232761424 0  -1.322240462585813e-09 -1 0  0.05766733915099533 -0.9995842233142793 0  0.1153226706633956 -0.998336201090477 0  0.1729538938792597 -0.9962538520116249 0  0.2305487379218985 -0.9933336900863954 0  0.2880946601252248 -0.9895707992366352 0  0.3455787518345641 -0.9849587968895532 0  0.4029876351073326 -0.9794897863110416 0  0.4603073510224157 -0.9731542969378913 0  0.5175232373657652 -0.9659412118222385 0  0.5746197931158308 -0.9578376811025342 0  0.6315805321096187 -0.9488290192995957 0  0.6883877952995736 -0.9388985892100637 0  0.7450225714112517 -0.9280276623150527 0  0.8014642666962468 -0.9161952615585074 0  0.857690444585461 -0.903377980314275 0  0.9136765221161084 -0.8895497755794518 0  0.9693954136301919 -0.8746817324079583 0  1.02481710996487 -0.8587417963397453 0  1.079908172939512 -0.8416944721837082 0  1.134631154358807 -0.8235004771641605 0  1.188943861023504 -0.8041163621228153 0  1.242798492047385 -0.7834940823268459 0  1.296140583712152 -0.7615805254952235 0  1.348907720609768 -0.7383169985310102 0  1.401027953785216 -0.7136386818118133 0  1.452417851070815 -0.6874740696729649 0  1.502980077905247 -0.6597444363956275 0  1.552600433702669 -0.6303633660965483 0  1.601144123218091 -0.5992364926896914 0  1.648451186236767 -0.5662615752888848 0  1.694330878507175 -0.5313291997756912 0  1.738554874553337 -0.4943245260370026 0  1.780849258848903 -0.4551307277193312 0  1.820885526891733 -0.4136350740556869 0  1.858271349553032 -0.3697389590746263 0  1.892542813236154 -0.3233735069807763 0  1.923161481021729 -0.2745222750134805 0  1.949521707683112 -0.223251602050424 0  1.970975633076692 -0.1697461736077827 0  1.986882897305967 -0.11434197872287 0  1.996686137018124 -0.05754231104074863 0  -0.1152904195579733 0.6070198455084121 0  0.7139314807447402 -0.5185554509125195 0  -0.9021804071087454 -0.4712698952622889 0  -0.08853261806707058 -0.5931971952512098 0  0.7139314807447157 0.5185554509125249 0  1.417801984821762 0.2291367688541014 0  -0.9202096744148912 0.4669291729068617 0  -1.545989679638069 -0.002355595176244116 0  1.419175259971926 -0.2295798938383525 0  -1.262514497274744 -0.369291382563445 0  -1.008975443817403 -0.0113108633010534 0  -0.6062327478577832 -0.13746405873719 0  -1.281728968624498 0.3515475904410956 0  0.3284986955774252 -0.5906094157356263 0  0.1737280740022324 -0.1722626988402368 0  0.2893086492827969 0.5872833258737034 0  0.428425950012378 0.185265744956867 0  0.8258750024497795 0.002678618671304442 0  -0.4906311993153011 -0.5380519337330318 0  -0.5319151236343942 0.5610340701502295 0  -0.3492448427637153 0.2242372176230919 0  1.101084670418347 -0.3819430866711396 0  1.10085579138347 0.3827620940547057 0  0.5114738231755741 -0.2037878442320408 0  0.0378548298353058 0.2177192870939484 0  -0.68351177520046 0.1879874044068832 0  -0.2205094860969659 -0.1665034527494929 0  1.17295745818125 0.0006108973493657318 0  1.665541930433108 -2.306912664895724e-05 0  0.907508075581543 -0.4502492687918292 0  0.9634798364340638 -0.1896322339999175 0  0.7699032415972596 -0.2579384161206076 0  0.6686744128126767 -0.100554612780368 0  0.6127026519601571 -0.36117164757228 0  1.137021064299799 -0.190666094660887 0  0.9994162303155147 0.001644758010335187 0  -1.145352206220951 0.1701183635700213 0  -1.413859324131283 0.1745959976324259 0  -1.277482561727735 -0.006833229238648594 0  -1.135744970546073 -0.1903011229322492 0  -1.404252088456406 -0.1858234888698444 0  -1.597220538418949 -0.2843085084653953 0  -1.747755693638209 -0.1128035986621925 0  -1.747755693638219 0.1104480034859294 0  -1.597220538418967 0.2819529132891387 0  -0.154521052082018 -0.3798503240003511 0  -0.3555703427061332 -0.3522776932412622 0  -0.2895819086911859 -0.5656245644921211 0  -0.4133711169773747 -0.1519837557433414 0  -0.5484319735865418 -0.3377579962351108 0  -1.455482947237287 -0.4677764021589958 0  -1.465090182912182 0.4589045060978081 0  0.4199862593764998 -0.3971986299838336 0  0.3426009485889036 -0.1880252715361387 0  0.2511133847898288 -0.3814360572879312 0  -1.100969321519695 0.4092383816739789 0  -0.9645925591161468 0.2278091548029043 0  1.62003039343183 -0.3216074839470194 0  1.43579655552137 -0.4585269817556586 0  1.435109917946279 0.4583054192635382 0  1.619343755856739 0.3213859214549047 0  -0.85182234321746 -0.6937325770293555 0  -1.072489445319615 -0.627381990483283 0  -1.081504078972709 0.6252116293055613 0  -0.8608369768705514 0.6915622158516382 0  0.8693742953548055 -0.6886486236261325 0  0.6442756369302858 -0.738196566007527 0  0.644275636930262 0.7381965660075314 0  0.8693742953547762 0.6886486236261405 0  0.01339502629816219 -0.7957666981708436 0  -0.2170556
[...]
<PointData  Vectors="f_588"> 
<DataArray  type="Float64"  Name="f_588"  NumberOfComponents="3" format="ascii">1.0008498478584982e+00 -2.5940948365720788e-07 0.0000000000000000e+00  9.9453755422340184e-01 1.1457517838951678e-01 0.0000000000000000e+00  9.7553047613724619e-01 2.2450795720098735e-01 0.0000000000000000e+00  9.4640218376454421e-01 3.2596710538818136e-01 0.0000000000000000e+00  9.0997188770654325e-01 4.1677017151011975e-01 0.0000000000000000e+00  8.6911572687898042e-01 4.9619736596087033e-01 0.0000000000000000e+00  8.2617803453755256e-01 5.6462238764557315e-01 0.0000000000000000e+00  7.8293458947910877e-01 6.2308031731071734e-01 0.0000000000000000e+00  7.4055912121746392e-01 6.7286119878649120e-01 0.0000000000000000e+00  6.9984132628998386e-01 7.1536291873526103e-01 0.0000000000000000e+00  6.6075987853884199e-01 7.5143402846469931e-01 0.0000000000000000e+00  6.2376823004544713e-01 7.8237614733648164e-01 0.0000000000000000e+00  5.8879263760602152e-01 8.0897031792846408e-01 0.0000000000000000e+00  5.5577422239741492e-01 8.3195037048993958e-01 0.0000000000000000e+00  5.2460426062730092e-01 8.5191374861297797e-01 0.0000000000000000e+00  4.9513944919035313e-01 8.6932852977332264e-01 0.0000000000000000e+00  4.6726547070694097e-01 8.8462880733359650e-01 0.0000000000000000e+00  4.4086171738859220e-01 8.9816579617784809e-01 0.0000000000000000e+00  4.1569249347685117e-01 9.1003282091979776e-01 0.0000000000000000e+00  3.9172245090570251e-01 9.2059160389756745e-01 0.0000000000000000e+00  3.6881969033055501e-01 9.2998167274430676e-01 0.0000000000000000e+00  3.4688615756791269e-01 9.3836163901586400e-01 0.0000000000000000e+00  3.2583003086637058e-01 9.4585883120993697e-01 0.0000000000000000e+00  3.0556757528986361e-01 9.5257943275127754e-01 0.0000000000000000e+00  2.8601817651135586e-01 9.5860310359431045e-01 0.0000000000000000e+00  2.6712128974625327e-01 9.6402003599744091e-01 0.0000000000000000e+00  2.4880920548185015e-01 9.6888778887678895e-01 0.0000000000000000e+00  2.3102536589192826e-01 9.7325984318955583e-01 0.0000000000000000e+00  2.1371774809505908e-01 9.7718365962532616e-01 0.0000000000000000e+00  1.9683865455188415e-01 9.8069780757642055e-01 0.0000000000000000e+00  1.8034457677058258e-01 9.8383875972180668e-01 0.0000000000000000e+00  1.6419502036772440e-01 9.8663570372613973e-01 0.0000000000000000e+00  1.4835262081733189e-01 9.8911528606481902e-01 0.0000000000000000e+00  1.3278339550418863e-01 9.9130435727870070e-01 0.0000000000000000e+00  1.1745217086291451e-01 9.9320406474358458e-01 0.0000000000000000e+00  1.0232974403617580e-01 9.9485643261053291e-01 0.0000000000000000e+00  8.7387617777828774e-02 9.9631029496501977e-01 0.0000000000000000e+00  7.2595261576176059e-02 9.9691188512265960e-01 0.0000000000000000e+00  5.7919862933526418e-02 1.0007476261344721e+00 0.0000000000000000e+00  4.3440653288708116e-02 9.9333023514731866e-01 0.0000000000000000e+00  2.8493487261932595e-02 9.8689375601623519e-01 0.0000000000000000e+00  1.5411850909561979e-02 1.2138627915467430e+00 0.0000000000000000e+00  -3.1182893863133867e-04 -1.1329586022859763e-01 0.0000000000000000e+00  1.4800228387281643e-02 -1.0295757840587227e+00 0.0000000000000000e+00  2.8803784940672556e-02 -1.0158582346545342e+00 0.0000000000000000e+00  4.3364051678795749e-02 -9.9441847947348183e-01 0.0000000000000000e+00  5.7933921712942260e-02 -9.9903361063546037e-01 0.0000000000000000e+00  7.2598767342578363e-02 -9.9743817269863788e-01 0.0000000000000000e+00  8.7391104707803965e-02 -9.9626420141971106e-01 0.0000000000000000e+00  1.0233453930376515e-01 -9.9488899232681638e-01 0.0000000000000000e+00  1.1745745340629493e-01 -9.9323730476190153e-01 0.0000000000000000e+00  1.3278884320634776e-01 -9.9133123562211023e-01 0.0000000000000000e+00  1.4835948695653436e-01 -9.8914680472320071e-01 0.0000000000000000e+00  1.6420203434157221e-01 -9.8666518217357213e-01 0.0000000000000000e+00  1.8035115217938028e-01 -9.8386369562054565e-01 0.0000000000000000e+00  1.9684570762501732e-01 -9.8072301283348273e-01 0.0000000000000000e+00  2.1371963682562331e-01 -9.7719098916858516e-01 0.0000000000000000e+00  2.3102694657020006e-01 -9.7326469000196980e-01 0.0000000000000000e+00  2.4881028971870839e-01 -9.6889108418576075e-01 0.0000000000000000e+00  2.6712197485561512e-01 -9.6402232133845978e-01 0.0000000000000000e+00  2.8601934188104960e-01 -9.5860482130579971e-01 0.0000000000000000e+00  3.0556472272070784e-01 -9.5257363379927584e-01 0.0000000000000000e+00  3.2582469825185634e-01 -9.4584615318027965e-01 0.0000000000000000e+00  3.4688841620126032e-01 -9.3836862461189219e-01 0.0000000000000000e+00  3.6878404154183642e-01 -9.2991281729430975e-01 0.0000000000000000e+00  3.9166900155064416e-01 -9.2049291803058542e-01 0.0000000000000000e+00  4.1564169873828882e-01 -9.0994787185127246e-01 0.0000000000000000e+00  4.4079270018275524e-01 -8.9805328731413991e-01 0.0000000000000000e+00  4.6725039313233346e-01 -8.8460649765475774e-01 0.0000000000000000e+00  4.9513767002950038e-01 -8.6932536237023750e-01 0.0000000000000000e+00  5.2460647266573457e-01 -8.5191931849306934e-01 0.0000000000000000e+00  5.5573510032374773e-01 -8.3189841945719667e-01 0.0000000000000000e+00  5.8888963792743543e-01 -8.0908215261667338e-01 0.0000000000000000e+00  6.2391619721418046e-01 -7.8251706604021321e-01 0.0000000000000000e+00  6.6092085708128756e-01 -7.5157700919809622e-01 0.0000000000000000e+00  6.9996118437424781e-01 -7.1544813681738417e-01 0.0000000000000000e+00  7.4088693858647858e-01 -6.7309198342314613e-01 0.0000000000000000e+00  7.8334025514290329e-01 -6.2332666435880990e-01 0.0000000000000000e+00  8.2657570880446540e-01 -5.6481160939055575e-01 0.0000000000000000e+00  8.6973813918575626e-01 -4.9646321882873723e-01 0.0000000000000000e+00  9.0983412213009884e-01 -4.1669417872306636e-01 0.0000000000000000e+00  9.4597853644068419e-01 -3.2588003610240451e-01 0.0000000000000000e+00  9.7527707058307478e-01 -2.2447806371035442e-01 0.0000000000000000e+00  9.9422435909091877e-01 -1.1459886307455046e-01 0.0000000000000000e+00  1.0008210671959070e+00 3.7126860897592732e-07 0.0000000000000000e+00  9.9422321568011340e-01 1.1459942920905836e-01 0.0000000000000000e+00  9.7527390751891552e-01 2.2447804635890811e-01 0.0000000000000000e+00  9.4597987347683055e-01 3.2588079553669985e-01 0.0000000000000000e+00  9.0982659486013184e-01 4.1669232770493286e-01 0.0000000000000000e+00  8.6971436100697208e-01 4.9645372033635254e-01 0.0000000000000000e+00  8.2655609303564592e-01 5.6480279456766969e-01 0.0000000000000000e+00  7.8331991873245621e-01 6.2331499927755607e-01 0.0000000000000000e+00  7.4086719579199711e-01 6.7307889493819184e-01 0.0000000000000000e+00  6.9994165740110215e-01 7.1543326071359470e-01 0.0000000000000000e+00  6.6090191280968069e-01 7.5156090560103006e-01 0.0000000000000000e+00  6.2389611975530512e-01 7.8249791815198533e-01 0.0000000000000000e+00  5.8887147353456593e-01 8.0906248855139018e-01 0.0000000000000000e+00  5.5570600344248988e-01 8.3186241148977991e-01 0.0000000000000000e+00  5.2458251097065700e-01 8.5188823608344599e-01 0.0000000000000000e+00  4.9511344930322942e-01 8.6929080392702707e-01 0.0000000000000000e+00  4.6722748118994156e-01 8.8457143895681756e-01 0.0000000000000000e+00  4.4077064770203067e-01 8.9801699430853621e-01 0.0000000000000000e+00  4.1562061059949573e-01 9.0991075156742396e-01 0.0000000000000000e+00  3.9164822457036302e-01 9.2045368343429546e-01 0.0000000000000000e+00  3.6876715014329192e-01 9.2987876161815664e-01 0.0000000000000000e+00  3.4687692335885395e-01 9.3834517401886086e-01 0.0000000000000000e+00  3.2581172120996055e-01 9.4581714220780788e-01 0.0000000000000000e+00  3.0555211192869192e-01 9.5254386774364774e-01 0.0000000000000000e+00  2.8600688007105229e-01 9.5857328546192655e-01 0.0000000000000000e+00  2.6710976584678520e-01 9.6398934390515678e-01 0.0000000000000000e+00  2.4879863741635275e-01 9.6885756241723364e-01 0.0000000000000000e+00  2.3101477603335047e-01 9.7322687304674538e-01 0.0000000000000000e+00  2.1371283319193857e-01 9.7716722054580973e-01 0.0000000000000000e+00  1.9684439702436907e-01 9.8071906820322485e-01 0.0000000000000000e+00  1.8034768446248817e-01 9.8384960655957598e-01 0.0000000000000000e+00  1.6419859264745199e-01 9.8665085539104302e-01 0.0000000000000000e+00  1.4835593481665305e-01 9.8913027112536289e-01 0.0000000000000000e+00  1.3278543532323597e-01 9.9131396180517706e-01 0.0000000000000000e+00  1.1745434990282050e-01 9.9321886064534737e-01 0.0000000000000000e+00  1.0233185545979494e-01 9.9487555057159271e-01 0.0000000000000000e+00  8.7389080370755309e-02 9.9623917532778483e-01 0.0000000000000000e+00  7.2596399922042712e-02 9.9739105822102614e-01 0.0000000000000000e+00  5.7933335220234167e-02 9.9943606245565675e-01 0.0000000000000000e+00  4.3374466643692093e-02 9.9229159178525905e-01 0.0000000000000000e+00  2.8719859149570703e-02 1.0211496432828968e+00 0.0000000000000000e+00  1.5088781755056966e-02 1.0331840175586340e+00 0.0000000000000000e+00  -3.9152850731878153e-04 7.4503511924109464e-02 0.0000000000000000e+00  1.5346731954646172e-02 -1.1122953303362244e+00 0.0000000000000000e+00  2.8601239294762850e-02 -1.0103520540640389e+00 0.0000000000000000e+00  4.3400572669536105e-02 -9.9168560620580781e-01 0.0000000000000000e+00  5.7928241117541780e-02 -1.0000973570000562e+00 0.0000000000000000e+00  7.2594526527160239e-02 -9.9718983277126183e-01 0.0000000000000000e+00  8.7386977478474404e-02 -9.9625080920274878e-01 0.0000000000000000e+00  1.0232891085073755e-01 -9.9485417440170498e-01 0.0000000000000000e+00  1.1745048753524147e-01 -9.9319502522167302e-01 0.0000000000000000e+00  1.3278111692087519e-01 -9.9129155651057677e-01 0.0000000000000000e+00  1.4834846276377178e-01 -9.8909572296287940e-01 0.0000000000000000e+00  1.6418996288690713e-01 -9.8661376043161242e-01 0.0000000000000000e+00  1.8033863920299489e-01 -9.8381538872343577e-01 0.0000000000000000e+00  1.9683188630686785e-01 -9.8067327053166142e-01 0.0000000000000000e+00  2.1371024105566169e-01 -9.7715848596117605e-01 0.0000000000000000e+00  2.3101722176001430e-01 -9.7323453157821316e-01 0.0000000000000000e+00  2.4880055773467083e-01 -9.6886275981763970e-01 0.0000000000000000e+00  2.6711222928436024e-01 -9.6399555082760247e-01 0.0000000000000000e+00  2.8600902835698666e-01 -9.5857979019944251e-01 0.0000000000000000e+00  3.0555787512809207e-01 -9.5255654472193885e-01 0.0000000000000000e+00  3.2582026044008017e-01 -9.4583721189285819e-01 0.0000000000000000e+00  3.4687633037701754e-01 -9.3834123383846446e-01 0.0000000000000000e+00  3.6880984893441354e-01 -9.2996249007222220e-01 0.0000000000000000e+00  3.9171268284746191e-01 -9.2057379919114302e-01 0.0000000000000000e+00  4.1568285456048332e-01 -9.1001636167649480e-01 0.0000000000000000e+00  4.4085235826766983e-01 -8.9815094950591168e-01 0.0000000000000000e+00  4.6725652986201310e-01 -8.8461506313359051e-01 0.0000000000000000e+00  4.9513017111851670e-01 -8.6931539292925852e-01 0.0000000000000000e+00  5.2459490435437717e-01 -8.5190146406288270e-01 0.0000000000000000e+00  5.5576490396200895e-01 -8.3193910696119922e-01 0.0000000000000000e+00  5.8878325424347644e-01 -8.0895991762626396e-01 0.0000000000000000e+00  6.2375883743457294e-01 -7.8236669020865346e-01 0.0000000000000000e+00  6.6075071571158539e-01 -7.5142577249793263e-01 0.0000000000000000e+00  6.9983160174602554e-01 -7.1535504015779694e-01 0.0000000000000000e+00  7.4055255852561719e-01 -6.7285636864340337e-01 0.0000000000000000e+00  7.8292916449426098e-01 -6.2307682725222080e-01 0.0000000000000000e+00  8.2617230952771537e-01 -5.6461928696519226e-01 0.0000000000000000e+00  8.6911017970796811e-01 -4.9619496395720480e-01 0.0000000000000000e+00  9.0996647213897819e-01 -4.1676840105595730e-01 0.0000000000000000e+00  9.4639707902074754e-01 -3.2596599818435779e-01 0.0000000000000000e+00  9.7552621286285657e-01 -2.2450760753054388e-01 0.0000000000000000e+00  9.9453223746275254e-01 -1.1457501636055727e-01 0.0000000000000000e+00  1.7260725376350408e-01 -9.8219842276446812e-01 0.0000000000000000e+00  6.2235307311655930e-01 -7.8333894669543003e-01 0.0000000000000000e+00  7.1553213254344794e-01 6.9921562493225875e-01 0.0000000000000000e+00  1.2535463326868307e-01 1.0176431355571818e+00 0.0000000000000000e+00  6.4368199887008504e-01 7.6596423667742264e-01 0.0000000000000000e+00  9.3237874965166778e-01 3.6291489305125252e-01 0.0000000000000000e+00  7.3761814953042093e-01 -6.7593247036470472e-01 0.0000000000000000e+00  1.0008215411668859e+00 7.2406652636582075e-03 0.0000000000000000e+00  9.2850467900487299e-01 -3.7268950732699285e-01 0.0000000000000000e+00  8.2826115254170407e-01 5.6111943826260480e-01 0.0000000000000000e+00  1.0000524656338665e+00 3.2687830965779763e-02 0.0000000000000000e+00  9.5215770167121427e-01 3.0763601958315046e-01 0.0000000000000000e+00  8.4909110460283954e-01 -5.2912997446174070e-01 0.0000000000000000e+00  3.2984526285192411e-01 -9.4433303093147203e-01 0.0000000000000000e+00  5.1307227154342705e-01 -8.6380008800430041e-01 0.0000000000000000e+00  3.1575729321953544e-01 9.4906537938055291e-01 0.0000000000000000e+00  9.0277114778309986e-01 4.3282600372791308e-01 0.0000000000000000e+00  1.0007357604195517e+00 -1.7784942866213752e-02 0.0000000000000000e+00  5.1906382587270283e-01 8.5515042907209948e-01 0.0000000000000000e+00  5.4569640379633810e-01 -8.3843839076683291e-01 0.0000000000000000e+00  8.3985965383687344e-01 -5.4507212887386647e-01 0.0000000000000000e+00  8.1256488834782004e-01 -5.8371287133359018e-01 0.0000000000000000e+00  8.2208782152055782e-01 5.7025629300423342e-01 0.0000000000000000e+00  8.7333759767145491e-01 -4.8866791198127685e-01 0.0000000000000000e+00  9.5685585474139458e-04 3.8189437677871574e-01 0.0000000000000000e+00  9.4746250482758665e-01 -3.2137058734898083e-01 0.0000000000000000e+00  7.0769504567301644e-01 7.0805134676150305e-01 0.0000000000000000e+00  1.0003625094806643e+00 -9.4193539961926077e-03 0.0000000000000000e+00  1.0005299110569943e+00 -2.4513602868103022e-03 0.0000000000000000e+00  7.3393630476485805e-01 -6.8004637288502812e-01 0.0000000000000000e+00  9.4487770245119507e-01 -3.2938691643945273e-01 0.0000000000000000e+00  8.8564000784234953e-01 -4.6607989607113409e-01 0.0000000000000000e+00  9.7346233390937698e-01 -2.3229772306104665e-01 0.0000000000000000e+00  7.5335468747482781e-01 -6.5859069768075817e-01 0.0000000000000000e+00  9.4935471545463990e-01 -3.1559320839826466e-01 0.0000000000000000e+00  1.0004582462254952e+00 -1.2646558884304198e-02 0.0000000000000000e+00  9.6506171397421325e-01 -2.6401486817792730e-01 0.0000000000000000e+00  9.6019275278454186e-01 -2.8163049658469608e-01 0.0000000000000000e+00  1.0002813244781945e+00 1.8680378825453356e-02 0.0000000000000000e+00  9.5003324057556893e-01 3.1374379630725141e-01 0.0000000000000000e+00  9.5212149626647613e-01 3.0779141086504103e-01 0.0000000000000000e+00  8.8565667083579347e-01 4.6623336182914610e-01 0.0000000000000000e+00  9.7912459474136748e-01 2.0756900948785201e-01 0.0000000000000000e+00  9.8046269351647430e-01 -2.0121658144748397e-01 0.0000000000000000e+00  8.8945897808238894e-01 -4.5899352261848131e-01 0.0000000000000000e+00  3.3930858192791030e-01 9.4158897108972861e-01 0.0000000000000000e+00  6.2531358041142004e-01 7.8114101158996352e-01 0.0000000000000000e+00  3.4828130607141033e-01 9.3769486591738949e-01 0.0000000000000000e+00  9.0160297432567227e-01 4.3501840470199921e-01 0.0000000000000000e+00  7.6367132690285566e-01 6.4640460891146378e-01 0.0000000000000000e+00  7.2777890607075779e-01 6.8669250358031164e-01 0.0000000000000000e+00  7.3934237056583729e-01 -6.7428164404319513e-01 0.0000000000000000e+00  5.9920197233851602e-01 -8.0128029116648924e-01 0.0000000000000000e+00  7.9460181831487431e-01 -6.0947695648109790e-01 0.0000000000000000e+00  4.2063589984577410e-01 -9.0821290534149235e-01 0.0000000000000000e+00  8.0117652963818575e-01 -5.9928887167385525e-01 0.0000000000000000e+00  9.3554510464719554e-01 -3.5495734487559877e-01 0.0000000000000000e+00  8.5386585658937697e-01 -5.2157875545093113e-01 0.0000000000000000e+00  7.3623318551964667e-01 -6.7748133543699740e-01 0.0000000000000000e+00  7.4030850003583726e-01 6.7305059315810500e-01 0.0000000000000000e+00  8.5615480831219604e-01 5.1783405085325318e-01 0.0000000000000000e+00  4.6638306758134807e-01 8.8497765339860801e-01 0.0000000000000000e+00  5.5985662554473781e-01 8.2905199002317853e-01 0.0000000000000000e+00  5.7058537032472501e-01 -8.2175888484326676e-01 0.0000000000000000e+00  4.8126620134393577e-01 -8.7701947388127155e-01 0.0000000000000000e+00  4.7093804802025996e-01 -8.8258343952186358e-01 0.0000000000000000e+00  3.6854875880601279e-01 -9.2989742317632995e-01 0.0000000000000000e+00  3.8047894321011638e-01 9.2511300949193209e-01 0.0000000000000000e+00  4.8125472021783966e-01 8.7703660165900654e-01 0.0000000000000000e+00  -4.5849349181600635e-04 2.8426812984692845e-01 0.0000000000000000e+00  1.4819724955061592e-01 9.9007602561321262e-01 0.0000000000000000e+00  1.6496355761111042e-01 -9.8617567530332961e-01 0.0000000000000000e+00  1.0616630216335417e-02 -1.3166872554839972e+00 0.0000000000000000e+00  5.0112015400731080e-01 -8.6577935006629014e-01 0.0000000000000000e+00  9.8735390305096715e-01 1.6421936132686135e-01 0.0000000000000000e+00  9.0263684560872615e-01 4.3230205097083074e-01 0.0000000000000000e+00  7.7913974578590894e-01 6.2804435036858586e-01 0.0000000000000000e+00  8.5026427114216652e-01 5.2736418870631041e-01 0.0000000000000000e+00  9.8841807852715735e-01 1.5518667366204461e-01 0.0000000000000000e+00  9.1613279218319998e-01 4.0229882529078992e-01 0.0000000000000000e+00  7.0169772919249218e-01 7.1689470565756375e-01 0.0000000000000000e+00  3.7323711838955154e-01 1.1367561461131268e+00 0.0000000000000000e+00  1.0010097017243462e+00 -6.6796255150053108e-02 0.0000000000000000e+00  6.1843004877395646e-01 7.8631922990822389e-01 0.0000000000000000e+00  6.3339284882808000e-01 -7.7438227983413210e-01 0.0000000000000000e+00  7.7997315497085429e-01 6.2654221497179297e-01 0.0000000000000000e+00  9.5303291545015545e-01 3.0502408444784868e-01 0.0000000000000000e+00  7.4924685309415184e-01 6.6318366316036370e-01 0.0000000000000000e+00  9.5528489934214722e-01 2.9718894296089260e-01 0.0000000000000000e+00  5.9695384523137096e-01 8.0310393785467993e-01 0.0000000000000000e+00  5.1676486037411296e-01 8.5658551395316551e-01 0.0000000000000000e+00  2.1405624684680054e-02 -1.1413785448478522e+00 0.0000000000000000e+00  1.1592025006372615e-01 -9.9926092803379973e-01 0.0000000000000000e+00  6.8997225690130115e-01 -7.2464237635292172e-01 0.0000000000000000e+00  4.7456667676261266e-01 -8.8110363918122026e-01 0.0000000000000000e+00  3.9441052777533003e-01 -9.1933450793041538e-01 0.0000000000000000e+00  9.9796612870156609e-01 -7.9769281332190634e-02 0.0000000000000000e+00  2.3541318054489446e-01 8.8919375871956274e-01 0.0000000000000000e+00  2.6364637415779923e-01 -9.6481053758054436e-01 0.0000000000000000e+00  1.3056106330715539e-01 -9.9325902529463395e-01 0.0000000000000000e+00  1.2322127272174684e-01 9.9238233384873797e-01 0.0000000000000000e+00  2.6648317290214096e-01 9.6404783503891645e-01 0.0000000000000000e+00  3.4855442989146285e-01 -1.2450572697616669e+00 0.0000000000000000e+00  2.8707388847030274e-01 9.6825517242268622e-01 0.0000000000000000e+00  7.9317968180790635e-02 9.5638652416589387e-01 0.0000000000000000e+00  2.7190217874753481e-01 9.6253229150381592e-01 0.0000000000000000e+00  3.8751988240636798e-01 9.2218166051886719e-01 0.0000000000000000e+00  6.3930734126562727e-01 7.6945747154957389e-01 0.0000000000000000e+00  3.9500912712936326e-01 -9.1903335996513469e-01 0.0000000000000000e+00  2.8681820661802299e-01 -9.5822896042116079e-01 0.0000000000000000e+00  6.5986994913709485e-01 -7.5192428467087891e-01 0.0000000000000000e+00  9.9141500084908052e-01 -1.3457003294136066e-01 0.0000000000000000e+00  8.5725455082303215e-01 -5.1588805808918836e-01 0.0000000000000000e+00  1.0008603944560803e+00 -1.0065818497481823e-03 0.0000000000000000e+00  9.339