<?xml version="1.0"?>
<VTKFile type="UnstructuredGrid"  version="0.1"  >
<UnstructuredGrid>
<Piece  NumberOfPoints="2549" NumberOfCells="4928">
<Points>
<DataArray  type="Float64"  NumberOfComponents="3"  format="ascii">1.460941467495963 0.03831316970967211 0  1.457169618488705 0.06091568836892545 0  1.431562239840151 0.07031010260254886 0  1.423964372232626 0.08523904755582841 0  1.408345648983794 0.09652667195112241 0  1.405620854869513 0.1132215366765333 0  1.39035931992003 0.1293284663386549 0  1.358720287209377 0.1297923703262035 0  1.354197555817504 0.15944908143079 0  1.373632470352012 0.1192501427789774 0  1.349417141667123 0.1800980548280519 0  1.337697858260847 0.2007405010456254 0  1.329821278942256 0.2280739066845452 0  1.32283022794365 0.2587335410501311 0  1.31512320267425 0.2880938403651318 0  1.300858026027212 0.3248688858288601 0  1.273438073130684 0.3380888220981433 0  1.273624789957775 0.350417661237264 0  1.260712699901895 0.4111260267912772 0  1.247339020650666 0.4475532704323899 0  1.233695142304986 0.4942212940458464 0  1.216077385420861 0.5392136438609973 0  1.197183729812823 0.587387319132826 0  1.174152991590894 0.6393037369474379 0  1.148064996664122 0.6915104856449372 0  1.118937008207303 0.7330745257775144 0  1.088735430320324 0.7871387725202238 0  1.056133690496139 0.8425403889858707 0  1.018343308112652 0.8981634896074984 0  0.9770589462856364 0.9546589368805851 0  0.93145791520427 1.010932136695252 0  0.881210861735664 1.067848263636997 0  0.8258031709252854 1.121715265179125 0  0.7676305019128644 1.172737474625938 0  0.7032807535549703 1.225728387227406 0  0.6346726767051342 1.274257333170972 0  0.5610360369943463 1.319569450384981 0  0.4830711510792439 1.36058811865241 0  0.4009458569884553 1.396440773208516 0  0.315182486131732 1.427580789370444 0  0.2258087058113093 1.451094142932826 0  0.1351959991651031 1.467610455428663 0  0.04218822695081362 1.478829699330178 0  -0.05141849336435635 1.481434727825265 0  -0.1449351684845039 1.476752880641786 0  -0.2373990490887039 1.464108359598347 0  -0.3278834386230677 1.444421838861116 0  -0.4156876856386729 1.415996413740241 0  -0.4991246667689155 1.384104681628729 0  -0.5802222135520673 1.345354944536993 0  -0.6559449404972647 1.299322418742389 0  -0.7268965545638444 1.249850125118723 0  -0.7925298849048381 1.196341597938235 0  -0.8533763057918942 1.139669005176842 0  -0.9077119833265183 1.081681670886509 0  -0.9591975416321549 1.018881835229319 0  -1.001777070117744 0.9662565731468069 0  -1.045806482024655 0.909979490054205 0  -1.083531763424076 0.8480277935290329 0  -1.115739173268953 0.7891479892867127 0  -1.145107296711886 0.7327624598242954 0  -1.169220028526347 0.6741056716453019 0  -1.19300785838819 0.6269428086594455 0  -1.215566071339098 0.5573792186307597 0  -1.214863265767684 0.5218615882853375 0  -1.248128168858413 0.499930881287125 0  -1.263628475601843 0.4540048507238609 0  -1.275126761607261 0.4160571165069842 0  -1.286935990968747 0.3801830425969066 0  -1.309077505003529 0.3543867878592638 0  -1.310470145990059 0.3065735379116507 0  -1.312437271024043 0.3393393495580813 0  -1.365139453232264 0.2937974707719344 0  -1.347818005108411 0.2030073313076923 0  -1.350242477571468 0.1785861348201931 0  -1.350463655663538 0.147036389369046 0  -1.361254098841815 0.1288797206065342 0  -1.352326766488096 0.1017003163821286 0  -1.375563791018819 0.1109509071588921 0  -1.328311978346914 0.05142353515034968 0  -1.389708246777249 0.1136045768569201 0  -1.466315861116258 0.1244363613383942 0  -1.436903519538206 0.07749337530797409 0  -1.462324591424552 0.05665366340189647 0  -1.449084062934462 0.03877629668443575 0  -1.457813159579782 0.0247251018224206 0  -1.439973257918732 -0.003322010450013176 0  -1.451922110333817 -0.09992049691870832 0  -1.376659352806487 -0.02435768048202697 0  -1.298385959738595 0.01694004179520254 0  -1.389865682239076 -0.02680226192754812 0  -1.363993544782764 -0.01295759871893071 0  -1.394335686715148 -0.03665118002793698 0  -1.378670417501136 -0.06030869125241987 0  -1.369734620438847 -0.09768670251982439 0  -1.374372428909132 -0.1213675233667397 0  -1.391354937400819 -0.2288295196843153 0  -1.30931768571194 -0.2903323824189949 0  -1.337600182542045 -0.2329320887758003 0  -1.349933105429636 -0.2885661331301768 0  -1.320986257633831 -0.3144971279410848 0  -1.311354425262263 -0.3518936825717733 0  -1.303461691642266 -0.392230036598387 0  -1.291512124732619 -0.4431535526055732 0  -1.249805317971498 -0.4585992552692804 0  -1.260802799111995 -0.495869308382894 0  -1.241072367989155 -0.5768202680141113 0  -1.217644174969161 -0.6251396895907346 0  -1.19732539339474 -0.6900614479429779 0  -1.170070239780117 -0.751311055316925 0  -1.139251816031412 -0.8149662962486114 0  -1.105045164578503 -0.882883567460043 0  -1.05948312030798 -0.9377472509121622 0  -1.024192569080246 -1.003466804844824 0  -0.97053670510342 -1.080464460067727 0  -0.9168972200984068 -1.144815048551603 0  -0.8552755716982019 -1.212254734029764 0  -0.7890025613457655 -1.275259177947194 0  -0.7162839862872012 -1.334578890665322 0  -0.6372605687833248 -1.390867228963772 0  -0.5529023734880579 -1.439337776656653 0  -0.4657314647437706 -1.479246629434076 0  -0.3721861482658949 -1.517038894084178 0  -0.2758496019737136 -1.545199206797231 0  -0.1760845684358767 -1.565037998328772 0  -0.07472133560018061 -1.575700094239682 0  0.02748828545371325 -1.577264256407436 0  0.1293730536526832 -1.569392577265646 0  0.2298467158332561 -1.552529497837957 0  0.3276686289982697 -1.526870965853336 0  0.4222324825605521 -1.493431372351827 0  0.512558384652408 -1.452491664702386 0  0.5979965678933299 -1.405207074688601 0  0.6781020393555041 -1.352037554880926 0  0.7522168446792695 -1.295269688793002 0  0.8209095172526009 -1.231418091612006 0  0.881316174212342 -1.174113361687863 0  0.940484698983845 -1.111899556412377 0  0.9924436411146487 -1.044362452733548 0  1.038704382445203 -0.9787334145736987 0  1.080115731524544 -0.9133419717904886 0  1.117144727671723 -0.8492099039156875 0  1.149248642315341 -0.7862926921018768 0  1.177866498196153 -0.7247937684468694 0  1.204310666004072 -0.6759913920013949 0  1.229437071131924 -0.6178561803396491 0  1.249647943995228 -0.5601220121633933 0  1.266556095284102 -0.5068811003542276 0  1.282208433365169 -0.4574209906903707 0  1.294031918511127 -0.4064375626538653 0  1.307246413620426 -0.3672815280728099 0  1.312054043778957 -0.3008710942184838 0  1.315999596847581 -0.2901631288374693 0  1.339845044378477 -0.2700535309645511 0  1.347005469785408 -0.231008609359106 0  1.35509723227112 -0.1992488334146128 0  1.362482783857274 -0.1684951576004302 0  1.366312070727785 -0.1350178604435862 0  1.374139279015516 -0.1155609433681725 0  1.33253287529736 -0.06809326313032812 0  1.368970065273248 -0.07963399127110998 0  1.390802004423433 -0.07982202674169118 0  1.396061125608852 -0.05351308778134126 0  1.410165630202011 -0.03888630541138498 0  1.416166764488001 -0.02087646764536358 0  1.426120924056346 -0.008214198181185099 0  1.435701421026756 0.006128244032314331 0  1.453669216899178 0.01863368480046313 0  -0.09292004842797308 0.9020066431642946 0  0.6840221912856375 -0.5149741955782465 0  -0.7984305038897324 -0.3826306950747094 0  -0.08152704028599618 -0.9624926729259828 0  0.6461614790866125 0.5002338975580012 0  1.073769246455312 0.1129674027104585 0  -0.7832678578388749 0.4123979593047112 0  -1.138115126175899 0.0355614439574626 0  1.08637539865907 -0.06457179963633862 0  -1.024508109531159 -0.1677928260423459 0  -0.7202562589822398 0.01929594852438907 0  -0.4309020321934403 -0.1402402336558077 0  -1.012155836388777 0.2158561160865381 0  0.3777883274530934 -0.8487848664825145 0  0.08178416891727879 -0.322534268163059 0  0.308076545242245 0.7810829446713343 0  0.221572392576295 0.1884351913810026 0  0.5547667062293046 0.0127585437552855 0  -0.4843542789621552 -0.7054686188791904 0  -0.4977672911050967 0.7052582353961647 0  -0.2356922574759476 0.3177862168951847 0  0.9070332591972607 -0.2148594147169981 0  0.8844154731116119 0.2445397115229596 0  0.3487520585194236 -0.229230820737427 0  -0.008248087206671001 0.2452956138437143 0  -0.4822098873288705 0.217437139026816 0  -0.1864795744010891 -0.2876385097705734 0  0.8498714392639672 0.01935816475433372 0  1.233845107155031 0.03037334977412507 0  0.7958712781630246 -0.3451788598667408 0  0.7089561536900336 -0.1122346934531812 0  0.5778898157776714 -0.2170799488146794 0  0.4365740316384927 -0.08563520258094097 0  0.5069585811914561 -0.3844457440351778 0  0.8522706676998185 -0.08585519356291951 0  0.704145548853543 0.01597703785941681 0  -0.8450014961268832 0.1286437850864659 0  -1.055817079615831 0.1071992515557087 0  -0.9337166174414425 0.02908624901866813 0  -0.852935788123425 -0.08348381092453154 0  -1.060617187140258 -0.04507821236434334 0  -1.224714223159815 -0.07415538795757901 0  -1.289652405922134 0.01083462484986378 0  -1.283715904808159 0.06878526420357989 0  -1.209956847590958 0.1478725292399325 0  -0.1345002193858787 -0.6281262831403086 0  -0.302355652933506 -0.5148572674114361 0  -0.297249270618447 -0.8572503733454654 0  -0.3039678152836419 -0.2063501884467542 0  -0.4485209710883712 -0.4079631107672435 0  -1.216383248951158 -0.1895700303257727 0  -1.194974605167056 0.2519789358665769 0  0.3760633860163191 -0.5205467294535711 0  0.2137164743540492 -0.2626285495078818 0  0.2357507024847883 -0.5811526679208291 0  -0.8978867814370144 0.2981690553507632 0  -0.7148474973607812 0.1971964322762067 0  1.256608313947165 -0.07843727357092727 0  1.195273258798348 -0.1744516406254158 0  1.170234324900477 0.2235935048696676 0  1.240961272695177 0.1369562427045229 0  -0.9129680427165462 -0.6484083286346763 0  -1.038005025752216 -0.4377069743745311 0  -1.009274997830913 0.4811520342209378 0  -0.8790633826445687 0.6708411311934519 0  0.9386462790248272 -0.60722426410513 0  0.776715445523911 -0.8307230974031249 0  0.7347850671640734 0.7952087133592309 0  0.8969338883305351 0.6055828867151353 0  0.04031
[...]
<PointData  Vectors="f_12160"> 
<DataArray  type="Float64"  Name="f_12160"  NumberOfComponents="3" format="ascii">1.0695829567371986e+00 -1.0493084475866254e-01 0.0000000000000000e+00  7.2303970500229298e-01 7.1273992895285676e-01 0.0000000000000000e+00  5.4250213534556213e-01 8.6509417845674674e-01 0.0000000000000000e+00  7.7838828098410395e-01 6.3296610131380604e-01 0.0000000000000000e+00  7.9187913190444148e-01 5.9085455042842594e-01 0.0000000000000000e+00  1.0221020874088749e+00 3.2991818123644112e-01 0.0000000000000000e+00  5.7763694048801696e-02 1.1423826003124327e+00 0.0000000000000000e+00  6.1764359555420978e-01 6.2991362550867580e-01 0.0000000000000000e+00  1.0310769798486366e+00 2.1831647702053458e-01 0.0000000000000000e+00  9.0739810858856118e-01 4.2005256162286331e-01 0.0000000000000000e+00  9.1858132934494063e-01 3.9536296273521376e-01 0.0000000000000000e+00  9.1161439033629066e-01 4.1896951869771948e-01 0.0000000000000000e+00  9.7991463703039439e-01 2.1013912554732289e-01 0.0000000000000000e+00  9.6672558807321840e-01 2.4346885070472296e-01 0.0000000000000000e+00  9.9287293652446673e-01 2.4103574180765680e-01 0.0000000000000000e+00  7.3281857080897239e-01 6.8818811941596969e-01 0.0000000000000000e+00  5.5189520441206963e-01 8.7170920719201406e-01 0.0000000000000000e+00  1.0210517716573653e+00 8.5123090853187477e-02 0.0000000000000000e+00  9.5112016675284350e-01 3.0703890950724638e-01 0.0000000000000000e+00  9.5141545102964342e-01 3.0854116716364571e-01 0.0000000000000000e+00  9.4983355338655295e-01 3.1408592425217730e-01 0.0000000000000000e+00  9.2821293301093166e-01 3.7236441255441621e-01 0.0000000000000000e+00  9.2387884284524346e-01 3.8285295543279674e-01 0.0000000000000000e+00  9.1187304292787430e-01 4.1257961904054574e-01 0.0000000000000000e+00  8.5234396397125023e-01 5.2427814863455502e-01 0.0000000000000000e+00  8.4069622831032542e-01 5.4173993599682913e-01 0.0000000000000000e+00  8.8026671855163219e-01 4.7632823502993216e-01 0.0000000000000000e+00  8.4250211847314649e-01 5.3914492254872948e-01 0.0000000000000000e+00  8.1708674531427117e-01 5.7680060552339119e-01 0.0000000000000000e+00  7.9270042378951633e-01 6.0989808691082237e-01 0.0000000000000000e+00  7.6534737154343979e-01 6.4405507073343105e-01 0.0000000000000000e+00  7.2553182855867826e-01 6.8876482852406851e-01 0.0000000000000000e+00  6.7345376118188305e-01 7.3946996309810642e-01 0.0000000000000000e+00  6.5035073433827129e-01 7.5988339847542152e-01 0.0000000000000000e+00  6.1016698759913879e-01 7.9279303344116847e-01 0.0000000000000000e+00  5.4933008949721684e-01 8.3603000274616446e-01 0.0000000000000000e+00  4.9692703070191174e-01 8.6819697609722857e-01 0.0000000000000000e+00  4.3183019949796447e-01 9.0256205228165221e-01 0.0000000000000000e+00  3.7290871123145053e-01 9.2742165751792804e-01 0.0000000000000000e+00  3.0034319710876400e-01 9.5656782223419135e-01 0.0000000000000000e+00  2.1271579285294159e-01 9.7969076716021075e-01 0.0000000000000000e+00  1.5106134121353174e-01 9.2754575082884783e-01 0.0000000000000000e+00  7.6256771553957520e-02 1.3874478985176641e+00 0.0000000000000000e+00  3.5062324363532610e-03 -6.4219366573562064e-01 0.0000000000000000e+00  9.5035939464955935e-02 -9.6799104693391957e-01 0.0000000000000000e+00  1.7162327677679140e-01 -1.0017419221940307e+00 0.0000000000000000e+00  2.6365934539819164e-01 -9.6199517492065678e-01 0.0000000000000000e+00  3.3573879247025684e-01 -9.4250644515147375e-01 0.0000000000000000e+00  3.8771845914441644e-01 -9.2227170935579139e-01 0.0000000000000000e+00  4.7893876727063045e-01 -8.7850801401675194e-01 0.0000000000000000e+00  5.4838602178618312e-01 -8.3663571465966868e-01 0.0000000000000000e+00  6.0116217623879686e-01 -7.9950111812773994e-01 0.0000000000000000e+00  6.5859331110942843e-01 -7.5292729988270746e-01 0.0000000000000000e+00  7.0458080989148975e-01 -7.1008044869163989e-01 0.0000000000000000e+00  7.5635472774920565e-01 -6.5468300175112093e-01 0.0000000000000000e+00  7.8078129970464971e-01 -6.2487914132933697e-01 0.0000000000000000e+00  7.7322263395352953e-01 -6.3451339657071282e-01 0.0000000000000000e+00  8.2071385226233495e-01 -5.7230684819000854e-01 0.0000000000000000e+00  8.7409683862906751e-01 -4.8690557377271654e-01 0.0000000000000000e+00  8.7639065984590869e-01 -4.8183880223372832e-01 0.0000000000000000e+00  9.1268060947469098e-01 -4.0984086477822806e-01 0.0000000000000000e+00  9.1283292463533305e-01 -4.0765742794196846e-01 0.0000000000000000e+00  9.0208306335312405e-01 -4.3759476416619902e-01 0.0000000000000000e+00  1.0199367844951093e+00 -9.2356975098824193e-02 0.0000000000000000e+00  8.3503587852862160e-01 -5.5073605949579474e-01 0.0000000000000000e+00  7.5457077118625282e-01 -6.7318763694505124e-01 0.0000000000000000e+00  9.9020863828027506e-01 -2.2732857517367380e-01 0.0000000000000000e+00  9.6717131725991023e-01 -2.6112422294788290e-01 0.0000000000000000e+00  8.4337641668165964e-01 -5.5107115695942366e-01 0.0000000000000000e+00  9.1827191832167032e-01 -4.0860306679689057e-01 0.0000000000000000e+00  1.0414688487037949e+00 2.2425287726993542e-01 0.0000000000000000e+00  7.5047438992101145e-01 -7.6915920706441376e-01 0.0000000000000000e+00  9.7317877842692979e-01 -2.3835500665366033e-01 0.0000000000000000e+00  1.0026655404199047e+00 2.6658554974286819e-01 0.0000000000000000e+00  9.9941628818947970e-01 -5.9515966156852299e-02 0.0000000000000000e+00  9.6721561574007964e-01 -2.7468200931548942e-01 0.0000000000000000e+00  1.0459773266956165e+00 -1.2905369242708742e-01 0.0000000000000000e+00  7.4956487309808251e-01 7.3602258242198759e-01 0.0000000000000000e+00  6.4637141669938436e-01 7.6054594688283017e-01 0.0000000000000000e+00  8.5158315461241996e-01 6.0838892486161089e-01 0.0000000000000000e+00  3.4934692013439106e-01 9.5070069235966836e-01 0.0000000000000000e+00  4.3252939438329802e-01 9.1101629600383571e-01 0.0000000000000000e+00  9.8638654765797074e-01 2.6608965703148563e-01 0.0000000000000000e+00  5.5852624792857597e-01 -8.8419326088384254e-01 0.0000000000000000e+00  1.0593712776470916e+00 1.3463134887016423e-01 0.0000000000000000e+00  9.6283252086200366e-01 2.3410385207203155e-01 0.0000000000000000e+00  1.0325855501922081e+00 1.6590035193427219e-01 0.0000000000000000e+00  9.0210457609610106e-01 -4.6930385573188033e-01 0.0000000000000000e+00  5.6809083342684286e-01 -8.4261553027328751e-01 0.0000000000000000e+00  4.3341386924491715e-01 -9.1507545229618747e-01 0.0000000000000000e+00  4.4028654271307222e-01 -8.9425706508176006e-01 0.0000000000000000e+00  5.3523525407253147e-01 -9.6214391905471697e-01 0.0000000000000000e+00  8.3635143987430527e-01 -4.6332361765313129e-01 0.0000000000000000e+00  9.0834150856169671e-01 4.8220169209724356e-01 0.0000000000000000e+00  9.9654979663211929e-01 2.0260248053122043e-02 0.0000000000000000e+00  1.0147864287929464e+00 -3.3836995317707502e-01 0.0000000000000000e+00  9.3836371546891106e-01 3.3846327864412867e-01 0.0000000000000000e+00  6.3587331711799921e-01 8.8258139994046481e-01 0.0000000000000000e+00  1.0071693240707313e+00 -4.2885472533599520e-02 0.0000000000000000e+00  9.9345464598469269e-01 1.2206252661987965e-01 0.0000000000000000e+00  7.9268648545578924e-01 6.6980195256616226e-01 0.0000000000000000e+00  9.9634103705596055e-01 1.4541057125706222e-01 0.0000000000000000e+00  1.0301322849459600e+00 1.1676855803829547e-01 0.0000000000000000e+00  7.1292709964235934e-01 7.3427811427137224e-01 0.0000000000000000e+00  5.7132262530890132e-01 5.9081828729807562e-01 0.0000000000000000e+00  1.0543690284859129e+00 -6.7263984038828661e-02 0.0000000000000000e+00  9.1567247602474178e-01 4.1421927246671802e-01 0.0000000000000000e+00  9.3275982873707264e-01 3.5846035206439431e-01 0.0000000000000000e+00  9.4608824459355134e-01 3.2779512753220824e-01 0.0000000000000000e+00  8.9468799649530273e-01 4.4730986419453911e-01 0.0000000000000000e+00  9.1496879147453281e-01 4.0869203318277714e-01 0.0000000000000000e+00  8.2114599156043133e-01 5.7314583385217954e-01 0.0000000000000000e+00  8.2227713643536471e-01 5.6880053980314638e-01 0.0000000000000000e+00  8.7157640877414733e-01 4.9472289524572283e-01 0.0000000000000000e+00  7.8554760537160073e-01 6.2002652239025058e-01 0.0000000000000000e+00  7.5388175337754815e-01 6.5715523065115455e-01 0.0000000000000000e+00  7.1727531425616320e-01 6.9737082086935964e-01 0.0000000000000000e+00  6.5948077049492870e-01 7.5221218126872447e-01 0.0000000000000000e+00  6.0819326202895185e-01 7.9423511626843768e-01 0.0000000000000000e+00  5.4408292153173476e-01 8.3984398573164998e-01 0.0000000000000000e+00  4.5111375486398331e-01 8.9306589061165909e-01 0.0000000000000000e+00  3.9683980763305493e-01 9.1770443118336975e-01 0.0000000000000000e+00  3.3347205032780636e-01 9.4460423098838431e-01 0.0000000000000000e+00  2.3577389650281752e-01 9.7415908481480340e-01 0.0000000000000000e+00  1.5055053477204022e-01 9.3587142061031769e-01 0.0000000000000000e+00  5.6171034306053975e-02 1.3805388086661396e+00 0.0000000000000000e+00  1.5613249522546375e-02 -1.0844853888667660e+00 0.0000000000000000e+00  1.2445378429855104e-01 -8.7657589930252389e-01 0.0000000000000000e+00  2.1018637157414574e-01 -1.0116251803346032e+00 0.0000000000000000e+00  2.9419979424649584e-01 -9.5107566547677225e-01 0.0000000000000000e+00  3.7386675286311066e-01 -9.2822174984959738e-01 0.0000000000000000e+00  4.4898235181663382e-01 -8.9424214443244232e-01 0.0000000000000000e+00  5.2124900529071971e-01 -8.5383121198648504e-01 0.0000000000000000e+00  5.7782713475145764e-01 -8.1673854727874962e-01 0.0000000000000000e+00  6.5029253051692892e-01 -7.6039752140228467e-01 0.0000000000000000e+00  6.9038112230606974e-01 -7.2368430579394127e-01 0.0000000000000000e+00  6.9674482077936273e-01 -7.1767423211274906e-01 0.0000000000000000e+00  7.6198676932562681e-01 -6.4854313831049304e-01 0.0000000000000000e+00  8.0933074687934825e-01 -5.8806376638652902e-01 0.0000000000000000e+00  8.3033495933963797e-01 -5.5752048560083189e-01 0.0000000000000000e+00  8.5626917146640369e-01 -5.1691549829592598e-01 0.0000000000000000e+00  8.7704505039420355e-01 -4.8083884275275635e-01 0.0000000000000000e+00  9.0582375669903881e-01 -4.2464030762608596e-01 0.0000000000000000e+00  8.9205985514884334e-01 -4.5174060398335975e-01 0.0000000000000000e+00  8.9316097789240989e-01 -4.5092140073482795e-01 0.0000000000000000e+00  9.3502965375675540e-01 -3.5604424412025970e-01 0.0000000000000000e+00  9.5161536896721644e-01 -3.0768688871378158e-01 0.0000000000000000e+00  9.4937581950935945e-01 -3.1459150665246632e-01 0.0000000000000000e+00  9.7007014283698989e-01 -2.4423453178644017e-01 0.0000000000000000e+00  9.5715202236967989e-01 -2.9158778686267572e-01 0.0000000000000000e+00  9.8281218200088261e-01 -1.8489361027791276e-01 0.0000000000000000e+00  1.0100301411989099e+00 -4.1284627427202687e-02 0.0000000000000000e+00  6.6917735476096707e-01 -8.0884983782416953e-01 0.0000000000000000e+00  8.8663153994966615e-01 -4.6041481195626133e-01 0.0000000000000000e+00  1.0022942799797114e+00 -1.3213791325028168e-01 0.0000000000000000e+00  9.5463528152239863e-01 -3.0039980034754482e-01 0.0000000000000000e+00  9.9622038631925014e-01 -1.0130340041142305e-01 0.0000000000000000e+00  9.6751130171773270e-01 -3.2837407251024858e-01 0.0000000000000000e+00  9.0189207900759261e-01 4.5792427446959738e-01 0.0000000000000000e+00  6.2773783159097618e-01 7.9898799332033754e-01 0.0000000000000000e+00  -1.4295445432821243e-02 1.1065506799901872e+00 0.0000000000000000e+00  5.3104341837930535e-01 2.2470761709745060e-01 0.0000000000000000e+00  9.7103215894783834e-01 -5.8744760876167290e-01 0.0000000000000000e+00  8.0707472887223641e-01 -5.7758595047097727e-01 0.0000000000000000e+00  9.1760216018285179e-01 -3.9711024849163645e-01 0.0000000000000000e+00  8.1240154655454178e-01 -5.8692702054826429e-01 0.0000000000000000e+00  6.7739148731022936e-01 -7.5794612033660835e-01 0.0000000000000000e+00  7.6544497107397713e-01 -6.8360457184092416e-01 0.0000000000000000e+00  1.8984564608026003e-01 -9.8364159976147070e-01 0.0000000000000000e+00  8.1627988372545190e-01 -5.7820094376959330e-01 0.0000000000000000e+00  9.4157606193897447e-01 3.3731200932608896e-01 0.0000000000000000e+00  1.8637816415624478e-01 1.0018804447274501e+00 0.0000000000000000e+00  7.4900919818658562e-01 6.6292322727823694e-01 0.0000000000000000e+00  9.6739650138515476e-01 2.5344313440347982e-01 0.0000000000000000e+00  9.0496167750568568e-01 -4.2580287340894951e-01 0.0000000000000000e+00  9.9456701345995457e-01 -1.0436603085294129e-01 0.0000000000000000e+00  9.9712044133841382e-01 7.6481936582997068e-02 0.0000000000000000e+00  9.9531719605046376e-01 9.7466196155228724e-02 0.0000000000000000e+00  9.9788119364422256e-01 -6.6935611919583457e-02 0.0000000000000000e+00  9.8598552540084972e-01 1.7021771680213660e-01 0.0000000000000000e+00  9.7670012784962890e-01 -2.1479662838667338e-01 0.0000000000000000e+00  3.8928507075639945e-01 -9.2159376243675384e-01 0.0000000000000000e+00  9.7612954985958400e-02 1.3506374025253212e+00 0.0000000000000000e+00  3.0189172875343179e-01 9.5478772355613339e-01 0.0000000000000000e+00  5.5998453496570055e-01 8.5118267283443949e-01 0.0000000000000000e+00  9.9635408572113449e-01 9.2480528546033683e-02 0.0000000000000000e+00  6.9180157458591085e-01 7.2254290951489175e-01 0.0000000000000000e+00  6.5903152184063529e-01 -7.5245861663539959e-01 0.0000000000000000e+00  7.5477609911223031e-01 -6.5756950871743469e-01 0.0000000000000000e+00  9.8786470359123180e-01 -1.5621781414237504e-01 0.0000000000000000e+00  9.3523697426747443e-01 3.5424814463923232e-01 0.0000000000000000e+00  8.0513549233485004e-01 -5.9507379475203648e-01 0.0000000000000000e+00  5.0364363032405701e-01 -8.6420433727504975e-01 0.0000000000000000e+00  9.3211212225672868e-01 -3.6307125106243721e-01 0.0000000000000000e+00  8.2082816007727422e-01 5.7481578334816930e-01 0.0000000000000000e+00  9.9329725800412294e-01 1.1616276392388324e-01 0.0000000000000000e+00  9.6569426303718775e-01 2.5983670382619151e-01 0.0000000000000000e+00  9.3715093618705458e-01 -3.4964760657828475e-01 0.0000000000000000e+00  9.9569523698503959e-01 -9.5615168268059908e-02 0.0000000000000000e+00  9.4534346626389343e-01 -3.2798015424891636e-01 0.0000000000000000e+00  9.8673484562363079e-01 -1.6974135419371808e-01 0.0000000000000000e+00  7.8774792891876644e-01 -6.1691814379736498e-01 0.0000000000000000e+00  9.9994747774252690e-01 -1.6257767057633869e-02 0.0000000000000000e+00  9.9514052701419553e-01 1.0015788524508511e-01 0.0000000000000000e+00  9.8587460348280720e-01 -1.6788231173875634e-01 0.0000000000000000e+00  9.9115161937156493e-01 -1.3288164605074798e-01 0.0000000000000000e+00  9.9733320420276317e-01 -7.3421786779004392e-02 0.0000000000000000e+00  9.9935773331919986e-01 3.8099728169728599e-02 0.0000000000000000e+00  9.9966553692422500e-01 -2.7544006482590248e-02 0.0000000000000000e+00  9.9545744512017520e-01 -9.6243696880145960e-02 0.0000000000000000e+00  9.3948522942739487e-01 -3.5137195287204159e-01 0.0000000000000000e+00  9.7595146698979973e-01 -1.2051264138651395e-01 0.0000000000000000e+00  9.9484087414604860e-01 -1.0213053789326039e-01 0.0000000000000000e+00  4.0966814402427515e-01 9.1259248069780552e-01 0.0000000000000000e+00  6.8870384874210910e-01 7.2589079397516632e-01 0.0000000000000000e+00  4.6201825317931150e-01 8.8722601278531643e-01 0.0000000000000000e+00  9.4478910407354233e-01 3.3149228431319894e-01 0.0000000000000000e+00  8.5524161633514650e-01 5.1912475611843834e-01 0.0000000000000000e+00  9.9712613627084201e-01 7.6054591523353046e-02 0.0000000000000000e+00  9.8494282294844926e-01 -1.7314129391089178e-01 0.0000000000000000e+00  5.2827245069500639e-01 -8.4959731497617319e-01 0.0000000000000000e+00  4.9508221734054281e-01 -8.6675840478162658e-01 0.0000000000000000e+00  2.5575740606855657e-01 -9.6693081865961672e-01 0.0000000000000000e+00  9.5311325786579215e-01 -3.0285616534065024e-01 0.0000000000000000e+00  9.6605996257613602e-01 -2.5890628306408997e-01 0.0000000000000000e+00  9.8328187436691050e-01 1.8408910443191850e-01 0.0000000000000000e+00  9.9909318455115081e-01 -4.7460670365741385e-02 0.0000000000000000e+00  9.3315010834741363e-01 3.5971696376868578e-01 0.0000000000000000e+00  9.3886798836667451e-01 3.4456153778380416e-01 0.0000000000000000e+00  8.7836377892692208e-01 4.7828190976228646e-01 0.0000000000000000e+00  9.4250895373082000e-01 3.3445689391069983e-01 0.0000000000000000e+00  9.1599759876052722e-01 -4.0130493021138469e-01 0.0000000000000000e+00  8.4237451656165030e-01 -5.3912609026964442e-01 0.0000000000000000e+00  8.7824692121499215e-01 -4.7855161201464264e-01 0.0000000000000000e+00  7.3973619657610734e-01 -6.7326579807867959e-01 0.0000000000000000e+00  6.9300935493775906e-01 7.2123807482879343e-01 0.0000000000000000e+00  8.2497353408419760e-01 5.6537522921627725e-01 0.0000000000000000e+00  -4.7393109088727674e-04 -2.6027924612023096e-01 0.0000000000000000e+00  3.1008219982933455e-01 9.5285574762046354e-01 0.0000000000000000e+00  2.8194909976257154e-01 -9.6130662720067717e-01 0.0000000000000000e+00  2.2483736069001865e-03 5.8890614026086663e-01 0.0000000000000000e+00  6.2705228680934222e-01 -7.7938113435955858e-01 0.0000000000000000e+00  9.4298829786584071e-01 3.3803622761381219e-01 0.0000000000000000e+00  8.8094573213510174e-01 4.7430795841928508e-01 0.0000000000000000e+00  6.6279052591662102e-01 7.4963148528337598e-01 0.0000000000000000e+00  9.5228696445154559e-01 3.0627228386439143e-01 0.0000000000000000e+00  1.0002576310212485e+00 6.1043858133600767e-03 0.0000000000000000e+00  9.9135228565814493e-01 1.3260261741495630e-01 0.0000000000000000e+00  1.9357280942375094e-01 -1.3507405059558808e+00 0.0000000000000000e+00  8.9218422891184423e-01 4.6779701587766148e-01 0.0000000000000000e+00  3.2998440282133734e-01 -1.4583884595608188e+00 0.0000000000000000e+00  9.6831914508425432e-01 2.5067775195272957e-01 0.0000000000000000e+00  9.4945078611367750e-01 -3.1420289217291425e-01 0.0000000000000000e+00  9.7964251852371720e-01 2.0128291568181672e-01 0.0000000000000000e+00  9.5954119832528417e-01 2.8238046847210158e-01 0.0000000000000000e+00  8.7254135281351619e-01 4.8885955081778204e-01 0.0000000000000000e+00  9.7157241641385239e-01 2.3702482367413716e-01 0.0000000000000000e+00  3.4547931817768374e-01 9.3379609231179161e-01 0.0000000000000000e+00  5.4653608053304725e-01 8.3782636591870863e-01 0.0000000000000000e+00  9.5837614255056727e-02 1.0487834427882321e+00 0.0000000000000000e+00  1.0661623927671589e-01 -8.9555048876672128e-01 0.0000000000000000e+00  6.5978488829627713e-01 -7.5197045778868454e-01 0.0000000000000000e+00  4.2658325087266435e-01 -9.0502953570156586e-01 0.0000000000000000e+00  4.4325164649797882e-01 -8.9670165122157874e-01 0.0000000000000000e+00  1.0045756453363570e+00 -3.5616435664520232e-02 0.0000000000000000e+00  5.4827501273571166e-01 8.4153553976681739e-01 0.0000000000000000e+00  5.6379680197377069e-01 -8.2628006764835349e-01 0.0000000000000000e+00  2.9506894650236454e-01 -9.5764364658635626e-01 0.0000000000000000e+00  2.6237936053685851e-01 9.6690269539464457e-01 0.0000000000000000e+00  5.1079749105442751e-01 8.6005428307840248e-01 0.0000000000000000e+00  1.0009937568337501e+00 -4.7525302146899671e-02 0.0000000000000000e+00  5.0633822232790927e-02 1.3881523989638125e+00 0.0000000000000000e+00  5.5426609816960098e-02 1.2858184397292756e+00 0.0000000000000000e+00  5.5752774282612860e-01 8.3053841871125278e-01 0.0000000000000000e+00  7.6390155755572908e-01 6.4568279914455506e-01 0.0000000000000000e+00  8.5453308882483348e-01 5.1988410061965495e-01 0.0000000000000000e+00  7.2706302405344558e-01 -6.8685427574805169e-01 0.0000000000000000e+00  5.2523709201473145e-01 -8.5129357058852650e-01 0.0000000000000000e+00  8.1203036616770607e-01 -5.8394306099425830e-01 0.0000000000000000e+00  9.8432746550595684e-01 -1.7756894127571363e-01 0.0000000000000000e+00  9.0713675482084566e-01 -4.2135941676559846e-01 0.0000000000000000e+00  9.6994235810511109e-01 2.4660088574894162e-01 0.0000000000000000e+00  9.6517