<?xml version="1.0"?>
<VTKFile type="UnstructuredGrid"  version="0.1"  >
<UnstructuredGrid>
<Piece  NumberOfPoints="2549" NumberOfCells="4928">
<Points>
<DataArray  type="Float64"  NumberOfComponents="3"  format="ascii">1.474981630914291 0.02405032311063162 0  1.471205968766328 0.04716125120725317 0  1.447806848376961 0.05652154755040627 0  1.435838551106787 0.07240231248502565 0  1.431030120853326 0.08360509371169902 0  1.430635256291346 0.1065505633163073 0  1.413064178608191 0.1137743518694476 0  1.399952269780098 0.105677159312654 0  1.388084492365024 0.1506311278509128 0  1.520143161918673 0.6657300107018793 0  1.386970170408843 0.1744621898062563 0  1.380949844552091 0.2155689447050182 0  1.346253318328638 0.232087935654538 0  1.3398012792962 0.2596481418191996 0  1.336670898399347 0.2905203958049665 0  1.318405227027051 0.323077307174958 0  1.310320995245954 0.3574579602385622 0  1.290469232883166 0.3683220566009552 0  1.276657763404878 0.4201186985923497 0  1.26415024450213 0.4604519851427831 0  1.244067118617274 0.5048244786201084 0  1.225754184746963 0.5504608392510247 0  1.202803181468192 0.5979253938673126 0  1.179938430658652 0.6493638181731676 0  1.155215431520763 0.706941332898822 0  1.112643191741634 0.737094214743253 0  1.086341843867472 0.7927530571627035 0  1.054126100311864 0.8506380384662298 0  1.012692623978643 0.9032910333851184 0  0.9696352272009969 0.9591369660177086 0  0.9223286167209074 1.013585639873083 0  0.8699289952534398 1.068563524192283 0  0.8141612455517608 1.121057688111751 0  0.755095579752699 1.170440107597596 0  0.6891089629778099 1.220794032360973 0  0.6203706421053835 1.267481041582101 0  0.5464806954644144 1.310540611796403 0  0.4686071400378147 1.349650093230481 0  0.3870836480970133 1.383493080397644 0  0.3016731375373319 1.412298985908782 0  0.2137947659052372 1.434905070705084 0  0.1244661610996838 1.450081858637479 0  0.03257985742896584 1.459782016542371 0  -0.05914273050746209 1.461516142767185 0  -0.1511300931081999 1.456235919613383 0  -0.2416471523152912 1.44311729960081 0  -0.3305583624577894 1.42380860731955 0  -0.4166039882333269 1.395577154282924 0  -0.4986760218518025 1.364352979877547 0  -0.5781434932805692 1.326408661725199 0  -0.6529595131024389 1.28159760469493 0  -0.7232785748309493 1.233944284705314 0  -0.7885873335229535 1.181882108061397 0  -0.84955715984624 1.127202141408334 0  -0.9042917332375106 1.070852028133237 0  -0.9578700621713163 1.010667921387988 0  -1.000397471185517 0.9578693139862088 0  -1.04574074318324 0.9048733067712449 0  -1.08511381767803 0.8431583506204576 0  -1.119903055724283 0.7856723799519049 0  -1.148624310868515 0.729333505983675 0  -1.17243183173888 0.6689523743188035 0  -1.205453058064194 0.6301136087843291 0  -1.220195923890369 0.5528853386988473 0  -1.221138342407934 0.5124590581117494 0  -1.264890807061046 0.5009039161757273 0  -1.279636758748613 0.4505122080622633 0  -1.289315125113229 0.4120064258538212 0  -1.2967715055841 0.3733561830531184 0  -1.322196432874708 0.3513489454069412 0  -1.331187317933931 0.3017499806740337 0  -1.311374499713946 0.3285504698061915 0  -1.377373860024569 0.2895326584517365 0  -1.372465231140134 0.1944656280525805 0  -1.370088146950372 0.1695019875538484 0  -1.374534263211374 0.1363625712876667 0  -1.388560207558563 0.1193788202495181 0  -1.399131724414073 0.08655217318748419 0  -1.398626402630593 0.111880920891165 0  -1.38894140376316 0.02266445071267978 0  -1.407996296976003 0.09630188044670962 0  -1.437967111322639 0.1585764092347831 0  -1.474081150318513 0.07866741087450084 0  -1.482059215417354 0.0489257848431251 0  -1.504793920802224 0.02117257341306441 0  -1.488589663603192 -0.005378962146709333 0  -1.472726940477753 -0.03871585225299201 0  -1.283545311031765 -0.5229182159461607 0  -1.395054265303971 -0.04279574689034002 0  -1.704992556497257 0.504174990662604 0  -1.441163362851201 -0.0623779853608942 0  -1.45048547300975 0.0135253166746201 0  -1.408693340956015 -0.1298279149619666 0  -1.394766309114029 -0.08756615726743415 0  -1.376023775239855 -0.1007833463792051 0  -1.381439931444656 -0.1226931462927091 0  -1.398348984180104 -0.2418843714068447 0  -1.316935586752197 -0.3426089758069263 0  -1.360928688790509 -0.2390279037560228 0  -1.358108896771147 -0.2963746792716748 0  -1.323125986171187 -0.3230738499211685 0  -1.32936103279098 -0.3607677155296583 0  -1.328360621066997 -0.4005298506028806 0  -1.347186092122838 -0.448250260830768 0  -1.239522669638587 -0.4666942176973805 0  -1.209714903219585 -0.4995603814278589 0  -1.248670225233331 -0.6155044834118953 0  -1.199005020858998 -0.6373481983399246 0  -1.187972786818256 -0.700694090605344 0  -1.163203988875346 -0.7653141374786828 0  -1.140757346371715 -0.8275669239079543 0  -1.098305220242871 -0.9091932095600657 0  -1.033044229727569 -0.9323506515732383 0  -1.007702152942484 -1.005199522765929 0  -0.9557456139821775 -1.088704425307281 0  -0.8983427647949482 -1.142128195278276 0  -0.8367162909583262 -1.210143268841154 0  -0.7703294711686072 -1.269209638128003 0  -0.6980451718453261 -1.326131343789196 0  -0.618688187851253 -1.378436704639123 0  -0.5368643295315707 -1.426587111386098 0  -0.4514232098411966 -1.46391897907051 0  -0.3587589921094443 -1.499299494470058 0  -0.2651125909838996 -1.52642315201448 0  -0.1674432376866282 -1.544851065778143 0  -0.06864616476896779 -1.554972814539625 0  0.03110120263054781 -1.556076945883237 0  0.1304463392021213 -1.548412834953524 0  0.2285000819602 -1.531849311420842 0  0.3240176755752887 -1.506990725263997 0  0.4165061935663587 -1.474792641820152 0  0.5050874165428658 -1.435365786651205 0  0.5890110219187344 -1.389833073808916 0  0.6682830254008735 -1.338779142624047 0  0.7410184925790497 -1.283819816020365 0  0.8115394796838112 -1.223740701047581 0  0.8714252260721563 -1.167423345447893 0  0.9286513868524561 -1.106457061668522 0  0.9829769464757572 -1.041771450734385 0  1.030325414944204 -0.9783864978923454 0  1.073144202923995 -0.9143792159581703 0  1.112736125936219 -0.8528784943793773 0  1.144416483872259 -0.7891858772398392 0  1.170415928590984 -0.72760527867687 0  1.208567465861329 -0.6871209286378201 0  1.231338301779364 -0.6252583179475129 0  1.252741381321232 -0.5691044134414561 0  1.272398331360218 -0.5152990454407912 0  1.281358696684832 -0.464885970850739 0  1.28707780417599 -0.4111929687362504 0  1.315211057743403 -0.383675249547902 0  1.324430094575693 -0.3085303232679483 0  1.289689406777372 -0.3142698389201714 0  1.350452336863799 -0.2756373894785144 0  1.365465657474387 -0.2283554548905844 0  1.363621122212965 -0.1971627709412221 0  1.366874835273866 -0.167570695691577 0  1.376432664245056 -0.1390151177627088 0  1.375262389386029 -0.1056673847582526 0  1.604764399285128 0.824369179880778 0  1.411703935721198 -0.08573721662325241 0  1.404756339887272 -0.09279247043005259 0  1.411764585676816 -0.06173501110220472 0  1.431647719091135 -0.04857156390414111 0  1.430915420773773 -0.02927077833067762 0  1.440572840084303 -0.01790156252813849 0  1.447605033604204 -0.003683283868228615 0  1.467651971714385 0.003966931271547841 0  -0.09650182176816637 0.8822137463077852 0  0.6906996194740168 -0.5053864720608893 0  -0.8072683905825545 -0.3852704083416349 0  -0.07653740980212176 -0.9415501958075452 0  0.6537806484022426 0.4967451171592644 0  1.093576725174979 0.1155417844460428 0  -0.7953288707990617 0.4037719726483488 0  -1.15808427897859 0.02868875923259953 0  1.102989340360645 -0.06468840384439448 0  -1.039778805930055 -0.1757855126658052 0  -0.7344112404404379 0.01422380094604057 0  -0.4392519431177933 -0.1390361560879382 0  -1.02956171053314 0.2093832823526292 0  0.3803933200263361 -0.8300828510295821 0  0.08532632897589182 -0.303118640078738 0  0.3074933336138266 0.7675108625085454 0  0.2210726638520172 0.1837207543136556 0  0.5651641645595707 0.01741735569767079 0  -0.4824057449841226 -0.6950283238523457 0  -0.5029714884096455 0.6889682616753448 0  -0.2387171693609698 0.3042972783078976 0  0.9204286961662717 -0.2128972555299816 0  0.900437226789746 0.2467569702018386 0  0.3550140726689468 -0.2134706696903655 0  -0.008726301988603614 0.2298133601433535 0  -0.4918020377245851 0.208792687406037 0  -0.1882932537874828 -0.2788068746098991 0  0.8658177396051651 0.02205156934375964 0  1.252631393747214 0.0305565872418389 0  0.806080545203847 -0.3399360533835934 0  0.7218246784269736 -0.1068991610975737 0  0.5879627324610224 -0.2071851868152994 0  0.4436792691159465 -0.07614342478949013 0  0.5155462088926686 -0.3699218216299296 0  0.8672218518245874 -0.08298677653654321 0  0.7177798869416444 0.0196038409487988 0  -0.8608581439242418 0.1223048236636341 0  -1.074675070497197 0.100519523399565 0  -0.9505785480554673 0.02265684495155025 0  -0.8679702280972174 -0.08916100688839002 0  -1.07797263225721 -0.05232123383262906 0  -1.241522349910223 -0.0808862507191927 0  -1.315226061602983 0.003830512052934187 0  -1.311728840907796 0.05897634849284126 0  -1.232109255257477 0.139996657972346 0  -0.1306945501616628 -0.6097084286054693 0  -0.3028931877885188 -0.5019721318110192 0  -0.2923136444332456 -0.8403638548065731 0  -0.3091426928048773 -0.2015207526087951 0  -0.4530767751980605 -0.4007499352201796 0  -1.231483525361598 -0.1988888610204474 0  -1.213764131414429 0.2450453521974846 0  0.3839765501540928 -0.5013358446819959 0  0.2181249342522675 -0.244923000659478 0  0.2439273879475345 -0.5594212161289609 0  -0.9129306432720007 0.2913305522733263 0  -0.7285630305479097 0.1901347940302016 0  1.272575415946692 -0.08056046769971957 0  1.209601598951099 -0.1787772470611343 0  1.191798720260432 0.2270341578649802 0  1.267338466978949 0.1398725912960044 0  -0.9133267888682979 -0.6526465479471375 0  -1.04766808194373 -0.4464908622746148 0  -1.022192488612511 0.475266796865638 0  -0.8863948602909705 0.6620471212968233 0  0.9419572915122461 -0.6057907597967809 0  0.7750692945310904 -0.8235645698346755 0  0.7336544586328639 0.7929557327481985 0  0.9027198401481765 0.6075808547576729 0  0.04339930344437255 
[...]
<PointData  Vectors="f_36558"> 
<DataArray  type="Float64"  Name="f_36558"  NumberOfComponents="3" format="ascii">1.0701528914583629e+00 -9.1735171877332530e-02 0.0000000000000000e+00  7.7689459788212933e-01 6.3357520814667567e-01 0.0000000000000000e+00  4.8548409790480129e-01 9.3331783290048254e-01 0.0000000000000000e+00  8.8290117552388980e-01 5.0512304185084123e-01 0.0000000000000000e+00  1.0444779691969899e+00 -2.9307979285573136e-02 0.0000000000000000e+00  8.3905599158801369e-01 6.8477234884386895e-01 0.0000000000000000e+00  -2.1146081628028177e-01 -4.9944265637346642e-02 0.0000000000000000e+00  1.0543763494989677e+00 4.1414835776240638e-01 0.0000000000000000e+00  9.8111688601310498e-01 -2.0318148894727747e-01 0.0000000000000000e+00  9.5834853947762155e-01 -2.7448349510215464e-01 0.0000000000000000e+00  9.8728779540412248e-01 -2.3644130901896751e-01 0.0000000000000000e+00  8.1664712633929271e-01 6.2596540288896230e-01 0.0000000000000000e+00  6.4373112162314650e-01 8.1112645496875191e-01 0.0000000000000000e+00  1.0513397207761019e+00 -3.7448336781049757e-03 0.0000000000000000e+00  9.1556109125156082e-01 4.0177100148313832e-01 0.0000000000000000e+00  9.5277360997657878e-01 3.1970018436377118e-01 0.0000000000000000e+00  8.2677854344287716e-01 5.6500905175810545e-01 0.0000000000000000e+00  8.5309941838164705e-01 5.3138663759774729e-01 0.0000000000000000e+00  9.9560442571437124e-01 1.8893794773647796e-01 0.0000000000000000e+00  9.2075650527125741e-01 3.9052857863162338e-01 0.0000000000000000e+00  9.2005451748698641e-01 3.9173265695438997e-01 0.0000000000000000e+00  9.1835929203334943e-01 3.9685509921003065e-01 0.0000000000000000e+00  8.9165922905433237e-01 4.5076084915467507e-01 0.0000000000000000e+00  9.5960346172574362e-01 3.2595770281615455e-01 0.0000000000000000e+00  7.5277244540742605e-01 6.6436398607650782e-01 0.0000000000000000e+00  7.3669223133532624e-01 6.8065276528561081e-01 0.0000000000000000e+00  9.4065581854354707e-01 3.7798410254852266e-01 0.0000000000000000e+00  8.1442194513306332e-01 5.8122044967989750e-01 0.0000000000000000e+00  7.8523898543483217e-01 6.1921462373809311e-01 0.0000000000000000e+00  7.7963272309118803e-01 6.2661564239647161e-01 0.0000000000000000e+00  7.3727008565605134e-01 6.7590054176994085e-01 0.0000000000000000e+00  7.0704940032839947e-01 7.0746603689201193e-01 0.0000000000000000e+00  6.6261829910406056e-01 7.4924235925376703e-01 0.0000000000000000e+00  6.2330497189732748e-01 7.8215911207216804e-01 0.0000000000000000e+00  5.8737219900231630e-01 8.0962546406383118e-01 0.0000000000000000e+00  5.3292694503936167e-01 8.4652109215079907e-01 0.0000000000000000e+00  4.7661735872115324e-01 8.7944122255107626e-01 0.0000000000000000e+00  4.1720766399649933e-01 9.0928023884501941e-01 0.0000000000000000e+00  3.5109297576576376e-01 9.3607110564382834e-01 0.0000000000000000e+00  2.8698900917830328e-01 9.6038271429935596e-01 0.0000000000000000e+00  2.0694935979082846e-01 9.7922447143544145e-01 0.0000000000000000e+00  1.3593955313125727e-01 9.3356238555473636e-01 0.0000000000000000e+00  6.2429254520066223e-02 1.4137647417150334e+00 0.0000000000000000e+00  7.4627231473456722e-03 -8.2064851570915331e-01 0.0000000000000000e+00  1.0416320243475431e-01 -9.3023272766054022e-01 0.0000000000000000e+00  1.7481262532999478e-01 -1.0075006688994317e+00 0.0000000000000000e+00  2.6496489633589465e-01 -9.6102610263672972e-01 0.0000000000000000e+00  3.3748565768071920e-01 -9.4181994632677202e-01 0.0000000000000000e+00  3.8641709129395935e-01 -9.2283069653197702e-01 0.0000000000000000e+00  4.7729995727188912e-01 -8.7936371159064564e-01 0.0000000000000000e+00  5.3867852472155042e-01 -8.4286830904927401e-01 0.0000000000000000e+00  5.9200763392956890e-01 -8.0629719734740735e-01 0.0000000000000000e+00  6.4667752575873838e-01 -7.6320032772349566e-01 0.0000000000000000e+00  6.9394106485704721e-01 -7.2038570853878914e-01 0.0000000000000000e+00  7.3224876862303023e-01 -6.8139733840307182e-01 0.0000000000000000e+00  7.6973490620984641e-01 -6.3867572368773451e-01 0.0000000000000000e+00  7.6133012506267994e-01 -6.4850508859105838e-01 0.0000000000000000e+00  8.0002222002925860e-01 -6.0081057969962315e-01 0.0000000000000000e+00  8.5896636777877888e-01 -5.1319124344219269e-01 0.0000000000000000e+00  8.5937274947709852e-01 -5.1226825736580028e-01 0.0000000000000000e+00  9.4097589834821194e-01 -3.5309991237437183e-01 0.0000000000000000e+00  8.4306250419531870e-01 -5.4067388072911182e-01 0.0000000000000000e+00  8.8179444438253463e-01 -4.7547912024070776e-01 0.0000000000000000e+00  1.0736320699580681e+00 3.0502148261195225e-02 0.0000000000000000e+00  6.0812998332485690e-01 -7.8509837022903572e-01 0.0000000000000000e+00  6.4769209150952212e-01 -7.7107522010312335e-01 0.0000000000000000e+00  1.0258429064646231e+00 -1.8680709795696826e-01 0.0000000000000000e+00  9.9790880133035498e-01 -1.4868221456578581e-01 0.0000000000000000e+00  8.4090478307193450e-01 -5.5667182575858776e-01 0.0000000000000000e+00  8.8025151438800586e-01 -4.7503378155912845e-01 0.0000000000000000e+00  9.9714292198279286e-01 -1.9197877934627250e-01 0.0000000000000000e+00  4.7365861991709057e-01 -9.9881797434835207e-01 0.0000000000000000e+00  9.3572145761393832e-01 -3.5348161391216504e-01 0.0000000000000000e+00  1.0311153798408188e+00 1.9531920776995251e-01 0.0000000000000000e+00  9.9543078533689511e-01 -1.1283498501688041e-03 0.0000000000000000e+00  9.4135858666862671e-01 -3.9140995859974637e-01 0.0000000000000000e+00  8.6100243889821149e-01 -5.3578785146028707e-01 0.0000000000000000e+00  9.9632110419019304e-01 -1.4904180574101755e-01 0.0000000000000000e+00  9.9955697413937716e-01 8.7114243210755130e-02 0.0000000000000000e+00  9.9156312239687183e-01 1.2606940895419133e-01 0.0000000000000000e+00  9.2083802420201855e-01 4.7170691642967166e-01 0.0000000000000000e+00  1.0022938689122975e+00 -4.3148450551187295e-02 0.0000000000000000e+00  9.2212504030440634e-01 -4.5475851000647860e-01 0.0000000000000000e+00  8.7080215877717304e-01 -5.3340996063311263e-01 0.0000000000000000e+00  9.7610038059424598e-01 -1.7253777390006564e-01 0.0000000000000000e+00  8.7222536430612307e-01 5.9522287351483427e-01 0.0000000000000000e+00  9.1092548367480997e-01 4.1557517306972586e-01 0.0000000000000000e+00  9.7153509633325164e-01 2.4978095407540279e-01 0.0000000000000000e+00  9.2902304834140259e-01 3.7151420359051451e-01 0.0000000000000000e+00  8.6801462551137110e-01 5.0587906394490467e-01 0.0000000000000000e+00  9.3846650666921450e-01 3.4944145499100199e-01 0.0000000000000000e+00  9.7393024538038109e-01 2.2872290057019604e-01 0.0000000000000000e+00  9.8911208034553411e-01 1.5942276657923288e-01 0.0000000000000000e+00  9.9588709026767364e-01 -2.0657480826167049e-01 0.0000000000000000e+00  8.6137992847610612e-01 6.0389130770283250e-01 0.0000000000000000e+00  1.0175870708364638e+00 -3.7284640367720012e-01 0.0000000000000000e+00  9.5115325127655370e-01 3.3267771405497681e-01 0.0000000000000000e+00  7.8870650693686783e-01 6.6624059548995596e-01 0.0000000000000000e+00  1.0150052782506227e+00 1.1871371323382318e-01 0.0000000000000000e+00  8.8768455266616986e-01 4.5907490595119138e-01 0.0000000000000000e+00  8.4948348112519412e-01 5.4522987611743434e-01 0.0000000000000000e+00  1.0037756532689384e+00 -9.6988767157200603e-02 0.0000000000000000e+00  1.1767988469905186e+00 -3.3687598512027611e-01 0.0000000000000000e+00  1.9654507874003005e-01 2.4521430482819565e-01 0.0000000000000000e+00  3.3956817824711322e-01 1.1893243872573180e+00 0.0000000000000000e+00  9.9612116024744446e-01 -1.6352800735138037e-01 0.0000000000000000e+00  9.8025741059060989e-01 -2.1188001633264911e-01 0.0000000000000000e+00  7.4673015894833839e-01 7.6167095660721740e-01 0.0000000000000000e+00  1.0194966679234156e+00 1.4842760680352596e-01 0.0000000000000000e+00  9.1044337326592706e-01 4.0949253445795464e-01 0.0000000000000000e+00  9.8379049230452842e-01 3.1813459622585338e-01 0.0000000000000000e+00  6.0914861078095384e-01 8.0463139498176295e-01 0.0000000000000000e+00  6.6097591897822017e-01 7.5128770956195767e-01 0.0000000000000000e+00  9.8231053661965329e-01 3.3134713395902132e-01 0.0000000000000000e+00  7.3490465712836139e-01 6.8223206990056973e-01 0.0000000000000000e+00  7.0810334253403218e-01 7.0567006702571033e-01 0.0000000000000000e+00  7.2017271764042956e-01 6.9514850062253009e-01 0.0000000000000000e+00  6.3618663383585206e-01 7.7235877783900286e-01 0.0000000000000000e+00  5.8447834720878855e-01 8.1167773912678221e-01 0.0000000000000000e+00  5.3303348377348980e-01 8.4675281294212390e-01 0.0000000000000000e+00  4.5521692356378562e-01 8.9117114415025256e-01 0.0000000000000000e+00  3.7260148011419592e-01 9.2763856405333078e-01 0.0000000000000000e+00  3.2560034966854040e-01 9.4688521293110595e-01 0.0000000000000000e+00  2.3053465674459300e-01 9.8396814038280966e-01 0.0000000000000000e+00  1.4378381309609325e-01 8.8978689585145054e-01 0.0000000000000000e+00  5.0242581881746538e-02 1.5059557932383563e+00 0.0000000000000000e+00  2.1064930522444455e-02 -1.1477199307083075e+00 0.0000000000000000e+00  1.2317317002387736e-01 -9.1790743898916660e-01 0.0000000000000000e+00  2.1064417939257668e-01 -9.9285152130767829e-01 0.0000000000000000e+00  2.9073420069425393e-01 -9.5596604196573720e-01 0.0000000000000000e+00  3.6808715450690155e-01 -9.3011797331333657e-01 0.0000000000000000e+00  4.4316152321235458e-01 -8.9699507745713969e-01 0.0000000000000000e+00  5.0960062342125878e-01 -8.6084314818420848e-01 0.0000000000000000e+00  5.7349199604027523e-01 -8.1969226425055186e-01 0.0000000000000000e+00  6.2889593746952477e-01 -7.7784341744956798e-01 0.0000000000000000e+00  6.6572184988072980e-01 -7.4644747048718241e-01 0.0000000000000000e+00  7.0726907830362862e-01 -7.0727662121639379e-01 0.0000000000000000e+00  7.4878214385524955e-01 -6.6322413129443281e-01 0.0000000000000000e+00  7.8284303388745391e-01 -6.2262453151066954e-01 0.0000000000000000e+00  8.2001824623310149e-01 -5.7279604166712783e-01 0.0000000000000000e+00  8.3440302524151566e-01 -5.5123730966970264e-01 0.0000000000000000e+00  8.5860153010527074e-01 -5.1355030770223198e-01 0.0000000000000000e+00  9.4076375848117177e-01 -3.5780728745392204e-01 0.0000000000000000e+00  8.2122929010359524e-01 -5.7333159310427273e-01 0.0000000000000000e+00  8.3557323263392591e-01 -5.5411299179679074e-01 0.0000000000000000e+00  9.6271894884360920e-01 -2.9388276795733620e-01 0.0000000000000000e+00  9.2547454686642028e-01 -3.7801275476914392e-01 0.0000000000000000e+00  9.5737030924422806e-01 -2.9196703974277338e-01 0.0000000000000000e+00  1.0235794725195597e+00 -2.8561010820393692e-02 0.0000000000000000e+00  8.7774530105131821e-01 -4.9457037549897798e-01 0.0000000000000000e+00  9.3699006898727455e-01 -3.5031569617436903e-01 0.0000000000000000e+00  9.9354417813237583e-01 -1.8337544507749665e-01 0.0000000000000000e+00  2.6584837783185072e-01 -1.0276165245183844e+00 0.0000000000000000e+00  8.0140922991327368e-01 -6.2708660124651183e-01 0.0000000000000000e+00  1.0207597137826852e+00 -9.1524891507079778e-02 0.0000000000000000e+00  1.0053742427786310e+00 6.6709630183187513e-02 0.0000000000000000e+00  9.5781176732276763e-01 -3.1809569211086425e-01 0.0000000000000000e+00  1.0023327861234081e+00 -6.2526833650116534e-02 0.0000000000000000e+00  9.7180687246603870e-01 -2.3646224647609734e-01 0.0000000000000000e+00  9.7433546542736382e-01 -2.2512073763101342e-01 0.0000000000000000e+00  9.7869239743590719e-01 -2.0546188919515398e-01 0.0000000000000000e+00  9.6405756854877789e-01 -2.7755555834587486e-01 0.0000000000000000e+00  8.3684212246254652e-01 -5.5946336577928857e-01 0.0000000000000000e+00  8.0594694129274036e-01 -6.0004628443616614e-01 0.0000000000000000e+00  1.0158681135962138e+00 -1.2789308195326732e-01 0.0000000000000000e+00  8.4051550153190313e-01 -5.7031502315720251e-01 0.0000000000000000e+00  6.0131741231183855e-01 -8.2326932848880718e-01 0.0000000000000000e+00  6.8822326872668615e-01 -7.6837300268994202e-01 0.0000000000000000e+00  1.0709980403855346e-01 -9.2075019888526022e-01 0.0000000000000000e+00  8.2590982474555419e-01 -5.6420676044750995e-01 0.0000000000000000e+00  8.9507091471247580e-01 4.4632553644732403e-01 0.0000000000000000e+00  7.4517251565823603e-02 1.1258223349634933e+00 0.0000000000000000e+00  8.2058053733185654e-01 5.7197828071337919e-01 0.0000000000000000e+00  9.9264003556134328e-01 1.2159948764551129e-01 0.0000000000000000e+00  8.9799865573140680e-01 -4.4040282313130868e-01 0.0000000000000000e+00  9.9980159724855755e-01 2.2199781768287130e-02 0.0000000000000000e+00  9.9389963254377101e-01 -1.1092323996311025e-01 0.0000000000000000e+00  9.7402930512939567e-01 2.2684086510395890e-01 0.0000000000000000e+00  1.0001781346427545e+00 5.8894346899202791e-04 0.0000000000000000e+00  9.5716340349972562e-01 2.9223399464734484e-01 0.0000000000000000e+00  9.7902918490878976e-01 -2.0418754921459906e-01 0.0000000000000000e+00  4.7233674980639201e-01 -8.8175330799866936e-01 0.0000000000000000e+00  4.2623695418577756e-01 -9.1008417123802998e-01 0.0000000000000000e+00  4.1836816127351251e-01 9.0857779386775184e-01 0.0000000000000000e+00  8.8192031601490062e-01 4.7451529967542067e-01 0.0000000000000000e+00  1.0003652097085214e+00 2.8747279445883117e-03 0.0000000000000000e+00  5.8886535689949127e-01 8.0861418103467642e-01 0.0000000000000000e+00  6.2006814224759821e-01 -7.8491406262623264e-01 0.0000000000000000e+00  6.8472334369053378e-01 -7.3089469769425097e-01 0.0000000000000000e+00  9.6572537846448725e-01 -2.6005052717560700e-01 0.0000000000000000e+00  9.6469012150352462e-01 2.6383027358642891e-01 0.0000000000000000e+00  8.8268693604531956e-01 -4.7146925657509015e-01 0.0000000000000000e+00  5.1576011544217319e-03 2.2350444119081730e-01 0.0000000000000000e+00  9.3491188812823045e-01 -3.5620125600248892e-01 0.0000000000000000e+00  5.9992276260835498e-01 8.0325356887165622e-01 0.0000000000000000e+00  1.0000414350829263e+00 6.6832695929149449e-03 0.0000000000000000e+00  9.9986109401780199e-01 1.9610490708743447e-02 0.0000000000000000e+00  9.2018127432245689e-01 -3.9196259231379638e-01 0.0000000000000000e+00  9.8718980780081256e-01 -1.6084552463334284e-01 0.0000000000000000e+00  9.4620233069168547e-01 -3.2486878516316031e-01 0.0000000000000000e+00  9.8423572548487548e-01 -1.8027393170123138e-01 0.0000000000000000e+00  8.3488966696731470e-01 -5.5119761138908230e-01 0.0000000000000000e+00  9.9285764553861544e-01 -1.1993936221889340e-01 0.0000000000000000e+00  1.0001091172958860e+00 6.0926048295814952e-03 0.0000000000000000e+00  9.9236096440750865e-01 -1.2425927489730404e-01 0.0000000000000000e+00  9.9736951402982643e-01 -7.3512040495501252e-02 0.0000000000000000e+00  1.0000496318158043e+00 3.7822746833603917e-03 0.0000000000000000e+00  9.9132206184375904e-01 1.3233471864921034e-01 0.0000000000000000e+00  9.9513281774752149e-01 9.9332347535899854e-02 0.0000000000000000e+00  9.8889919192774312e-01 1.4881749483881199e-01 0.0000000000000000e+00  9.9134298311750046e-01 1.3309889829782870e-01 0.0000000000000000e+00  9.9955377914450305e-01 4.4226159113165291e-02 0.0000000000000000e+00  9.9530792027952208e-01 -9.7567587565808120e-02 0.0000000000000000e+00  1.9319327168779601e-01 1.0048975837421985e+00 0.0000000000000000e+00  5.2609406461200980e-01 8.5107070640839089e-01 0.0000000000000000e+00  3.4281561878448585e-01 9.3930475748746944e-01 0.0000000000000000e+00  8.6522130845889555e-01 5.0482832268381750e-01 0.0000000000000000e+00  7.6010691829548871e-01 6.5058338758174972e-01 0.0000000000000000e+00  9.6743242786486761e-01 2.5364823692448818e-01 0.0000000000000000e+00  9.7196526194458888e-01 -2.3560879893995468e-01 0.0000000000000000e+00  6.5542622477467571e-01 -7.5578412115110927e-01 0.0000000000000000e+00  7.5290480876724375e-01 -6.5973509371910777e-01 0.0000000000000000e+00  4.5837508373707569e-01 -8.8947666874336107e-01 0.0000000000000000e+00  9.5248153331942076e-01 -3.0501272599543949e-01 0.0000000000000000e+00  9.7253880593855024e-01 -2.3371059286941770e-01 0.0000000000000000e+00  9.8690901703021483e-01 -1.6185852733161121e-01 0.0000000000000000e+00  9.5680540105561818e-01 -2.9175841733363811e-01 0.0000000000000000e+00  9.6107671406126527e-01 2.7684496279454701e-01 0.0000000000000000e+00  9.8172227596205830e-01 1.9177719931109227e-01 0.0000000000000000e+00  8.2010686527919008e-01 5.7237782181100394e-01 0.0000000000000000e+00  8.9662437765078229e-01 4.4323608019715338e-01 0.0000000000000000e+00  8.9296480324697036e-01 -4.5026485745432515e-01 0.0000000000000000e+00  8.2166344426315641e-01 -5.7017329063727673e-01 0.0000000000000000e+00  8.5607196621619208e-01 -5.1702123305476233e-01 0.0000000000000000e+00  7.4147192633989878e-01 -6.7124638056187447e-01 0.0000000000000000e+00  7.1759991881113205e-01 6.9670272229668140e-01 0.0000000000000000e+00  8.3551054165019567e-01 5.4967292412469737e-01 0.0000000000000000e+00  4.9686370217870840e-02 -1.4156802529411654e+00 0.0000000000000000e+00  2.5508152535426698e-01 9.6321811469906715e-01 0.0000000000000000e+00  2.5150049559733162e-01 -9.6625658341392962e-01 0.0000000000000000e+00  3.7545435354200775e-02 1.4734752207294721e+00 0.0000000000000000e+00  6.7884947946245600e-01 -7.3462134954331104e-01 0.0000000000000000e+00  9.8876118187706707e-01 1.5499104938389302e-01 0.0000000000000000e+00  9.4587839804776952e-01 3.2582228731521801e-01 0.0000000000000000e+00  8.1686182190619472e-01 5.7777354687189308e-01 0.0000000000000000e+00  9.0682965390294967e-01 4.2242587713598900e-01 0.0000000000000000e+00  9.9639824060668425e-01 8.9214830833822048e-02 0.0000000000000000e+00  9.7289030662812415e-01 2.3227297215717294e-01 0.0000000000000000e+00  7.0276499018824390e-01 7.1833901098286046e-01 0.0000000000000000e+00  -4.5129225741834582e-02 1.6575786195878631e-01 0.0000000000000000e+00  9.5032365578846723e-01 -3.2831318566708900e-01 0.0000000000000000e+00  9.2266654339493193e-01 3.8404926679971546e-01 0.0000000000000000e+00  9.2991851818403615e-01 -3.6826437865031397e-01 0.0000000000000000e+00  9.4895818221233175e-01 3.1578721605677834e-01 0.0000000000000000e+00  9.8560992449177431e-01 1.7019602076463397e-01 0.0000000000000000e+00  9.1731278738501332e-01 3.9866115238206962e-01 0.0000000000000000e+00  9.9152657855942106e-01 1.3044214697203971e-01 0.0000000000000000e+00  5.9492870220546157e-01 8.0438525856300658e-01 0.0000000000000000e+00  6.5482209310470463e-01 7.5618343064218962e-01 0.0000000000000000e+00  1.4117548249621731e-01 -9.2047920308267295e-01 0.0000000000000000e+00  2.1234425122016221e-01 -9.7054703784844154e-01 0.0000000000000000e+00  5.9952506656128102e-01 -8.0094208866553085e-01 0.0000000000000000e+00  3.0481846821293540e-01 -9.5459605469493503e-01 0.0000000000000000e+00  3.7976456733491276e-01 -9.2554822122459524e-01 0.0000000000000000e+00  9.9688603971873802e-01 -9.5783646201064290e-02 0.0000000000000000e+00  3.9784439414009762e-02 1.2095866910936510e+00 0.0000000000000000e+00  5.8315687748344325e-01 -8.1266751903088508e-01 0.0000000000000000e+00  3.2964063623941831e-01 -9.4393957670014383e-01 0.0000000000000000e+00  2.9699693908802577e-01 9.5465137528671384e-01 0.0000000000000000e+00  5.4406781144116900e-01 8.3934011148803511e-01 0.0000000000000000e+00  1.0004752304717119e+00 1.0652517101766555e-01 0.0000000000000000e+00  3.1395806259738351e-01 9.5127583872515509e-01 0.0000000000000000e+00  1.6171789569081915e-01 1.0106812114304362e+00 0.0000000000000000e+00  4.9412081381287454e-01 8.6974456568549530e-01 0.0000000000000000e+00  6.9748916586680665e-01 7.1683737563115268e-01 0.0000000000000000e+00  7.8168971990089642e-01 6.2407829197613751e-01 0.0000000000000000e+00  7.0315005539361919e-01 -7.1131513013862757e-01 0.0000000000000000e+00  4.9628131522321495e-01 -8.6849326037812136e-01 0.0000000000000000e+00  7.9288353248877486e-01 -6.0974711164093198e-01 0.0000000000000000e+00  9.9156017125306539e-01 -1.3202223401369645e-01 0.0000000000000000e+00  9.0538544372464480e-01 -4.2530822049269551e-01 0.0000000000000000e+00  9.9936289340538276e-01 4.9452560112033181e-02 0.0000000000000000e+00  9.