<?xml version="1.0"?>
<VTKFile type="UnstructuredGrid"  version="0.1"  >
<UnstructuredGrid>
<Piece  NumberOfPoints="2549" NumberOfCells="4928">
<Points>
<DataArray  type="Float64"  NumberOfComponents="3"  format="ascii">1.472048563464113 0.03275017633872893 0  1.467566951039106 0.05577278130275784 0  1.443784240974115 0.06476106259206252 0  1.431463593663947 0.08087416782349582 0  1.426198377913818 0.09292960300610419 0  1.421565923199456 0.1164090519565248 0  1.401875667178485 0.1208519682201372 0  1.370467013386172 0.1255141313763416 0  1.39234255929955 0.1534031918676487 0  1.412635445351124 0.3596556003412359 0  1.383747337550984 0.1761595477206727 0  1.376270013932423 0.214890342196215 0  1.338326814123688 0.2321336723850538 0  1.335554769552484 0.2595773469887553 0  1.332181328987288 0.2909090332488011 0  1.313709665086112 0.3233839312107532 0  1.304781977590613 0.3575233962144381 0  1.285673359889233 0.3684745641249056 0  1.271796218130758 0.4201579111092752 0  1.259408104120724 0.4599193898584925 0  1.240123298612477 0.5044976688459996 0  1.221981173481383 0.5498431348810151 0  1.200098836203384 0.5973740028290567 0  1.176204886092784 0.6485487975455383 0  1.151570812798027 0.7039865246002168 0  1.113168992627849 0.7386885078703646 0  1.085226185108959 0.7935365921105321 0  1.052026435640158 0.8497801703319522 0  1.01172542664914 0.9034079016693686 0  0.9690087058988437 0.9590663466282198 0  0.9220523624623943 1.013817537707025 0  0.870103690030525 1.069079892384587 0  0.814504445328932 1.121794498558198 0  0.7556115290572852 1.17142100019283 0  0.6899263942970583 1.222212139671678 0  0.6213064869799699 1.26922456562419 0  0.5474169573982498 1.312643556784535 0  0.4695736887891641 1.352098163775894 0  0.3879005685234481 1.386212725956736 0  0.3024076324012029 1.415432668243453 0  0.214259342263567 1.438106703489198 0  0.1246330686098655 1.453438008862296 0  0.0325499406745538 1.463363980848159 0  -0.05956403007772101 1.465146794504337 0  -0.1518236120235212 1.459874995207235 0  -0.2427486629570773 1.446759855071284 0  -0.3319046140425284 1.4272437790671 0  -0.4183217171707582 1.398888039506273 0  -0.5006353483171708 1.367448442715258 0  -0.5803501845269865 1.329195075100426 0  -0.6553474376415778 1.284059718006167 0  -0.7257550124347382 1.235966616016604 0  -0.7910764196913381 1.183508215448355 0  -0.8520298345387414 1.128364503818537 0  -0.9065223342903649 1.071541379755385 0  -0.9598713223108103 1.010868409095616 0  -1.002319429056727 0.9579808109955789 0  -1.047201566849959 0.9040926345731261 0  -1.086244338912424 0.8423319076695879 0  -1.120286091148635 0.784365417097217 0  -1.149782730883576 0.728416387757076 0  -1.174065787123357 0.6683566042384437 0  -1.204549665552641 0.6269624483722112 0  -1.219518104997136 0.5511020020301158 0  -1.220695235740454 0.5115774578191942 0  -1.26353987281759 0.4994531804495767 0  -1.278433686426327 0.4491307901406759 0  -1.288043523566963 0.4104438314126233 0  -1.295840917460638 0.3721463570303502 0  -1.320911389945501 0.3498329451576956 0  -1.328806669767714 0.3002138207683918 0  -1.309539739593945 0.3260513453527564 0  -1.376239655426981 0.2886936535066679 0  -1.370584195063741 0.1935930840362559 0  -1.368204397304642 0.16869998786463 0  -1.372188631634007 0.1356277117250669 0  -1.385839559098686 0.1185376183598244 0  -1.395410342329506 0.08594473979117018 0  -1.396519414160039 0.1109842757440357 0  -1.379227723547378 0.02439888301117088 0  -1.406262215784344 0.09474723015399333 0  -1.43889738943289 0.1533709006931681 0  -1.471187178817731 0.07634510510782175 0  -1.479458759699163 0.04708710543972715 0  -1.502893805324544 0.01914657045982246 0  -1.485342258484032 -0.007019484526100126 0  -1.468609172862622 -0.03960022434060941 0  -1.291110810552025 -0.4231579402372234 0  -1.392210805012454 -0.04208130011551527 0  -1.590436428168992 0.3328860051021528 0  -1.436943379857057 -0.06385108469407853 0  -1.455550770325037 0.009223343532330038 0  -1.413709304869855 -0.1253557243563313 0  -1.388929034046302 -0.08846538783423856 0  -1.372487581542555 -0.1013292254467671 0  -1.379384728171935 -0.1238484958854315 0  -1.397384488370476 -0.2405238976625657 0  -1.326420325400511 -0.347135292785445 0  -1.359107983561819 -0.2401960117429024 0  -1.356320612485829 -0.2982156903794564 0  -1.321639024374408 -0.3248368987348378 0  -1.32792161544938 -0.3627486737429889 0  -1.326671536351501 -0.4028937085691069 0  -1.346987794553424 -0.4508101259531877 0  -1.236216903085796 -0.4669463784084237 0  -1.206691422306663 -0.5000037601839519 0  -1.251837051551724 -0.6186775107156276 0  -1.198437630161285 -0.6373543139441621 0  -1.188401324741859 -0.7024708868701359 0  -1.161516075942626 -0.765856182322853 0  -1.141576469790448 -0.8297435329537474 0  -1.095989692601954 -0.909313028696322 0  -1.03163340499167 -0.9341435595335594 0  -1.009102168930642 -1.007625756118455 0  -0.9543379645157463 -1.090052136183365 0  -0.8973178134585452 -1.144093905180333 0  -0.8364060813011103 -1.212929592044339 0  -0.7694987930491671 -1.272106377987055 0  -0.6971463341161241 -1.329365854326679 0  -0.6175310915611423 -1.381984308753766 0  -0.5353513734704117 -1.430314625082521 0  -0.4495885594062994 -1.467824765889774 0  -0.3564550457061787 -1.503217053098179 0  -0.2623967049903533 -1.530425904500531 0  -0.1642689574655215 -1.548811966355138 0  -0.06498695306823686 -1.558750762509726 0  0.03520060734210145 -1.55967964052731 0  0.1349789227575746 -1.551640006875229 0  0.2334197975090026 -1.534805173627042 0  0.3292766981382794 -1.50952577935704 0  0.4220248656474026 -1.476767252726506 0  0.5107766997406393 -1.436795064840766 0  0.5947738398503946 -1.390651325079373 0  0.674031502645675 -1.338935185541676 0  0.7466432449817074 -1.283365715748327 0  0.8167021018717864 -1.222468830418192 0  0.8764539452251321 -1.165732734161735 0  0.9335460513102054 -1.104347686496132 0  0.9873555383783253 -1.039061395294927 0  1.034143975911855 -0.975125530668661 0  1.076493095017545 -0.9109116663328488 0  1.114760303573021 -0.8484856102967431 0  1.147558778190581 -0.7860437538238385 0  1.175930056303225 -0.7250715666999867 0  1.207475230060769 -0.6795462357603103 0  1.230568025931615 -0.620105040236804 0  1.253624494715595 -0.5640939453881674 0  1.27001865257943 -0.5099056261342053 0  1.285772800078312 -0.4619386748189881 0  1.289382442111213 -0.4067504887160147 0  1.313867079652327 -0.3792889146552035 0  1.313151112259878 -0.2989127898257987 0  1.295373677005409 -0.3166320106398443 0  1.346239503191152 -0.2722882553246493 0  1.36489928153398 -0.2239702526552328 0  1.359296528241839 -0.1927211566489522 0  1.364643835959046 -0.1632008313087556 0  1.374234160680262 -0.1349551375003251 0  1.372242731991422 -0.100658604265603 0  1.829427426308471 0.4325632722641041 0  1.407613811969032 -0.07946615866502649 0  1.401687134940594 -0.08696231106658289 0  1.40980377397698 -0.05606643729712521 0  1.429005175483785 -0.04256605500220149 0  1.428563424524426 -0.02256200897748329 0  1.438271362815609 -0.011286841162113 0  1.445142602955162 0.004116511587690629 0  1.464924674504674 0.01237122444884892 0  -0.09701111525364763 0.8856829364647099 0  0.6902146121855957 -0.504697919750144 0  -0.8051667605273101 -0.3870271159743044 0  -0.07405388527982484 -0.9453199069281413 0  0.6507990765967899 0.4978618396763803 0  1.089089402300209 0.1171601017132022 0  -0.7944935583970618 0.4038601140133679 0  -1.156008016615982 0.02762010228837999 0  1.099551865296733 -0.06209198559421431 0  -1.037750775225488 -0.1768412054558573 0  -0.7329879309207967 0.01328803582565106 0  -0.4385671726593721 -0.140687469988111 0  -1.027876149326172 0.2083917347970107 0  0.3823440651469591 -0.8318006906148572 0  0.08378613820971739 -0.3049730095520121 0  0.3062960604120147 0.7700415204728775 0  0.2186371069301473 0.1849475690001499 0  0.5618191145404089 0.01777742862782286 0  -0.4802862597621635 -0.6983865150244088 0  -0.503268790888546 0.6913147356770269 0  -0.2399358465417775 0.306575239795051 0  0.9178161690582858 -0.2108400391746577 0  0.8961855595257304 0.2476885337991966 0  0.3527501268389224 -0.2146251622857934 0  -0.01110113726675679 0.2325641862106422 0  -0.4917009237214912 0.2094632852840267 0  -0.1879905695031222 -0.2805733388842447 0  0.8619975979593797 0.02333279728952086 0  1.248701754315201 0.03330431579287897 0  0.8043454986094405 -0.3384499643869419 0  0.7186833649253067 -0.1060518908510914 0  0.5854408986791108 -0.2071001478839773 0  0.4408282086747304 -0.07644663045142909 0  0.5140311572567966 -0.3704668562817253 0  0.8638611970355132 -0.08148170411280495 0  0.7141603458645729 0.02041251168513782 0  -0.8593087956446972 0.1215018328562598 0  -1.072772616382758 0.09946276050287575 0  -0.9487461806527462 0.0216400235673669 0  -0.8661241969569038 -0.09030774557152006 0  -1.075967142862125 -0.0533875694098293 0  -1.239346547394051 -0.08203933305375583 0  -1.312714667227227 0.002931258497138071 0  -1.309368654989152 0.05813332945178848 0  -1.230085519849227 0.1389566996229968 0  -0.1288423089054997 -0.6131020250163337 0  -0.3009425509617115 -0.5052925809151702 0  -0.2900473587446388 -0.8441895032721077 0  -0.3088106366341611 -0.2033466832152651 0  -0.4512844202698856 -0.4036681515370171 0  -1.229577879533568 -0.2001346531308423 0  -1.211980087085512 0.2438743071900235 0  0.3834168846585685 -0.502840697821924 0  0.216119564531865 -0.2466215060134331 0  0.243939039297225 -0.5616949264130094 0  -0.9115804045957655 0.2906956910832802 0  -0.7274721039751686 0.1898252520321916 0  1.269763187932095 -0.07670201655931912 0  1.206773900841353 -0.1748108374941421 0  1.186808973659838 0.2282968295197223 0  1.26222213720625 0.1419072763557319 0  -0.9114954407155195 -0.6543622559876768 0  -1.045165974352322 -0.4475099461430778 0  -1.021074091649555 0.4744407817438452 0  -0.8863817058096051 0.6622161880010056 0  0.9423902787518045 -0.6031389071754135 0  0.7772574379375556 -0.8222216911112192 0  0.7320948026572031 0.7939192765570269 0  0.8998849813481054 0.608135160369761 0  0.04677
[...]
<PointData  Vectors="f_27536"> 
<DataArray  type="Float64"  Name="f_27536"  NumberOfComponents="3" format="ascii">1.0723519804367023e+00 -6.7262685404572864e-02 0.0000000000000000e+00  7.5903042438958690e-01 6.5744419177683988e-01 0.0000000000000000e+00  4.7600908301207445e-01 9.3708631340731008e-01 0.0000000000000000e+00  8.8630481840841502e-01 4.8713950683720297e-01 0.0000000000000000e+00  1.0147458680285832e+00 1.7523681630763033e-01 0.0000000000000000e+00  8.0717944846404865e-01 5.3392298389214621e-01 0.0000000000000000e+00  -1.4509568239774615e-01 1.3477721765694459e+00 0.0000000000000000e+00  2.9524217624609594e-01 -1.5396792032760573e+00 0.0000000000000000e+00  9.9164866011404473e-01 -1.5554288035633440e-01 0.0000000000000000e+00  9.8885805314890129e-01 -1.1482956753187873e-01 0.0000000000000000e+00  1.0200584944284146e+00 -1.3979520026189191e-01 0.0000000000000000e+00  7.5796681991391979e-01 6.9905909777546993e-01 0.0000000000000000e+00  6.5509133682764931e-01 7.8767934979146104e-01 0.0000000000000000e+00  1.0637956211626542e+00 -7.7042734797440560e-02 0.0000000000000000e+00  9.0864624336253097e-01 4.2114927876926816e-01 0.0000000000000000e+00  9.4724277955498715e-01 3.3324027714363358e-01 0.0000000000000000e+00  8.2417656118734972e-01 5.6944173579912938e-01 0.0000000000000000e+00  8.5942180523944467e-01 5.2035101641044190e-01 0.0000000000000000e+00  9.9261745894821007e-01 1.9536063851997817e-01 0.0000000000000000e+00  9.2542321551378603e-01 3.7912724761129757e-01 0.0000000000000000e+00  9.2278843106072694e-01 3.8522949940955953e-01 0.0000000000000000e+00  9.2311356800663424e-01 3.8552178140643395e-01 0.0000000000000000e+00  8.9481364619231107e-01 4.4549078343885534e-01 0.0000000000000000e+00  9.4065162311913109e-01 3.5820311320304965e-01 0.0000000000000000e+00  7.9288768706434587e-01 6.1373313182285172e-01 0.0000000000000000e+00  7.7390107118746398e-01 6.3618001991853312e-01 0.0000000000000000e+00  9.1358374759376815e-01 4.2237302525357412e-01 0.0000000000000000e+00  8.1842915671158600e-01 5.7543070955985787e-01 0.0000000000000000e+00  7.9507171356874951e-01 6.0653269845415470e-01 0.0000000000000000e+00  7.7979491714483284e-01 6.2631326056405101e-01 0.0000000000000000e+00  7.4304949854972069e-01 6.6951069268967189e-01 0.0000000000000000e+00  7.1056515929095754e-01 7.0396206391694771e-01 0.0000000000000000e+00  6.6483293179736813e-01 7.4726644081575577e-01 0.0000000000000000e+00  6.2767070465395070e-01 7.7864395111946483e-01 0.0000000000000000e+00  5.9188092842107187e-01 8.0635081752149296e-01 0.0000000000000000e+00  5.3575697139640444e-01 8.4473236465008694e-01 0.0000000000000000e+00  4.8015287181658539e-01 8.7752120073467244e-01 0.0000000000000000e+00  4.1948592416565139e-01 9.0822578827051659e-01 0.0000000000000000e+00  3.5438575860820037e-01 9.3482875473339000e-01 0.0000000000000000e+00  2.8909330660969568e-01 9.5983522807192700e-01 0.0000000000000000e+00  2.0670356297163328e-01 9.7870641894055521e-01 0.0000000000000000e+00  1.3809677779359888e-01 9.3656625503179058e-01 0.0000000000000000e+00  6.3922467960991144e-02 1.4015509134440092e+00 0.0000000000000000e+00  7.3583031699087156e-03 -8.1542551462171342e-01 0.0000000000000000e+00  1.0337097766099182e-01 -9.3050257325129127e-01 0.0000000000000000e+00  1.7546001367369055e-01 -1.0075026408179630e+00 0.0000000000000000e+00  2.6597726957444856e-01 -9.6069053868627852e-01 0.0000000000000000e+00  3.3772120436015152e-01 -9.4175145213599520e-01 0.0000000000000000e+00  3.8819816560385323e-01 -9.2208730054628629e-01 0.0000000000000000e+00  4.7890853800909783e-01 -8.7848454277356458e-01 0.0000000000000000e+00  5.4115057739781169e-01 -8.4128808202156513e-01 0.0000000000000000e+00  5.9506815547063485e-01 -8.0403829810618055e-01 0.0000000000000000e+00  6.4949788094950589e-01 -7.6079457513392323e-01 0.0000000000000000e+00  6.9768548346822323e-01 -7.1677353277429134e-01 0.0000000000000000e+00  7.3737551883823804e-01 -6.7583118729021197e-01 0.0000000000000000e+00  7.7104254190035437e-01 -6.3699072497668896e-01 0.0000000000000000e+00  7.6693778361157938e-01 -6.4186730879151466e-01 0.0000000000000000e+00  8.0490689858114906e-01 -5.9427937192869329e-01 0.0000000000000000e+00  8.6384798601769230e-01 -5.0492493290016449e-01 0.0000000000000000e+00  8.6148792259781470e-01 -5.0855641151306719e-01 0.0000000000000000e+00  9.2920536079606830e-01 -3.7692126616823712e-01 0.0000000000000000e+00  8.6239040948987000e-01 -5.0784247332318311e-01 0.0000000000000000e+00  8.9596338127195085e-01 -4.4670426200601687e-01 0.0000000000000000e+00  1.0660739772604746e+00 1.4437379773156319e-02 0.0000000000000000e+00  6.2243986704089094e-01 -7.7770765636590233e-01 0.0000000000000000e+00  6.5764089492289424e-01 -7.6265730022238987e-01 0.0000000000000000e+00  1.0235033952563490e+00 -1.8718465456712019e-01 0.0000000000000000e+00  9.9668646126925220e-01 -1.5305245394124056e-01 0.0000000000000000e+00  8.3941270458709505e-01 -5.6004457122690632e-01 0.0000000000000000e+00  8.9121965883464471e-01 -4.5375308993244756e-01 0.0000000000000000e+00  9.9951743083021805e-01 -1.7744556198431466e-01 0.0000000000000000e+00  4.5342741207336068e-01 -1.0159962858590990e+00 0.0000000000000000e+00  9.3636518431550197e-01 -3.4762489184030104e-01 0.0000000000000000e+00  1.0313428009410923e+00 2.0110880165794806e-01 0.0000000000000000e+00  9.9524406084194961e-01 5.7888310479867382e-03 0.0000000000000000e+00  9.4696912618336115e-01 -3.7595270417164472e-01 0.0000000000000000e+00  8.7125490939850336e-01 -5.2048099257278191e-01 0.0000000000000000e+00  1.0034254750019258e+00 -1.0927829420015268e-01 0.0000000000000000e+00  9.9155090321717843e-01 1.6625043888897006e-01 0.0000000000000000e+00  9.7225363051832381e-01 2.3122325682955613e-01 0.0000000000000000e+00  8.8022839290785870e-01 5.5313130513921716e-01 0.0000000000000000e+00  1.0034260757249323e+00 -1.6388054156763339e-04 0.0000000000000000e+00  9.3400959387944060e-01 -4.3808580234655758e-01 0.0000000000000000e+00  8.6034554347347958e-01 -5.6289012293413854e-01 0.0000000000000000e+00  9.7178001926669366e-01 -1.5649573257940261e-01 0.0000000000000000e+00  8.5595185961430298e-01 6.2639385987634433e-01 0.0000000000000000e+00  8.8547000526797248e-01 4.6871731400061378e-01 0.0000000000000000e+00  9.5415339989080439e-01 3.0490418261891972e-01 0.0000000000000000e+00  9.3277563815156239e-01 3.5983954042320127e-01 0.0000000000000000e+00  8.9348530645116286e-01 4.5739326359998461e-01 0.0000000000000000e+00  9.5622396101720020e-01 2.9736776193463327e-01 0.0000000000000000e+00  9.5030178023081791e-01 3.3027684595528378e-01 0.0000000000000000e+00  1.0028635782877060e+00 1.0017886943010186e-01 0.0000000000000000e+00  8.5117939157813227e-01 -6.3981164056268636e-01 0.0000000000000000e+00  9.3448815041282096e-01 4.9159684796208575e-01 0.0000000000000000e+00  9.9939607462181013e-01 -3.8308397238454672e-01 0.0000000000000000e+00  9.6715597471651882e-01 2.8632197473525745e-01 0.0000000000000000e+00  8.5289141357998099e-01 5.6524290208274364e-01 0.0000000000000000e+00  1.0295852344045455e+00 4.6489152952791685e-02 0.0000000000000000e+00  8.8119369983717366e-01 4.7495435542624181e-01 0.0000000000000000e+00  8.5638221957398153e-01 5.3083442005176718e-01 0.0000000000000000e+00  1.0020057480256421e+00 -8.4132411449230823e-02 0.0000000000000000e+00  1.1808187081596444e+00 -3.6461091688205405e-01 0.0000000000000000e+00  1.3832621336057901e-01 1.1313682855079472e-01 0.0000000000000000e+00  3.3858236992727581e-01 1.2465740687253395e+00 0.0000000000000000e+00  9.9320407159705593e-01 -1.7395401718931186e-01 0.0000000000000000e+00  9.4438545303519517e-01 -3.5154624927477068e-01 0.0000000000000000e+00  7.4219743002793204e-01 7.7943689535302119e-01 0.0000000000000000e+00  1.0153231622227381e+00 1.6205727253066815e-01 0.0000000000000000e+00  9.1411620778200753e-01 4.0058911161438565e-01 0.0000000000000000e+00  9.8068062971030134e-01 3.1878764232284079e-01 0.0000000000000000e+00  5.9524839055780021e-01 8.2103006733761885e-01 0.0000000000000000e+00  7.0442648539881703e-01 7.0840274344982013e-01 0.0000000000000000e+00  9.7501785733627477e-01 3.3556484187876950e-01 0.0000000000000000e+00  7.2294942775890714e-01 6.9660543543587228e-01 0.0000000000000000e+00  7.2143076374290172e-01 6.9175983558945586e-01 0.0000000000000000e+00  7.2171415408579320e-01 6.9357247099569919e-01 0.0000000000000000e+00  6.3491861827421958e-01 7.7339662456745761e-01 0.0000000000000000e+00  5.8701795471811502e-01 8.0985121467353760e-01 0.0000000000000000e+00  5.3296006223866499e-01 8.4681238234213596e-01 0.0000000000000000e+00  4.5545957123096631e-01 8.9106088021691832e-01 0.0000000000000000e+00  3.7194509129409370e-01 9.2790595286710309e-01 0.0000000000000000e+00  3.2450758087207215e-01 9.4709095117146647e-01 0.0000000000000000e+00  2.3011912943716803e-01 9.8552946068694947e-01 0.0000000000000000e+00  1.4193139445938635e-01 8.8274184589867866e-01 0.0000000000000000e+00  4.7153453367019392e-02 1.5266648472817799e+00 0.0000000000000000e+00  2.3962214063158984e-02 -1.1437013012713033e+00 0.0000000000000000e+00  1.2584823704882181e-01 -9.2269371196028727e-01 0.0000000000000000e+00  2.1285304995985241e-01 -9.9104572571727512e-01 0.0000000000000000e+00  2.9468839698434235e-01 -9.5495725693242350e-01 0.0000000000000000e+00  3.7226191414344800e-01 -9.2845362200780379e-01 0.0000000000000000e+00  4.4732657168151435e-01 -8.9493190614405849e-01 0.0000000000000000e+00  5.1464439417461205e-01 -8.5784734707446264e-01 0.0000000000000000e+00  5.7797042851457769e-01 -8.1655795737766490e-01 0.0000000000000000e+00  6.3561279983472174e-01 -7.7240783709264282e-01 0.0000000000000000e+00  6.7182276213531666e-01 -7.4094020664398952e-01 0.0000000000000000e+00  7.0960684289491260e-01 -7.0490928316063017e-01 0.0000000000000000e+00  7.5325766232959113e-01 -6.5819884366896275e-01 0.0000000000000000e+00  7.8979849986933848e-01 -6.1378835792259012e-01 0.0000000000000000e+00  8.2301203087197905e-01 -5.6843379761226454e-01 0.0000000000000000e+00  8.4371129358544239e-01 -5.3697130081077260e-01 0.0000000000000000e+00  8.6415377379311187e-01 -5.0380974992781136e-01 0.0000000000000000e+00  9.1306328240093704e-01 -4.1175626973525470e-01 0.0000000000000000e+00  8.5818979594638944e-01 -5.1432622625456825e-01 0.0000000000000000e+00  8.7920832556404938e-01 -4.7794894907802160e-01 0.0000000000000000e+00  9.3662141102500318e-01 -3.5342588419389948e-01 0.0000000000000000e+00  9.4284523360924233e-01 -3.3273943791309729e-01 0.0000000000000000e+00  9.4230034294867171e-01 -3.3769855308289359e-01 0.0000000000000000e+00  1.0054635396818263e+00 -9.9730430505028916e-02 0.0000000000000000e+00  9.2168042744636292e-01 -3.9826654996923372e-01 0.0000000000000000e+00  9.7450061877848415e-01 -2.3037958673269857e-01 0.0000000000000000e+00  1.0082690779426124e+00 -3.8481455637363778e-02 0.0000000000000000e+00  5.8727250399350972e-01 -8.6107350444557473e-01 0.0000000000000000e+00  8.1356062001858509e-01 -6.0473924715816341e-01 0.0000000000000000e+00  1.0123261189983401e+00 -1.0325290744925725e-01 0.0000000000000000e+00  1.0050260082494620e+00 1.2979180431659793e-01 0.0000000000000000e+00  9.3360363647875222e-01 -4.1244199261556602e-01 0.0000000000000000e+00  1.0394020345544894e+00 6.6177258063902664e-02 0.0000000000000000e+00  7.8521609071499576e-01 -6.3643818439651534e-01 0.0000000000000000e+00  7.5788444625771323e-01 -6.4821084525923311e-01 0.0000000000000000e+00  7.7698832467686962e-01 -6.3196240209561538e-01 0.0000000000000000e+00  9.9164884221260685e-01 -2.2400500183690436e-01 0.0000000000000000e+00  8.1415715465532512e-01 -5.9672159263241897e-01 0.0000000000000000e+00  8.3784363383578042e-01 -5.4903780274054725e-01 0.0000000000000000e+00  1.0067755559054152e+00 -1.5151032510387064e-01 0.0000000000000000e+00  8.5328525835621738e-01 -5.4468429246840111e-01 0.0000000000000000e+00  6.4560979368469884e-01 -7.8191009841366221e-01 0.0000000000000000e+00  7.0095124556478117e-01 -7.6096280100439440e-01 0.0000000000000000e+00  1.1271050755331734e-01 -9.1611949513123958e-01 0.0000000000000000e+00  8.2093127171477687e-01 -5.7141713905196589e-01 0.0000000000000000e+00  8.7836246786770478e-01 4.7832962509913102e-01 0.0000000000000000e+00  7.4671550143275464e-02 1.0856604951712019e+00 0.0000000000000000e+00  8.3443830618981674e-01 5.5158788724335805e-01 0.0000000000000000e+00  9.9371834329542752e-01 1.1242334869318742e-01 0.0000000000000000e+00  9.1682986208461470e-01 -3.9978056994089778e-01 0.0000000000000000e+00  9.9964235124566203e-01 2.8058222659555477e-02 0.0000000000000000e+00  9.9477318657712221e-01 -1.0262495852318244e-01 0.0000000000000000e+00  9.7048902366618195e-01 2.4149985542937102e-01 0.0000000000000000e+00  9.9783716174937898e-01 6.8387222263087785e-02 0.0000000000000000e+00  9.1080232329415234e-01 4.1437525117574686e-01 0.0000000000000000e+00  9.8430544153861488e-01 -1.7703715699514663e-01 0.0000000000000000e+00  4.6084555554563028e-01 -8.8779692063228999e-01 0.0000000000000000e+00  2.9756182073769816e-01 -8.9744953364480651e-01 0.0000000000000000e+00  4.3148355718419473e-01 9.0245053639810635e-01 0.0000000000000000e+00  9.1195203437869365e-01 4.1436836927719461e-01 0.0000000000000000e+00  9.9954712867390683e-01 -4.0622100036542409e-02 0.0000000000000000e+00  5.6766724250640832e-01 8.2359368827002233e-01 0.0000000000000000e+00  6.4581712067214225e-01 -7.6392091190761424e-01 0.0000000000000000e+00  7.6942966602289431e-01 -6.4263073514899294e-01 0.0000000000000000e+00  9.6949246780834419e-01 -2.4549542170030217e-01 0.0000000000000000e+00  9.6912858565648830e-01 2.4702765170137564e-01 0.0000000000000000e+00  8.4070572366630580e-01 -5.4269017447839629e-01 0.0000000000000000e+00  3.2271702382664158e-01 9.1204084259620422e-01 0.0000000000000000e+00  9.6803283525320660e-01 -2.5298790563588713e-01 0.0000000000000000e+00  5.1360925036749661e-01 8.5907981638609965e-01 0.0000000000000000e+00  1.0000461718099498e+00 -4.8447516612571415e-03 0.0000000000000000e+00  1.0000181685614991e+00 -9.9205384530812058e-03 0.0000000000000000e+00  9.2107587346708497e-01 -3.8980820792849857e-01 0.0000000000000000e+00  9.8360160519089945e-01 -1.8138110684121045e-01 0.0000000000000000e+00  9.3351556043359163e-01 -3.5960045192880080e-01 0.0000000000000000e+00  9.7056833228801465e-01 -2.4334734576543632e-01 0.0000000000000000e+00  8.1218852061230895e-01 -5.8404536848272437e-01 0.0000000000000000e+00  9.9233547593633686e-01 -1.2407004823288617e-01 0.0000000000000000e+00  9.9993788676925599e-01 -1.9261992248904677e-02 0.0000000000000000e+00  9.9712758225396081e-01 -7.7222322804968713e-02 0.0000000000000000e+00  9.9866119997223068e-01 -5.3099391705312173e-02 0.0000000000000000e+00  9.9935723166793877e-01 3.7362172778874193e-02 0.0000000000000000e+00  9.8470578011516985e-01 1.7485941305242206e-01 0.0000000000000000e+00  9.9387254596588326e-01 1.1111807934241906e-01 0.0000000000000000e+00  9.9279970308379573e-01 1.1895899293599986e-01 0.0000000000000000e+00  9.9341813637571386e-01 1.1657291757794626e-01 0.0000000000000000e+00  9.9906895718173694e-01 5.4942293096412582e-02 0.0000000000000000e+00  9.9642125759822775e-01 -8.5322006945350942e-02 0.0000000000000000e+00  1.8721375803350185e-01 9.9671180722582864e-01 0.0000000000000000e+00  4.8673463450296645e-01 8.7401419959615956e-01 0.0000000000000000e+00  3.3229436440319804e-01 9.4314822886478245e-01 0.0000000000000000e+00  7.7878526196508435e-01 6.2906403489036811e-01 0.0000000000000000e+00  7.1298744122921931e-01 7.0174159036128247e-01 0.0000000000000000e+00  9.7241927178015874e-01 2.3386923345569377e-01 0.0000000000000000e+00  9.7528428248503818e-01 -2.2146388080556156e-01 0.0000000000000000e+00  6.2227255508500556e-01 -7.8322866304460925e-01 0.0000000000000000e+00  6.6758517581272436e-01 -7.4521377009887191e-01 0.0000000000000000e+00  4.1997337931912437e-01 -9.0826661480073856e-01 0.0000000000000000e+00  9.6351667878596192e-01 -2.6817243003063929e-01 0.0000000000000000e+00  9.8570660336602245e-01 -1.6994364981175419e-01 0.0000000000000000e+00  9.7592309080141071e-01 -2.1976339007773538e-01 0.0000000000000000e+00  9.7276057526506432e-01 -2.3206971483891317e-01 0.0000000000000000e+00  9.6278700982002174e-01 2.7092311462148549e-01 0.0000000000000000e+00  9.8297245296574021e-01 1.8470264201076858e-01 0.0000000000000000e+00  8.1416432209260048e-01 5.8078903672939486e-01 0.0000000000000000e+00  8.9209641800904071e-01 4.5206637396173810e-01 0.0000000000000000e+00  9.0424517054573050e-01 -4.2718880774564733e-01 0.0000000000000000e+00  8.3537106733240674e-01 -5.4991026636552798e-01 0.0000000000000000e+00  8.6710831279649503e-01 -4.9835690220933110e-01 0.0000000000000000e+00  7.4409433008215664e-01 -6.6836598743367071e-01 0.0000000000000000e+00  7.2818378967187458e-01 6.8564865056816360e-01 0.0000000000000000e+00  8.4661610119637631e-01 5.3242664340864287e-01 0.0000000000000000e+00  5.0545575943043819e-02 -1.4125584024962901e+00 0.0000000000000000e+00  2.5278004487005434e-01 9.6390799878861966e-01 0.0000000000000000e+00  2.5698744557906794e-01 -9.6504751399174293e-01 0.0000000000000000e+00  3.7142288645527939e-02 1.4349348497779493e+00 0.0000000000000000e+00  6.6740944532781388e-01 -7.4501938356416231e-01 0.0000000000000000e+00  9.9669326890035970e-01 9.1658778372748134e-02 0.0000000000000000e+00  9.5762543299666292e-01 2.8957397647033822e-01 0.0000000000000000e+00  8.3926105921318306e-01 5.4481218028313005e-01 0.0000000000000000e+00  8.7376992169125967e-01 4.8702695886353409e-01 0.0000000000000000e+00  9.8244827626014664e-01 1.8850019342006552e-01 0.0000000000000000e+00  9.5696644363497041e-01 2.9091760452251691e-01 0.0000000000000000e+00  7.5735340514178895e-01 6.6302671433636085e-01 0.0000000000000000e+00  3.3585032196498227e-01 9.3532473693130236e-01 0.0000000000000000e+00  8.3680602455139497e-01 -5.2208432170660224e-01 0.0000000000000000e+00  9.2011087295586735e-01 3.9002955912408332e-01 0.0000000000000000e+00  9.3715676211229115e-01 -3.4948699889349477e-01 0.0000000000000000e+00  9.3944802355391610e-01 3.4299992952119307e-01 0.0000000000000000e+00  9.8995731267988130e-01 1.4278998415545444e-01 0.0000000000000000e+00  9.2629362707528307e-01 3.7733660295288818e-01 0.0000000000000000e+00  9.9356239953146142e-01 1.1389529514964944e-01 0.0000000000000000e+00  6.2582292227648806e-01 7.8068433250429936e-01 0.0000000000000000e+00  6.7145807166303173e-01 7.4147601071441305e-01 0.0000000000000000e+00  1.1924012173524658e-01 -8.8653773853563655e-01 0.0000000000000000e+00  2.0456913438155136e-01 -9.7248927344009639e-01 0.0000000000000000e+00  6.4264959744605910e-01 -7.6694585162489337e-01 0.0000000000000000e+00  3.2791700929549378e-01 -9.4711717037370302e-01 0.0000000000000000e+00  3.9752231306222741e-01 -9.1810307016153181e-01 0.0000000000000000e+00  9.8115295154307669e-01 -2.0203269876417934e-01 0.0000000000000000e+00  1.1511868529284078e-01 1.2159678182257487e+00 0.0000000000000000e+00  5.8287224780467661e-01 -8.1287871280956703e-01 0.0000000000000000e+00  3.2918342161439834e-01 -9.4409333651064609e-01 0.0000000000000000e+00  3.0164220195674302e-01 9.5323779030655320e-01 0.0000000000000000e+00  5.5254446109779465e-01 8.3379443630633632e-01 0.0000000000000000e+00  8.1459495906659174e-01 5.9072291939929911e-01 0.0000000000000000e+00  3.4208727897711522e-01 9.4205722915455947e-01 0.0000000000000000e+00  1.6671143421920467e-01 1.0095983442766092e+00 0.0000000000000000e+00  4.8959073772531730e-01 8.7230324414606908e-01 0.0000000000000000e+00  6.9077477081908867e-01 7.2331962223448221e-01 0.0000000000000000e+00  7.5790599372785428e-01 6.5271641582963247e-01 0.0000000000000000e+00  7.1681842231767323e-01 -6.9755474290047625e-01 0.0000000000000000e+00  5.0688342229869521e-01 -8.6236412816504771e-01 0.0000000000000000e+00  8.1896966852059183e-01 -5.7429051449551483e-01 0.0000000000000000e+00  9.9955475212359757e-01 -3.9214349047499167e-02 0.0000000000000000e+00  9.3282662588916165e-01 -3.6130037153213967e-01 0.0000000000000000e+00  1.0003994242454877e+00 2.5284639978698578e-02 0.0000000000000000e+00  9.