<?xml version="1.0"?>
<VTKFile type="UnstructuredGrid"  version="0.1"  >
<UnstructuredGrid>
<Piece  NumberOfPoints="2549" NumberOfCells="4928">
<Points>
<DataArray  type="Float64"  NumberOfComponents="3"  format="ascii">1.469509422236225 0.03658247415014142 0  1.46476058846628 0.05958444889717767 0  1.440818885571982 0.06843907413009091 0  1.428236264544932 0.08442380365105315 0  1.42269084798983 0.09658860815437686 0  1.417259845644172 0.1200790516664915 0  1.396987486484949 0.1232240286629454 0  1.364823015334191 0.1283417136660448 0  1.387501266882384 0.1524914670987509 0  1.489094944403104 0.2590397421152796 0  1.381343664051549 0.1770506144212911 0  1.374569649996452 0.2168838259735445 0  1.336692734295188 0.2338117938819845 0  1.33326780587929 0.261374204300077 0  1.329670894277211 0.2924834652454297 0  1.311000671324189 0.3247436364965856 0  1.301088287254289 0.3584224723830703 0  1.283110441831894 0.3694437076673306 0  1.269553725241268 0.421457093223654 0  1.256507314327559 0.4604081102121392 0  1.237950720683841 0.5051470322380014 0  1.21983262877803 0.5502447575429538 0  1.198483283928663 0.5977891239348295 0  1.173959937372815 0.6487471155982254 0  1.149133450872763 0.7028654510593693 0  1.113679636320879 0.7402412132103315 0  1.084466690394793 0.7945483752080644 0  1.050706336747219 0.8499501806977484 0  1.011012431934421 0.9039999099748489 0  0.9684366963819979 0.9595977581055951 0  0.9216381833678404 1.014482982038297 0  0.8698954682762496 1.069886905108749 0  0.8143140232154196 1.122671067461951 0  0.7554770457127291 1.172404602580119 0  0.6899266271899214 1.223412288196618 0  0.6213065245482837 1.270546024771168 0  0.547381054038516 1.314128418599398 0  0.4695108841814646 1.353714285872151 0  0.3877150539561184 1.387937503537115 0  0.3021526104109888 1.417334506004769 0  0.2138119510715229 1.439978705376672 0  0.1240049679796556 1.455348193159419 0  0.03178966950345007 1.465339040322584 0  -0.06055448303284922 1.46709449647101 0  -0.1529805993014574 1.461775075587012 0  -0.2441309699959121 1.448607409595823 0  -0.3334404611826804 1.428930192689724 0  -0.4200516712619464 1.40045732619424 0  -0.5025025143128553 1.368841226385771 0  -0.5823695117217863 1.330397868566996 0  -0.6574496850950993 1.285032459887557 0  -0.7279129157714981 1.236651377860605 0  -0.7932293925584066 1.183941633421435 0  -0.8541850382141248 1.128500905160132 0  -0.9085236522985168 1.071379852234247 0  -0.9617332160702218 1.010386590332181 0  -1.004143955942568 0.9574355743684378 0  -1.04870675117652 0.9029596919295511 0  -1.087609049516355 0.8412000790174009 0  -1.121236298915616 0.7830053622033464 0  -1.151354938590552 0.7272755822484737 0  -1.175590104384535 0.6672979239915736 0  -1.204216567197676 0.624363781619957 0  -1.221175357956933 0.5499434656070149 0  -1.222445277913429 0.5108958113537672 0  -1.263165423006335 0.4964501078731434 0  -1.278245499945347 0.4469471198340993 0  -1.2876880946002 0.4081386795350132 0  -1.296476246515788 0.370312720725234 0  -1.320672215801729 0.3470986839235823 0  -1.326766396057248 0.2975851561004784 0  -1.31066184968006 0.3252153062246722 0  -1.375389150154601 0.2868082184767556 0  -1.36880102467504 0.1917590975523301 0  -1.366954433783131 0.1668048215254932 0  -1.3697254260691 0.1337203872852354 0  -1.382307490380384 0.1159281062944408 0  -1.385403260509242 0.08399753047526061 0  -1.393491936980998 0.1069389363472146 0  -1.368848206097367 0.02540688532580148 0  -1.399442929556194 0.09441010265635295 0  -1.433485198972678 0.1545936401237092 0  -1.464853710208696 0.07984875887261456 0  -1.474687521974885 0.05200714870611207 0  -1.500527882627179 0.02626229664232891 0  -1.483958676508981 -0.0005951502893009261 0  -1.469988810148827 -0.03105332195560721 0  -1.53448430111917 -0.3416417245818217 0  -1.396018679762368 -0.04624146295199751 0  -1.35781751720243 0.2986657484420379 0  -1.437806809614033 -0.06370830373195656 0  -1.456970728188192 0.009054030104989645 0  -1.417981239476579 -0.1243536001159386 0  -1.388962100955489 -0.09035849353781152 0  -1.372606994826513 -0.1034115501292448 0  -1.379631817802243 -0.1263552467296407 0  -1.397044650291782 -0.2430484296360875 0  -1.311585995788862 -0.3410804670387992 0  -1.35892901525052 -0.2431467437971806 0  -1.355921716683502 -0.3014983650422222 0  -1.319322768928619 -0.3270940866616272 0  -1.324213801973076 -0.3660039534080736 0  -1.320648196270546 -0.4051784643861717 0  -1.354619873770799 -0.4472480858698762 0  -1.234008145589838 -0.4677175503656478 0  -1.204224405080919 -0.5004453116918207 0  -1.25081901424775 -0.6207038060596634 0  -1.196503181810557 -0.6379551471468969 0  -1.187063522966873 -0.7035583653905148 0  -1.159991768845837 -0.766968143651878 0  -1.14041751408336 -0.8309941482822178 0  -1.092773391662215 -0.9093883461635143 0  -1.029759792431031 -0.9353447381412662 0  -1.008544342567798 -1.009277794705826 0  -0.9531743119313125 -1.091753632144638 0  -0.89598524877824 -1.145893219322088 0  -0.8351060227644659 -1.214875722759343 0  -0.7681186969675388 -1.274203557271368 0  -0.6955985237098603 -1.331547683526649 0  -0.6158632610840157 -1.384257720782448 0  -0.5334241859525575 -1.432611353120867 0  -0.4475298175768828 -1.470165941859844 0  -0.3541079124866768 -1.505474867194597 0  -0.2598322379385696 -1.532670902005509 0  -0.1614688595530139 -1.550964172196187 0  -0.06193612833382328 -1.560739671081545 0  0.03847368044756166 -1.561511768636377 0  0.1384570366543194 -1.553209293847127 0  0.2370843166640842 -1.536174742188447 0  0.3330961011262252 -1.510627487213269 0  0.425950127387762 -1.477516750390125 0  0.5147563220148887 -1.437205231315908 0  0.5987670245602106 -1.390703355154785 0  0.6779600031625773 -1.338589442127465 0  0.7505161674222989 -1.282689534355988 0  0.820240529093624 -1.221301929120788 0  0.8798836746490118 -1.164316589386567 0  0.9369449897955349 -1.102728815614148 0  0.9904248846092257 -1.037087773000624 0  1.036918217933567 -0.9728559056701767 0  1.078936682898301 -0.9084593209990933 0  1.116850528731233 -0.8457042433319326 0  1.149199591097838 -0.7832233266796067 0  1.178938364753042 -0.7228716969558364 0  1.208560747534778 -0.6757170887520934 0  1.231080224100259 -0.6168204769315636 0  1.2544126274136 -0.5605632261536735 0  1.271197819618179 -0.5070759687906715 0  1.291562173581627 -0.4595610807107235 0  1.290205699803167 -0.403307194075472 0  1.312079484720105 -0.3757100629071966 0  1.3009897144081 -0.2976005976230073 0  1.284566364871137 -0.302992793592589 0  1.34456264315282 -0.2692322736044041 0  1.365216186382576 -0.2221062176770777 0  1.356629352659514 -0.1910150918200624 0  1.363633236821911 -0.161579018469267 0  1.373588378378071 -0.1341562506366564 0  1.372020367014668 -0.0997233818566363 0  1.261200291574526 0.2186358411506277 0  1.399107183153586 -0.06990458943847115 0  1.398164917758873 -0.07988077604475714 0  1.406715306085947 -0.05217405385380013 0  1.425776325453917 -0.03915778016892579 0  1.42574348595032 -0.01908596749018533 0  1.435532419531967 -0.008002573507959694 0  1.442701169412009 0.00757946864681752 0  1.462382783049275 0.01613953666551662 0  -0.097784879154392 0.8875560272295741 0  0.6902714361713617 -0.5039851177386766 0  -0.8035790888648253 -0.3886879569351321 0  -0.07195512656227673 -0.9473039374976303 0  0.6491594140494797 0.4987806823212745 0  1.086629453560446 0.1185599925342224 0  -0.7945249998091527 0.4032442810159038 0  -1.154775564995192 0.02545394600207765 0  1.097484498978689 -0.06031852366354333 0  -1.036678088746627 -0.1785134025884349 0  -0.7322636271255598 0.01200473737470067 0  -0.4380275192313923 -0.1418996747291502 0  -1.026994661798154 0.2068058371015827 0  0.383992856498839 -0.8324167134225143 0  0.08316761800787047 -0.3054773450091575 0  0.3054239657339887 0.7716242544781663 0  0.2173561805007723 0.1860048634863429 0  0.5600254242654894 0.01824161399738225 0  -0.4784381176308815 -0.7005404494470258 0  -0.5040667006941291 0.6922764307827723 0  -0.2411908367550784 0.3079787895339406 0  0.9163679209553253 -0.2093788972027479 0  0.8939225696660666 0.248601651822778 0  0.3515780189632713 -0.2148956134215176 0  -0.01251520617872909 0.2349264877262857 0  -0.4920165055567077 0.2094310261015445 0  -0.1874486758203391 -0.2813753950152954 0  0.8599050055121634 0.02440789013672491 0  1.245978089490113 0.03510764485441055 0  0.8035486874131116 -0.3373254959782321 0  0.7169992490208444 -0.1052779298159502 0  0.5841488917946498 -0.2067549591635435 0  0.4392970132503253 -0.07632019321414549 0  0.5134034228623412 -0.3704392774632355 0  0.8620022193326679 -0.08030112142971015 0  0.7122079698118761 0.02116524170926529 0  -0.8585825370329823 0.1201570707117722 0  -1.071634054336108 0.09760496954521902 0  -0.9477718306553462 0.01999669723719654 0  -0.8650785107814765 -0.0918666682763532 0  -1.074973349145876 -0.05531414132219937 0  -1.238782799049515 -0.08442893303321189 0  -1.311218073588146 0.0003060054782954144 0  -1.306987612484829 0.05580457939359434 0  -1.228404880699027 0.1369293642304311 0  -0.1272286685507353 -0.614853434656029 0  -0.2993042973025611 -0.5071935011686727 0  -0.2880743563248686 -0.8463886542461445 0  -0.3083630394117907 -0.2044004616365499 0  -0.4498175702033274 -0.4055677826550736 0  -1.22906898763823 -0.2022265686673405 0  -1.210740093266332 0.2419641992321032 0  0.3834396539170787 -0.5033167221411778 0  0.2151064931591142 -0.2470934283125649 0  0.2443620772024856 -0.562599342361806 0  -0.911133227139457 0.2895208016898246 0  -0.7271330350794243 0.1889426707242349 0  1.26784734000677 -0.07478533488546145 0  1.205072884984264 -0.1724292159240446 0  1.184317792898496 0.2296560799241837 0  1.259332624255213 0.1437489452937997 0  -0.9097665426778238 -0.6559627520621091 0  -1.043276458904435 -0.4488758162495056 0  -1.021086205786504 0.4732108262110936 0  -0.887055261561111 0.661658004533169 0  0.9431076167420533 -0.6012730141998855 0  0.7790244235515006 -0.8210754862193166 0  0.731085718551669 0.7948388204603488 0  0.8982695366696982 0.6088949971398224 0  0.049483960
[...]
<PointData  Vectors="f_22740"> 
<DataArray  type="Float64"  Name="f_22740"  NumberOfComponents="3" format="ascii">1.0724367297914907e+00 -6.0627947949427913e-02 0.0000000000000000e+00  7.5315560843271412e-01 6.6547229277868325e-01 0.0000000000000000e+00  4.6661510336116041e-01 9.4136305778903440e-01 0.0000000000000000e+00  8.7887907748469296e-01 4.9820869075999513e-01 0.0000000000000000e+00  1.0119061832313865e+00 2.0452570632207903e-01 0.0000000000000000e+00  7.6560338513168924e-01 5.8093296074020462e-01 0.0000000000000000e+00  -1.0103601694873179e-01 1.1284189750718463e+00 0.0000000000000000e+00  2.5544636284867833e-01 -1.5233788348676822e+00 0.0000000000000000e+00  7.8126224070141304e-01 -6.1594134451286930e-01 0.0000000000000000e+00  6.2007284640271410e-01 -7.9648412632616217e-01 0.0000000000000000e+00  7.9820752420665608e-01 -6.5773275566560385e-01 0.0000000000000000e+00  8.7323752086590756e-01 6.7329213377604058e-01 0.0000000000000000e+00  6.1426286037244870e-01 8.2273621470083191e-01 0.0000000000000000e+00  1.0656277332891746e+00 -6.0437592198025733e-02 0.0000000000000000e+00  9.0688789882029119e-01 4.2315623943610553e-01 0.0000000000000000e+00  9.3775654394918828e-01 3.5553612012393132e-01 0.0000000000000000e+00  8.2258164709758264e-01 5.7289555256316904e-01 0.0000000000000000e+00  8.7515273811402228e-01 4.9095382069154703e-01 0.0000000000000000e+00  9.8741659773900081e-01 2.0800711006018832e-01 0.0000000000000000e+00  9.2483964459902224e-01 3.8080492652444292e-01 0.0000000000000000e+00  9.2657266819292983e-01 3.7605451737582801e-01 0.0000000000000000e+00  9.2414065919837518e-01 3.8288250389635708e-01 0.0000000000000000e+00  8.9685889517896278e-01 4.4184522175043084e-01 0.0000000000000000e+00  9.2759699776326565e-01 3.8269043816210679e-01 0.0000000000000000e+00  8.1689511641186741e-01 5.7984802846543104e-01 0.0000000000000000e+00  7.9511196344387036e-01 6.0839678682706089e-01 0.0000000000000000e+00  8.9559266725323994e-01 4.5240205637174757e-01 0.0000000000000000e+00  8.2108008765575580e-01 5.7147554080483776e-01 0.0000000000000000e+00  7.9973217729393287e-01 6.0041134207272473e-01 0.0000000000000000e+00  7.7980446636667522e-01 6.2627805015119631e-01 0.0000000000000000e+00  7.4578909212944988e-01 6.6644947572808388e-01 0.0000000000000000e+00  7.1188990846063538e-01 7.0264581283905547e-01 0.0000000000000000e+00  6.6528694943049294e-01 7.4685531570699748e-01 0.0000000000000000e+00  6.2980706653608165e-01 7.7691139885770466e-01 0.0000000000000000e+00  5.9369387084275849e-01 8.0503262499508155e-01 0.0000000000000000e+00  5.3662448592629097e-01 8.4418315404541822e-01 0.0000000000000000e+00  4.8152605442061353e-01 8.7677237670324992e-01 0.0000000000000000e+00  4.2003089361631246e-01 9.0798097601434447e-01 0.0000000000000000e+00  3.5570024993423166e-01 9.3431067660537026e-01 0.0000000000000000e+00  2.8949178524680030e-01 9.5971297830101743e-01 0.0000000000000000e+00  2.0589414168650680e-01 9.7941544685759985e-01 0.0000000000000000e+00  1.3875225100415384e-01 9.3332018597704591e-01 0.0000000000000000e+00  6.3836649713195859e-02 1.4116776079756539e+00 0.0000000000000000e+00  7.7729454821381279e-03 -8.2475899713889567e-01 0.0000000000000000e+00  1.0347276691597691e-01 -9.3149313325350414e-01 0.0000000000000000e+00  1.7634446572349327e-01 -1.0065198925557326e+00 0.0000000000000000e+00  2.6696265303768063e-01 -9.6061531748535112e-01 0.0000000000000000e+00  3.3847775263018898e-01 -9.4145984820546025e-01 0.0000000000000000e+00  3.8944064367123221e-01 -9.2156192970694284e-01 0.0000000000000000e+00  4.8007392582274727e-01 -8.7785213787951211e-01 0.0000000000000000e+00  5.4299032599989694e-01 -8.4010870665214232e-01 0.0000000000000000e+00  5.9703237835370193e-01 -8.0258001492140618e-01 0.0000000000000000e+00  6.5129616908660026e-01 -7.5925623740980741e-01 0.0000000000000000e+00  6.9997447287461978e-01 -7.1455436857449339e-01 0.0000000000000000e+00  7.4064313108074720e-01 -6.7224797117893809e-01 0.0000000000000000e+00  7.7179002656082363e-01 -6.3604086931180637e-01 0.0000000000000000e+00  7.7069261533916322e-01 -6.3734066977574289e-01 0.0000000000000000e+00  8.0782493621417906e-01 -5.9030446524932045e-01 0.0000000000000000e+00  8.6632958037313756e-01 -5.0066599230726161e-01 0.0000000000000000e+00  8.6174330565773327e-01 -5.0805552013310240e-01 0.0000000000000000e+00  9.2215451412207416e-01 -3.9127676160874464e-01 0.0000000000000000e+00  8.7843755326452333e-01 -4.7818281439401844e-01 0.0000000000000000e+00  8.9833110246311931e-01 -4.4236221843236512e-01 0.0000000000000000e+00  1.0544708852274742e+00 -1.5258019677341285e-02 0.0000000000000000e+00  6.7803207713658853e-01 -7.3403694393806584e-01 0.0000000000000000e+00  6.8090120363924500e-01 -7.4412202124966309e-01 0.0000000000000000e+00  1.0178068161963765e+00 -1.8745558247113495e-01 0.0000000000000000e+00  9.9258930486845687e-01 -1.6795635108974485e-01 0.0000000000000000e+00  8.4037047902653750e-01 -5.5941866780266603e-01 0.0000000000000000e+00  9.0387374307555046e-01 -4.2869297778336213e-01 0.0000000000000000e+00  1.0136396516901882e+00 -1.1051037993573634e-01 0.0000000000000000e+00  5.0486345288630241e-01 -9.9012911780050683e-01 0.0000000000000000e+00  9.4061139888624345e-01 -3.3685656466925978e-01 0.0000000000000000e+00  1.0277120111943321e+00 2.0235805128911549e-01 0.0000000000000000e+00  9.9588181202774451e-01 1.5553049220250147e-02 0.0000000000000000e+00  9.5693816511910335e-01 -3.4152147155778179e-01 0.0000000000000000e+00  9.3275268250594390e-01 -4.0959460084457244e-01 0.0000000000000000e+00  1.0099387749736213e+00 1.6070828552217378e-01 0.0000000000000000e+00  9.5446607121762972e-01 3.1902474758478028e-01 0.0000000000000000e+00  9.5560813374408959e-01 2.9415522330384331e-01 0.0000000000000000e+00  8.6864135162381595e-01 5.7584541017812518e-01 0.0000000000000000e+00  1.0031716385580063e+00 2.0127332065421322e-02 0.0000000000000000e+00  9.3033611780175185e-01 -4.5680310292490695e-01 0.0000000000000000e+00  8.0567000337436134e-01 -6.3696795579096532e-01 0.0000000000000000e+00  9.3355313970879528e-01 -2.8871288427859199e-01 0.0000000000000000e+00  8.6909977516743508e-01 7.4814813687320314e-01 0.0000000000000000e+00  1.0057204362936278e+00 -8.8985196472234102e-02 0.0000000000000000e+00  9.3043593684898007e-01 -3.8378520427243157e-01 0.0000000000000000e+00  9.6337308643390396e-01 -2.7062569333945685e-01 0.0000000000000000e+00  9.9116249887196783e-01 -1.3354269736109622e-01 0.0000000000000000e+00  9.8536810581051870e-01 -1.9207227282351430e-01 0.0000000000000000e+00  9.5363481685095053e-01 4.2223800584378179e-01 0.0000000000000000e+00  1.0087276586710983e+00 1.2338064390309683e-02 0.0000000000000000e+00  7.3485072291643694e-01 -8.0047697793027661e-01 0.0000000000000000e+00  9.4544320530150050e-01 4.7984998178840171e-01 0.0000000000000000e+00  1.0096620511123802e+00 -3.9306611110189738e-01 0.0000000000000000e+00  9.4714161669723496e-01 3.4465561314136339e-01 0.0000000000000000e+00  7.5654653855828224e-01 7.0778742884420975e-01 0.0000000000000000e+00  1.0102960867092767e+00 1.4314472530084182e-01 0.0000000000000000e+00  8.8349934264666008e-01 4.6694948813606191e-01 0.0000000000000000e+00  8.1494982693943185e-01 5.9118761854056179e-01 0.0000000000000000e+00  1.0144017391840452e+00 -1.7283492223962766e-03 0.0000000000000000e+00  1.1197571369997166e+00 -5.1879006717249587e-01 0.0000000000000000e+00  -3.0851822471542691e-02 -2.5535911673317135e-01 0.0000000000000000e+00  4.1089841334003491e-01 1.3471137935016548e+00 0.0000000000000000e+00  9.9452998802078074e-01 -1.7978123297290924e-01 0.0000000000000000e+00  9.3671414552882015e-01 -3.8537220886914936e-01 0.0000000000000000e+00  7.4073731303968671e-01 7.7940426698634280e-01 0.0000000000000000e+00  1.0161922305391851e+00 1.5991296312271239e-01 0.0000000000000000e+00  9.1641045025097845e-01 3.9545246608643525e-01 0.0000000000000000e+00  9.7234049315656401e-01 3.3187329632535073e-01 0.0000000000000000e+00  5.9181633163754366e-01 8.2665854901304880e-01 0.0000000000000000e+00  7.3210610031555556e-01 6.7919677173105653e-01 0.0000000000000000e+00  9.7314542433882023e-01 3.3254311738037912e-01 0.0000000000000000e+00  7.2053513089280730e-01 7.0006097388558719e-01 0.0000000000000000e+00  7.2221605340775863e-01 6.9078095391038297e-01 0.0000000000000000e+00  7.2256164660205724e-01 6.9272992927979227e-01 0.0000000000000000e+00  6.3484166608070713e-01 7.7346837113539257e-01 0.0000000000000000e+00  5.8700336825279709e-01 8.0987082662180243e-01 0.0000000000000000e+00  5.3241241642918857e-01 8.4715446746607781e-01 0.0000000000000000e+00  4.5497087583593748e-01 8.9132300937571129e-01 0.0000000000000000e+00  3.7103978245494823e-01 9.2831979487632632e-01 0.0000000000000000e+00  3.2310561196616666e-01 9.4721980251767990e-01 0.0000000000000000e+00  2.2936128939131500e-01 9.8623549353729911e-01 0.0000000000000000e+00  1.4037631976740123e-01 8.9239085168270582e-01 0.0000000000000000e+00  4.4374996379376828e-02 1.4244356799190578e+00 0.0000000000000000e+00  2.6441417857782933e-02 -1.3230568720840545e+00 0.0000000000000000e+00  1.2779785497142063e-01 -9.0072773537302397e-01 0.0000000000000000e+00  2.1453084452754750e-01 -9.9180183167830149e-01 0.0000000000000000e+00  2.9729456524306730e-01 -9.5440336418626659e-01 0.0000000000000000e+00  3.7509629776347247e-01 -9.2723092489602532e-01 0.0000000000000000e+00  4.4992225514305167e-01 -8.9364260692159814e-01 0.0000000000000000e+00  5.1789075095555515e-01 -8.5589006048083793e-01 0.0000000000000000e+00  5.8054920105204877e-01 -8.1472614959780409e-01 0.0000000000000000e+00  6.3948185530041457e-01 -7.6922508727819394e-01 0.0000000000000000e+00  6.7592751859950062e-01 -7.3718058811377096e-01 0.0000000000000000e+00  7.1059475538897343e-01 -7.0389289753930750e-01 0.0000000000000000e+00  7.5579025476346262e-01 -6.5531127725192029e-01 0.0000000000000000e+00  7.9344721916093575e-01 -6.0907079572681688e-01 0.0000000000000000e+00  8.2583655201600981e-01 -5.6427918568699398e-01 0.0000000000000000e+00  8.4598494982430528e-01 -5.3341884117037108e-01 0.0000000000000000e+00  8.7023530654197989e-01 -4.9312185206389791e-01 0.0000000000000000e+00  9.0524904516095128e-01 -4.2671458843607984e-01 0.0000000000000000e+00  8.6272169834099910e-01 -5.0693646224032518e-01 0.0000000000000000e+00  8.9524095810601334e-01 -4.4648735703081044e-01 0.0000000000000000e+00  9.3278537764104252e-01 -3.6178897331570958e-01 0.0000000000000000e+00  9.4583612777997794e-01 -3.2370376230075348e-01 0.0000000000000000e+00  9.1941657799513177e-01 -4.0484169234473061e-01 0.0000000000000000e+00  1.0014486696488381e+00 -1.0170247454623443e-01 0.0000000000000000e+00  9.6036576229850668e-01 -2.8226337925574341e-01 0.0000000000000000e+00  9.9307807873251208e-01 -1.4134661929674711e-01 0.0000000000000000e+00  9.9635616321020404e-01 2.1021422768871464e-01 0.0000000000000000e+00  3.3352767197436090e-01 -1.0614391822092599e+00 0.0000000000000000e+00  7.5318891586746239e-01 -6.8220182878090196e-01 0.0000000000000000e+00  1.0199426467161625e+00 -9.1646785794087499e-02 0.0000000000000000e+00  9.9956170890925677e-01 1.6050248400883088e-01 0.0000000000000000e+00  9.3765082503059161e-01 -4.1249287545971741e-01 0.0000000000000000e+00  9.9295847399067338e-01 -1.6962433092107521e-01 0.0000000000000000e+00  9.6354413969301056e-01 2.8485844588594816e-01 0.0000000000000000e+00  9.2137746820013766e-01 3.8806941468868039e-01 0.0000000000000000e+00  9.0114323321946888e-01 4.4213720143856705e-01 0.0000000000000000e+00  1.0059165164444028e+00 -2.0114503321764995e-01 0.0000000000000000e+00  7.6701939940742381e-01 -6.6351778066056821e-01 0.0000000000000000e+00  8.4263216200812585e-01 -5.3153775561381789e-01 0.0000000000000000e+00  1.0006799095636931e+00 -1.7584442978560036e-01 0.0000000000000000e+00  8.4740560416549093e-01 -5.5215248497757929e-01 0.0000000000000000e+00  6.5246034889849169e-01 -7.7544664949660325e-01 0.0000000000000000e+00  7.0746604884183650e-01 -7.5623185041763330e-01 0.0000000000000000e+00  1.1523672583790048e-01 -9.2605915735301736e-01 0.0000000000000000e+00  8.3317369359259363e-01 -5.5344584465828295e-01 0.0000000000000000e+00  8.7385491467773524e-01 4.8651691443035161e-01 0.0000000000000000e+00  6.7169161372322386e-02 1.1827151647820442e+00 0.0000000000000000e+00  8.3233521762522922e-01 5.5473907476413009e-01 0.0000000000000000e+00  9.9103021872351527e-01 1.3389002675255762e-01 0.0000000000000000e+00  9.1959872498706308e-01 -3.9336647903986910e-01 0.0000000000000000e+00  1.0000248249476593e+00 2.4184225175177430e-03 0.0000000000000000e+00  9.9959156055537224e-01 -2.9439574011454566e-02 0.0000000000000000e+00  9.7033309756513064e-01 2.4219503049155303e-01 0.0000000000000000e+00  9.9739676861370508e-01 7.4558922132111141e-02 0.0000000000000000e+00  9.0573202436219702e-01 4.2534404063650960e-01 0.0000000000000000e+00  9.8483674738170068e-01 -1.7399993742577652e-01 0.0000000000000000e+00  4.6930998326751255e-01 -8.8336083981601066e-01 0.0000000000000000e+00  3.0203801678709624e-01 -8.9577643800844919e-01 0.0000000000000000e+00  4.2917258543612413e-01 9.0354926798195256e-01 0.0000000000000000e+00  9.1044107440812649e-01 4.1771033811835329e-01 0.0000000000000000e+00  1.0000126403844518e+00 -2.6462388257093381e-02 0.0000000000000000e+00  5.6142501184861504e-01 8.2785914481386891e-01 0.0000000000000000e+00  6.4940782196473001e-01 -7.6087555882809543e-01 0.0000000000000000e+00  7.7591890609984748e-01 -6.3485774989063704e-01 0.0000000000000000e+00  9.8008956137017855e-01 -1.9900415206617464e-01 0.0000000000000000e+00  9.6626483103416116e-01 2.5793907294114710e-01 0.0000000000000000e+00  8.4510574219825918e-01 -5.3579767587457450e-01 0.0000000000000000e+00  3.1713276324627626e-01 9.0427549231276494e-01 0.0000000000000000e+00  9.7023661132937933e-01 -2.4442242898441452e-01 0.0000000000000000e+00  5.0263639068577126e-01 8.6559919906295812e-01 0.0000000000000000e+00  9.9975463414716559e-01 2.4335229585656318e-02 0.0000000000000000e+00  9.9866479383957807e-01 5.1765152047734228e-02 0.0000000000000000e+00  9.3357635831080688e-01 -3.5887059560582069e-01 0.0000000000000000e+00  9.8791514441164219e-01 -1.5612342153109091e-01 0.0000000000000000e+00  9.4010890045696438e-01 -3.4197052565489283e-01 0.0000000000000000e+00  9.7305140242662080e-01 -2.3318913862254895e-01 0.0000000000000000e+00  8.2122960774716980e-01 -5.7126525673367901e-01 0.0000000000000000e+00  9.9621274935452409e-01 -8.7566686982246913e-02 0.0000000000000000e+00  1.0001150475741636e+00 1.6986084073356545e-03 0.0000000000000000e+00  9.9738675561113532e-01 -7.3776947419820146e-02 0.0000000000000000e+00  9.9827163812979769e-01 -5.9835149611826961e-02 0.0000000000000000e+00  9.9941044066291007e-01 3.5953806596915147e-02 0.0000000000000000e+00  9.8411884694133256e-01 1.7816044758146923e-01 0.0000000000000000e+00  9.9525577458988157e-01 9.8006346042238207e-02 0.0000000000000000e+00  9.9814921095893794e-01 5.8590926399273428e-02 0.0000000000000000e+00  9.9958605671197776e-01 -2.2018951212161342e-02 0.0000000000000000e+00  1.0002266847353256e+00 4.5593980329704147e-03 0.0000000000000000e+00  9.9594308431844258e-01 -9.0302043663242945e-02 0.0000000000000000e+00  1.7768296759305252e-01 1.0037821170154009e+00 0.0000000000000000e+00  4.7733667994613249e-01 8.7917370208631029e-01 0.0000000000000000e+00  3.2589238472027204e-01 9.4526437784540163e-01 0.0000000000000000e+00  7.7031484138249096e-01 6.3939971750109503e-01 0.0000000000000000e+00  7.0533045030807540e-01 7.0943378707136739e-01 0.0000000000000000e+00  9.7367082208448918e-01 2.2881878004123826e-01 0.0000000000000000e+00  9.7823519512388446e-01 -2.0781365034546775e-01 0.0000000000000000e+00  6.3119806943251666e-01 -7.7605789908646505e-01 0.0000000000000000e+00  6.7081602503725268e-01 -7.4224610650229195e-01 0.0000000000000000e+00  4.2836537390459389e-01 -9.0433456941053914e-01 0.0000000000000000e+00  9.6518064682582483e-01 -2.6209719248327190e-01 0.0000000000000000e+00  9.8675688093569924e-01 -1.6373334659758648e-01 0.0000000000000000e+00  9.9991454096154286e-01 -1.5446778457824021e-02 0.0000000000000000e+00  9.9353384929681932e-01 -1.1414974148948445e-01 0.0000000000000000e+00  9.6678014422387126e-01 2.5608584674865570e-01 0.0000000000000000e+00  9.9228546850712396e-01 1.2569301881162145e-01 0.0000000000000000e+00  8.1048311023093911e-01 5.8591166820187812e-01 0.0000000000000000e+00  8.8370658814118108e-01 4.6826092735833691e-01 0.0000000000000000e+00  9.0924544175876509e-01 -4.1643385611795797e-01 0.0000000000000000e+00  8.3906682154964352e-01 -5.4426352422936475e-01 0.0000000000000000e+00  8.7966811604829354e-01 -4.7589690001139406e-01 0.0000000000000000e+00  7.5268769808807023e-01 -6.5868994691988236e-01 0.0000000000000000e+00  7.2905920055231777e-01 6.8472254959701717e-01 0.0000000000000000e+00  8.4876465362247244e-01 5.2899070301518014e-01 0.0000000000000000e+00  5.6210545273057827e-02 -1.3698021470182242e+00 0.0000000000000000e+00  2.4955924510582339e-01 9.6346572370960104e-01 0.0000000000000000e+00  2.5887578032355435e-01 -9.6498237293938605e-01 0.0000000000000000e+00  3.5487293159234171e-02 1.3922858274833392e+00 0.0000000000000000e+00  6.7776791259914049e-01 -7.3562491005847708e-01 0.0000000000000000e+00  9.9602194249943776e-01 9.8648275751005668e-02 0.0000000000000000e+00  9.5480529504183176e-01 2.9870190605244978e-01 0.0000000000000000e+00  8.3588702593146513e-01 5.4996178211681424e-01 0.0000000000000000e+00  8.6892028959882628e-01 4.9563061469934222e-01 0.0000000000000000e+00  9.8061875649572749e-01 1.9781319018374052e-01 0.0000000000000000e+00  9.5477953348628486e-01 2.9802948869685009e-01 0.0000000000000000e+00  7.5496106040528654e-01 6.6552003966450901e-01 0.0000000000000000e+00  3.2854110935725628e-01 9.3159457056278727e-01 0.0000000000000000e+00  8.3679407503965630e-01 -5.2449640848510415e-01 0.0000000000000000e+00  9.0850643237901330e-01 4.1628256578603023e-01 0.0000000000000000e+00  9.4192070415842855e-01 -3.3637395802848247e-01 0.0000000000000000e+00  9.3666405287363463e-01 3.5055488359231290e-01 0.0000000000000000e+00  9.8764069956783807e-01 1.5795232215837685e-01 0.0000000000000000e+00  9.2371591376384377e-01 3.8356256913613779e-01 0.0000000000000000e+00  9.9101788232165167e-01 1.3418851401724979e-01 0.0000000000000000e+00  6.2183151594239383e-01 7.8386349737956840e-01 0.0000000000000000e+00  6.6924072363524345e-01 7.4347331925222282e-01 0.0000000000000000e+00  1.2714473150198002e-01 -9.0942647665259135e-01 0.0000000000000000e+00  2.1181699741425244e-01 -9.7063493630525444e-01 0.0000000000000000e+00  6.4699357540617841e-01 -7.6329501986546744e-01 0.0000000000000000e+00  3.3226886461749972e-01 -9.4549412490698814e-01 0.0000000000000000e+00  4.0076328491446395e-01 -9.1668116272556766e-01 0.0000000000000000e+00  9.8156982609549759e-01 -2.0000376729773131e-01 0.0000000000000000e+00  1.0408183167290005e-01 1.3002808029917687e+00 0.0000000000000000e+00  5.8945156603223359e-01 -8.0812689766261159e-01 0.0000000000000000e+00  3.3436461855461463e-01 -9.4230738346446907e-01 0.0000000000000000e+00  3.0109282861506542e-01 9.5344832341243213e-01 0.0000000000000000e+00  5.5258795566072139e-01 8.3376778981543831e-01 0.0000000000000000e+00  8.0910152516599265e-01 5.9882472174122714e-01 0.0000000000000000e+00  3.3752749475741989e-01 9.4370888351193916e-01 0.0000000000000000e+00  1.6414805126997406e-01 1.0119312517542167e+00 0.0000000000000000e+00  4.8699281038472414e-01 8.7376265998672697e-01 0.0000000000000000e+00  6.8800281624700221e-01 7.2595894384101289e-01 0.0000000000000000e+00  7.5226341749039138e-01 6.5920763710156027e-01 0.0000000000000000e+00  7.2002228034377824e-01 -6.9425178181216873e-01 0.0000000000000000e+00  5.0952193589286321e-01 -8.6081071743938287e-01 0.0000000000000000e+00  8.2245003461667288e-01 -5.6929980738086072e-01 0.0000000000000000e+00  9.9984596416294302e-01 -3.0979537225434957e-02 0.0000000000000000e+00  9.3532675169567780e-01 -3.5478315375480063e-01 0.0000000000000000e+00  9.9789242489767926e-01 7.1840317044065155e-02 0.0000000000000000e+00  1