<?xml version="1.0"?>
<VTKFile type="UnstructuredGrid"  version="0.1"  >
<UnstructuredGrid>
<Piece  NumberOfPoints="2549" NumberOfCells="4928">
<Points>
<DataArray  type="Float64"  NumberOfComponents="3"  format="ascii">1.474982489104603 0.02405063314213723 0  1.471206875415728 0.04716155967089977 0  1.447807798851305 0.05652176813188693 0  1.435839644055828 0.07240265435785669 0  1.431031282928838 0.08360537907610514 0  1.430636576708461 0.1065508608295325 0  1.413065885605834 0.1137763222755274 0  1.399955424168137 0.105677145539949 0  1.388086582677857 0.1506314829938341 0  1.519408158620386 0.6659331548884887 0  1.386972769686774 0.174463228683128 0  1.380951320142675 0.2155693247245838 0  1.346254487405496 0.2320884163864658 0  1.339803229653517 0.2596487420542134 0  1.336672633308927 0.2905212414967402 0  1.318407044366854 0.3230782794269484 0  1.310323398617604 0.357459245359554 0  1.290470528130737 0.3683231671158645 0  1.276658948506006 0.4201194942148487 0  1.264151879851834 0.4604534946553375 0  1.244067960344448 0.5048257268087991 0  1.225755114070616 0.5504623297236583 0  1.202803289031356 0.5979268716380524 0  1.17993939596172 0.6493653904719785 0  1.155215704956755 0.7069441206387254 0  1.112641762197088 0.737094367393913 0  1.086340999419369 0.7927534663238096 0  1.054126004771384 0.8506395722693834 0  1.012691852031187 0.9032918486058563 0  0.9696343012193929 0.9591379911901616 0  0.9223274950933895 1.013586473793177 0  0.8699275994789274 1.068564196671731 0  0.8141597089574621 1.121058201977666 0  0.7550939146442266 1.170440459760413 0  0.6891071019880075 1.220794116291398 0  0.6203686608392683 1.267480899573751 0  0.5464786707325466 1.310540233099903 0  0.4686050465457164 1.349649463267295 0  0.3870815837108407 1.383492250337286 0  0.3016710748554126 1.412297857579459 0  0.213792788429716 1.434903825638155 0  0.1244643126910856 1.450080453715319 0  0.03257806522587332 1.459780390841769 0  -0.05914433787938279 1.461514398955327 0  -0.151131595480163 1.456234070125329 0  -0.2416484335021998 1.443115336525133 0  -0.330559559195773 1.423806650399298 0  -0.416604947655834 1.395575138026407 0  -0.4986768495261778 1.36435093987406 0  -0.5781442156458529 1.326406733331148 0  -0.652960061655022 1.28159569337513 0  -0.7232790572215736 1.233942484447097 0  -0.7885877290959175 1.181880407284964 0  -0.8495575282985712 1.127200574862856 0  -0.9042921011662827 1.07085058988142 0  -0.9578704793759476 1.010666639745322 0  -1.000397887859353 0.9578680704335296 0  -1.045741210242229 0.9048722603176782 0  -1.085114358883654 0.8431573740477329 0  -1.119903790968245 0.7856715758009627 0  -1.148624953714218 0.7293326724036749 0  -1.172432465345449 0.6689515189094108 0  -1.205454005279488 0.6301131937843529 0  -1.220197337216157 0.5528849670305354 0  -1.221140185497868 0.5124584369249509 0  -1.264892014077601 0.5009023187583621 0  -1.279637729287214 0.4505109268102234 0  -1.289316116416458 0.412005276881459 0  -1.296772541764115 0.3733550337634722 0  -1.322197293441363 0.3513476797476801 0  -1.331188272370332 0.3017488561379134 0  -1.311375470196143 0.3285494641558483 0  -1.377374535012197 0.2895313737782054 0  -1.372466047212541 0.1944643923205176 0  -1.370088992690122 0.1695007110339631 0  -1.374535038747588 0.1363612885082907 0  -1.388560962045343 0.1193775460703809 0  -1.399132746948819 0.08655084489000459 0  -1.398626879354806 0.1118795921986551 0  -1.388946383650048 0.02266273902014647 0  -1.407993680980931 0.09630096734665777 0  -1.437955913860505 0.1585780866235303 0  -1.474079730290372 0.07867126631759494 0  -1.482058862153047 0.04892955732912512 0  -1.50479441432338 0.02117750994499807 0  -1.488591735486798 -0.005374760564841366 0  -1.472730905602875 -0.0387116026160199 0  -1.283752632934689 -0.5229792986539007 0  -1.395058474643212 -0.04279777462423261 0  -1.704686806842516 0.5043443099133794 0  -1.441167842696677 -0.06237640321053951 0  -1.450482413320562 0.01352838919972444 0  -1.408694910361102 -0.1298298729617463 0  -1.394770797612703 -0.087567808500705 0  -1.376027018222902 -0.1007847754971773 0  -1.381442573461755 -0.1226945664576738 0  -1.398350342814101 -0.2418865845765545 0  -1.316937099731301 -0.3426107354823708 0  -1.3609303643572 -0.2390293434742233 0  -1.35811033093225 -0.2963759059198512 0  -1.323126959216191 -0.3230749552561756 0  -1.329361973945022 -0.3607688196842639 0  -1.328361695453701 -0.4005309133106686 0  -1.347186037537874 -0.4482515831408564 0  -1.239524052732361 -0.4666956679211284 0  -1.209716081082979 -0.4995616981622232 0  -1.248667760884269 -0.6155053374690722 0  -1.199003931982994 -0.6373492287736493 0  -1.187972089100835 -0.7006945879775103 0  -1.163204090841686 -0.7653153677739859 0  -1.140756209630241 -0.8275671199080479 0  -1.098304475331609 -0.9091939385513028 0  -1.033043795083095 -0.932350857129483 0  -1.007700449625937 -1.00519937144153 0  -0.9557451446119273 -1.088705023742172 0  -0.8983420450961085 -1.142128216060521 0  -0.8367151363676889 -1.210142902985355 0  -0.7703285968227851 -1.269209193904665 0  -0.6980442056683904 -1.326130637381639 0  -0.6186873173264664 -1.378435755336932 0  -0.5368635291863373 -1.426585979177101 0  -0.4514225637943236 -1.463917680193463 0  -0.3587584977624799 -1.499298072493925 0  -0.2651122659455227 -1.526421605723431 0  -0.1674431051242098 -1.544849432274777 0  -0.06864624049372499 -1.554971167400942 0  0.03110093143319174 -1.556075280210769 0  0.1304458650792628 -1.548411244284549 0  0.2284994266182131 -1.531847754700753 0  0.3240168541450701 -1.506989278082891 0  0.4165052365934087 -1.474791361722182 0  0.5050863625265466 -1.435364673579713 0  0.5890099167954602 -1.389832167893175 0  0.6682818979370145 -1.338778460892537 0  0.7410174229289448 -1.283819359549655 0  0.811538567094679 -1.22374053232946 0  0.8714243638988288 -1.167423309758059 0  0.9286506088605284 -1.1064571879302 0  0.9829763909526036 -1.041771775096333 0  1.030325093412955 -0.9783870338325465 0  1.073144091335186 -0.9143797135630547 0  1.112736651956491 -0.8528794938997022 0  1.144416373101254 -0.7891860323993155 0  1.170414794608177 -0.7276050868633221 0  1.208569360833069 -0.6871234300998669 0  1.231339989181375 -0.6252594771562173 0  1.252742259053112 -0.5691053116162071 0  1.272399865770506 -0.5153002494459281 0  1.28136052830129 -0.4648867456293223 0  1.287078942966613 -0.4111934977860529 0  1.315213742026064 -0.3836762600053316 0  1.324432484108713 -0.308530917593542 0  1.28969244372356 -0.3142719826588591 0  1.350453840462775 -0.2756374330953678 0  1.365466934593204 -0.2283554432535509 0  1.363622608055318 -0.1971628272102116 0  1.366876376147478 -0.1675706906099694 0  1.376434304457278 -0.1390151070455148 0  1.375264093861972 -0.1056672341219016 0  1.604780603933833 0.8243659676633178 0  1.411705569951234 -0.08573689867837087 0  1.40475814247909 -0.09279219958547304 0  1.411766035139004 -0.06173455922849707 0  1.431648931250613 -0.04857114748003925 0  1.430916487706692 -0.02927018149050718 0  1.440573838072629 -0.01790112300127504 0  1.447605837282189 -0.003682697773242069 0  1.467652822263301 0.003967230508487224 0  -0.09650291452130691 0.8822120202023394 0  0.6907007969153077 -0.5053861371337086 0  -0.8072691939969696 -0.3852707370803785 0  -0.07653749991771641 -0.9415486507059739 0  0.6537811638596642 0.4967453549165095 0  1.093578267246567 0.1155423208494837 0  -0.7953299407664377 0.4037707114032212 0  -1.158085614817778 0.02868750895373881 0  1.102990945296709 -0.06468826955786587 0  -1.039780157128256 -0.1757864974153557 0  -0.7344121683420767 0.01422289342747316 0  -0.4392520723573221 -0.1390364748861214 0  -1.029562800301022 0.2093822423553422 0  0.3803935389354859 -0.8300817881949615 0  0.08532820665780932 -0.3031177165709392 0  0.3074927329034314 0.7675100921384894 0  0.2210732465214625 0.1837208631209225 0  0.565165622290038 0.01741780387003148 0  -0.482405967949468 -0.6950274569550176 0  -0.5029724891738294 0.6889664306329734 0  -0.2387177559619495 0.3042957047367921 0  0.920430379100706 -0.2128972361295844 0  0.9004385667557891 0.2467575604133909 0  0.3550156301526046 -0.2134697794194937 0  -0.00872631078421761 0.2298128593100534 0  -0.4918027128873926 0.2087912719646563 0  -0.1882924268033822 -0.2788067194017311 0  0.8658193340941872 0.02205191756298569 0  1.252632857009132 0.03055697747014408 0  0.8060820887574689 -0.339935930960869 0  0.7218263058700906 -0.106898824107564 0  0.5879643089379455 -0.2071846714365703 0  0.4436807426491782 -0.07614278276677165 0  0.5155476192886066 -0.3699211425158689 0  0.8672235070056776 -0.08298655405106367 0  0.7177814369924461 0.01960422540188199 0  -0.8608592293016857 0.1223037799781053 0  -1.074676238676523 0.1005183994887323 0  -0.9505797379378171 0.02265581401128169 0  -0.867971338050698 -0.08916187016742398 0  -1.077974031915823 -0.05232235769848395 0  -1.241524261631967 -0.08088750364472484 0  -1.31522770418022 0.00382902040853815 0  -1.311729838743223 0.05897496132155038 0  -1.232110215624804 0.139995462421258 0  -0.1306945313867023 -0.6097071799793757 0  -0.3028933031305034 -0.5019711827200016 0  -0.2923137608076268 -0.8403625250619841 0  -0.3091423467773843 -0.2015208272726356 0  -0.4530770414779867 -0.4007494418027766 0  -1.23148517710557 -0.1988899424213473 0  -1.213765053700404 0.245044263979679 0  0.3839776726605234 -0.5013349142289675 0  0.2181266108585888 -0.2449219550824091 0  0.2439282742609864 -0.5594201080369782 0  -0.9129317431832421 0.2913294838726985 0  -0.7285640069436338 0.1901336335650258 0  1.272576947633976 -0.08056036044857394 0  1.209603213655056 -0.1787773931224314 0  1.191800270247633 0.2270349324437605 0  1.267340075810898 0.1398732012842745 0  -0.9133271145052034 -0.6526468696715063 0  -1.04766915807249 -0.4464916909713423 0  -1.022193681771345 0.475265844532075 0  -0.8863957964891501 0.6620458611311483 0  0.9419583013490372 -0.6057909655193199 0  0.7750695615001874 -0.8235644284718647 0  0.7336540665130138 0.7929560918553004 0  0.902720176432527 0.607581550280207 0  0.0433990
[...]
<PointData  Vectors="f_43982"> 
<DataArray  type="Float64"  Name="f_43982"  NumberOfComponents="3" format="ascii">-9.1584486811352533e-02 1.4887274889848377e-03 0.0000000000000000e+00  -6.7172300442518165e-02 -3.4796441742586656e-02 0.0000000000000000e+00  1.8148761598950416e-01 2.2515186218401934e-01 0.0000000000000000e+00  4.0570616155233163e-02 3.5996142962686675e-02 0.0000000000000000e+00  7.4618325961311217e-03 -3.4726157020788040e-03 0.0000000000000000e+00  -7.4379805299962659e-02 -5.2409431779562025e-02 0.0000000000000000e+00  2.2144691211705481e-02 -1.2786842013826291e-01 0.0000000000000000e+00  -1.0969795638352449e-01 5.2683468557951849e-02 0.0000000000000000e+00  3.9124540336785739e-03 2.3679459558702516e-03 0.0000000000000000e+00  -1.9550559948329896e-02 3.7632368510738942e-03 0.0000000000000000e+00  -2.2885115130703015e-02 2.9961082112816505e-03 0.0000000000000000e+00  8.2773345692620556e-02 5.9152022917806989e-02 0.0000000000000000e+00  2.5020007576372505e-01 1.8632919852489294e-01 0.0000000000000000e+00  -1.8997657710525354e-01 -3.4475762873927146e-02 0.0000000000000000e+00  -1.1620310089702743e-01 -3.6215509674893821e-02 0.0000000000000000e+00  -9.5962666030405971e-02 -3.9784852108169767e-02 0.0000000000000000e+00  1.8525495412096077e-01 1.3708329891850049e-01 0.0000000000000000e+00  4.5865898131247151e-01 3.4057488648491496e-01 0.0000000000000000e+00  1.6343708399709370e-01 5.3212091697381426e-02 0.0000000000000000e+00  -8.5045502478039950e-02 -3.4570840237674455e-02 0.0000000000000000e+00  5.9932479357688072e-03 3.1101360274732922e-03 0.0000000000000000e+00  4.9581810881975261e-02 2.2205433919444434e-02 0.0000000000000000e+00  6.5513056094841329e-02 3.0469019121589239e-02 0.0000000000000000e+00  -1.2263399283576369e-01 -5.2169901586827730e-02 0.0000000000000000e+00  3.2660181727376981e-02 1.9678070182989536e-02 0.0000000000000000e+00  6.1797538369828897e-01 4.9802008972679485e-01 0.0000000000000000e+00  4.4168196007327426e-01 2.4529700990244607e-01 0.0000000000000000e+00  -6.3483666007331713e-02 -4.7212696759545689e-02 0.0000000000000000e+00  2.0802699249918684e-02 1.8154737206605952e-02 0.0000000000000000e+00  6.7705913053082115e-02 5.5197910792719615e-02 0.0000000000000000e+00  2.0680349005796260e-02 1.9165949351793950e-02 0.0000000000000000e+00  4.5360363863904553e-02 4.5553109636227995e-02 0.0000000000000000e+00  2.1422997266438430e-02 2.4056269552355004e-02 0.0000000000000000e+00  1.9982187381845075e-02 2.5168887136771421e-02 0.0000000000000000e+00  3.9254354169428012e-02 5.4767778144035370e-02 0.0000000000000000e+00  3.2033231931857378e-02 5.0740517563818401e-02 0.0000000000000000e+00  2.6908348313888535e-02 4.9917117544960761e-02 0.0000000000000000e+00  2.6580993089265349e-02 5.7860918926719018e-02 0.0000000000000000e+00  1.7056113757826015e-02 4.5616829141211651e-02 0.0000000000000000e+00  1.9189128149954160e-02 6.4556449475188502e-02 0.0000000000000000e+00  5.4256955627092129e-03 2.4278240081873535e-02 0.0000000000000000e+00  2.7088251803745059e-03 2.0974999569452073e-02 0.0000000000000000e+00  2.0744390198711572e-03 3.0495899052816123e-02 0.0000000000000000e+00  -4.1359931933945853e-04 1.6619727263881872e-02 0.0000000000000000e+00  -6.4226014462480439e-04 8.0951747797651710e-03 0.0000000000000000e+00  -3.3429188000468880e-03 1.7526341175916716e-02 0.0000000000000000e+00  1.3998221014986346e-03 -4.1622618705402610e-03 0.0000000000000000e+00  -1.7470430727763529e-03 4.2032743170531371e-03 0.0000000000000000e+00  -9.1013083448475574e-03 2.1529812580360179e-02 0.0000000000000000e+00  3.6249395002871062e-03 -6.6548706110255160e-03 0.0000000000000000e+00  -5.6342046703844852e-03 8.6252800652268161e-03 0.0000000000000000e+00  -7.0766330134116231e-03 9.6465170002054609e-03 0.0000000000000000e+00  -1.0835201794948556e-02 1.2773681718863951e-02 0.0000000000000000e+00  -1.5555868091115782e-02 1.6162197231564406e-02 0.0000000000000000e+00  -1.3543165193273558e-02 1.2663729083926777e-02 0.0000000000000000e+00  -2.1026366709625682e-02 1.7839598617497263e-02 0.0000000000000000e+00  -1.6744646853653147e-02 1.4169808597879531e-02 0.0000000000000000e+00  1.3950768930867002e-02 -1.0692217362776963e-02 0.0000000000000000e+00  -2.1120799534525357e-02 1.3401262397310107e-02 0.0000000000000000e+00  1.1055348597596710e-02 -6.7270680596574726e-03 0.0000000000000000e+00  -2.1760108452528973e-01 1.0351623925741785e-01 0.0000000000000000e+00  -3.2510009178429883e-01 1.8627200697041427e-01 0.0000000000000000e+00  -6.0624757626754254e-02 2.5864301760816371e-02 0.0000000000000000e+00  -1.4710505094767956e-01 2.8456978194770045e-02 0.0000000000000000e+00  -9.8950795857218693e-02 6.2139811540233882e-02 0.0000000000000000e+00  -1.5278777656686618e-01 1.4212060130148590e-01 0.0000000000000000e+00  -4.3936075654322740e-02 1.6111738001783879e-02 0.0000000000000000e+00  -5.3728809451270745e-02 1.4323386415122649e-02 0.0000000000000000e+00  -7.8015912797552975e-02 4.0542311362458672e-02 0.0000000000000000e+00  -2.0494811735624813e-02 1.5980433218863728e-02 0.0000000000000000e+00  8.3910582268210035e-02 8.6196065346152026e-02 0.0000000000000000e+00  2.7322071950357841e-02 1.5720838335245256e-02 0.0000000000000000e+00  -3.9599744787830883e-02 2.1363786045256346e-02 0.0000000000000000e+00  -2.5469103588877662e-02 -1.3881556138531641e-03 0.0000000000000000e+00  6.0971448968041117e-02 -9.8681241323214392e-04 0.0000000000000000e+00  3.1949080394668892e-03 1.3944558704489750e-03 0.0000000000000000e+00  1.9470934506659943e-03 -1.2797196231623977e-02 0.0000000000000000e+00  -4.1865978533668878e-02 -4.4692111059862361e-03 0.0000000000000000e+00  -3.2457237099573655e-01 1.6519636974069756e-02 0.0000000000000000e+00  -9.8447818201874253e-03 -8.4916873043634176e-03 0.0000000000000000e+00  8.1342276722368590e-03 1.0028277037177470e-02 0.0000000000000000e+00  -4.3522035659854475e-03 1.0443347639313812e-02 0.0000000000000000e+00  -1.1003137944252251e-02 4.9563691178059859e-03 0.0000000000000000e+00  -2.1163027713620150e-01 9.5233597693717573e-02 0.0000000000000000e+00  -2.7340554032112113e-01 1.9946213863020215e-02 0.0000000000000000e+00  3.8145327586344029e-02 2.4984934893571488e-02 0.0000000000000000e+00  -9.7908443751446392e-03 -5.1603760682088417e-03 0.0000000000000000e+00  -7.8237414745096221e-04 -5.2430786141758831e-04 0.0000000000000000e+00  6.5255377722762183e-03 2.9803894880632174e-03 0.0000000000000000e+00  5.1099982567737907e-03 3.2468848085428132e-03 0.0000000000000000e+00  5.9444934401376236e-02 8.8349614483499671e-03 0.0000000000000000e+00  1.5051221368549240e-02 1.9080751011934542e-03 0.0000000000000000e+00  2.0562538320338372e-02 -1.3320421851243543e-02 0.0000000000000000e+00  2.4901085272784609e-01 -5.3550095820333188e-01 0.0000000000000000e+00  -1.0663687549087862e-01 1.6012321614543767e-01 0.0000000000000000e+00  -5.2915263767800799e-02 1.7778856744450067e-02 0.0000000000000000e+00  9.3783399419979582e-03 2.8197393824840513e-03 0.0000000000000000e+00  4.6611682692293425e-02 2.3100427436591197e-02 0.0000000000000000e+00  1.5925553804514958e-01 4.3562484203468380e-02 0.0000000000000000e+00  -6.8925377142664612e-02 -3.4166324818442728e-02 0.0000000000000000e+00  -2.2737285255336342e-01 -7.4120271107080429e-02 0.0000000000000000e+00  -2.6132057953814847e-01 1.0775220837558393e-02 0.0000000000000000e+00  -1.6897516937697132e-01 1.2389083623707088e-02 0.0000000000000000e+00  -2.7542793869467952e-01 -1.3933317891667948e-01 0.0000000000000000e+00  -1.8572691189941876e-01 -2.4418551715902065e-01 0.0000000000000000e+00  -4.2297744247555297e-01 -1.2713797940942129e-01 0.0000000000000000e+00  -9.8014548363523535e-01 -4.5791109958568665e-01 0.0000000000000000e+00  -6.8407989921803902e-01 -4.5282415463900666e-01 0.0000000000000000e+00  -6.2693253438049112e-01 -2.0029849582373307e-01 0.0000000000000000e+00  -1.3583279241572904e-01 -4.9103153637476200e-02 0.0000000000000000e+00  -3.4002233289864181e-01 -1.6854330195493869e-01 0.0000000000000000e+00  -1.6266888132176699e-01 -1.5678493758448869e-01 0.0000000000000000e+00  -2.2576772984358520e-01 -2.0390433922618315e-01 0.0000000000000000e+00  -4.3759262171435676e-01 -2.3453186173436802e-01 0.0000000000000000e+00  -2.5176501900772245e-03 4.0780397787443089e-03 0.0000000000000000e+00  -1.9004877500594750e-02 -1.9543883897338934e-02 0.0000000000000000e+00  -1.0046231172806463e-01 -1.0210347258649216e-01 0.0000000000000000e+00  -2.3459995188642283e-02 -2.8024401678155453e-02 0.0000000000000000e+00  -2.8612395099190505e-02 -3.9416168219173958e-02 0.0000000000000000e+00  -1.6316078133731694e-02 -2.6199413831465644e-02 0.0000000000000000e+00  -9.9741731302743757e-03 -1.9387771105465600e-02 0.0000000000000000e+00  -5.3978456427637633e-03 -1.3030576929252418e-02 0.0000000000000000e+00  6.6825505498865610e-05 3.7670315105812119e-04 0.0000000000000000e+00  -6.8116326428305262e-04 -2.9080350766950546e-03 0.0000000000000000e+00  -2.1533803099516344e-04 -1.2427748988206868e-03 0.0000000000000000e+00  1.5216035184113973e-04 1.7419003584043930e-03 0.0000000000000000e+00  1.7166707298809519e-04 -5.8311860209435476e-03 0.0000000000000000e+00  8.7063553996556383e-04 -5.9728563527340038e-03 0.0000000000000000e+00  7.0596598420032469e-03 -3.2506063813441156e-02 0.0000000000000000e+00  1.2688817536148514e-02 -4.1674640319218817e-02 0.0000000000000000e+00  1.9084739398970370e-02 -4.7967299081815254e-02 0.0000000000000000e+00  3.0113078650764669e-02 -6.1050412152721591e-02 0.0000000000000000e+00  3.6185416313069131e-02 -6.1126606155869651e-02 0.0000000000000000e+00  4.9071645135350547e-02 -7.0236134693085428e-02 0.0000000000000000e+00  5.5978573282115120e-02 -7.0095576284499556e-02 0.0000000000000000e+00  3.1357466687355631e-02 -3.5174168245905114e-02 0.0000000000000000e+00  4.5228098633275843e-02 -4.5018655402108067e-02 0.0000000000000000e+00  7.1135315418524969e-02 -6.3080763727070208e-02 0.0000000000000000e+00  5.9099120165285936e-02 -4.7088366679211409e-02 0.0000000000000000e+00  8.4887197063820835e-02 -5.9963071395438571e-02 0.0000000000000000e+00  3.5788782947473778e-02 -2.4752822321289669e-02 0.0000000000000000e+00  -3.4642676048737532e-02 2.2863461402545641e-02 0.0000000000000000e+00  5.1720667244821927e-01 -2.5306648000360871e-01 0.0000000000000000e+00  9.0132453095478871e-01 -5.6990002128802753e-01 0.0000000000000000e+00  -3.3651425071052776e-01 2.0402100546718438e-01 0.0000000000000000e+00  -1.5494706511280318e-01 6.1561499755505261e-02 0.0000000000000000e+00  6.3212744944261864e-02 -2.3248148891276105e-02 0.0000000000000000e+00  2.0415139935231882e-01 -5.0882354213684984e-02 0.0000000000000000e+00  4.0522419699769774e-01 -8.0715173926764944e-02 0.0000000000000000e+00  1.0927831337051146e+00 -4.9689981330030636e-01 0.0000000000000000e+00  2.3076769335440631e-01 -1.0675926663753574e-01 0.0000000000000000e+00  -2.6268200987868134e-01 -1.9012138127952782e-01 0.0000000000000000e+00  -9.9852850517246086e-02 -2.5773660409066944e-02 0.0000000000000000e+00  -1.1983578438802473e-02 8.8705084692428170e-04 0.0000000000000000e+00  1.7206737964846536e-02 -3.2185430401742018e-04 0.0000000000000000e+00  -4.0437010434033208e-02 1.0629689881161807e-03 0.0000000000000000e+00  1.0628879759852847e-01 -1.9267665193574660e-02 0.0000000000000000e+00  6.3692938797683743e-02 -9.2632125071211574e-03 0.0000000000000000e+00  -1.0578790759635075e-03 3.0867313503907324e-05 0.0000000000000000e+00  2.3979251934170332e-05 5.6286509768835316e-06 0.0000000000000000e+00  -6.2872988126871129e-05 -6.8832719792610167e-05 0.0000000000000000e+00  -6.6695393303447245e-02 -1.2047012289674625e-01 0.0000000000000000e+00  -2.9141543496637227e-02 -4.4261809920008194e-02 0.0000000000000000e+00  4.1390463240486702e-02 4.4277612079142332e-02 0.0000000000000000e+00  7.9362271431761208e-02 -1.7355579907619784e-02 0.0000000000000000e+00  4.3620030601577854e-02 -3.6827644546271479e-02 0.0000000000000000e+00  2.6763101152630447e-01 -2.8523907744680244e-01 0.0000000000000000e+00  -3.0816693564512849e-02 9.8862055880751584e-03 0.0000000000000000e+00  -8.1343436499191675e-10 9.9745685247399908e-09 0.0000000000000000e+00  4.5239624431125092e-08 -2.8073530565853713e-08 0.0000000000000000e+00  -2.2873027634537155e-07 -9.7305622379666680e-08 0.0000000000000000e+00  -8.3286800667810735e-10 -5.8015664578854759e-09 0.0000000000000000e+00  2.8555867524933540e-08 2.0273972467475880e-08 0.0000000000000000e+00  1.7118683056614283e-08 2.0119183722176766e-08 0.0000000000000000e+00  -8.0387950516951985e-08 4.0377860809563797e-08 0.0000000000000000e+00  -4.9961774748938083e-08 -2.0094980199987449e-08 0.0000000000000000e+00  8.3311416391207055e-09 -2.2038451454345856e-09 0.0000000000000000e+00  -5.3541784670261011e-08 -9.4195527420694322e-09 0.0000000000000000e+00  -2.1082694651794368e-13 -4.1518267859828592e-14 0.0000000000000000e+00  -1.8839942550355701e-13 -1.2318167558340519e-13 0.0000000000000000e+00  -1.7083690901899387e-08 1.0239578507930520e-08 0.0000000000000000e+00  2.2400941851351182e-08 -3.7220692307375578e-08 0.0000000000000000e+00  7.9422825901774539e-15 -2.6885713389570531e-14 0.0000000000000000e+00  1.5293776444684548e-08 2.8391563247392202e-08 0.0000000000000000e+00  2.2795095911228410e-14 2.5780355994089060e-14 0.0000000000000000e+00  1.1850914251961797e-13 2.1315201802506921e-14 0.0000000000000000e+00  -3.8903516656425593e-08 -3.8078809274147847e-08 0.0000000000000000e+00  -9.5427099990374099e-09 1.1061112814775196e-08 0.0000000000000000e+00  -5.4288206553236661e-15 1.2412251595318418e-14 0.0000000000000000e+00  1.6522846076008687e-07 -5.7737616125235834e-08 0.0000000000000000e+00  1.5695145269519974e-08 8.6335333789277293e-09 0.0000000000000000e+00  5.1094177446098739e-14 -5.0562272289926990e-14 0.0000000000000000e+00  9.1588879593008535e-15 3.4990529855145009e-14 0.0000000000000000e+00  -1.9856016526349170e-14 1.5193867523968413e-14 0.0000000000000000e+00  -1.5329839738362833e-14 -2.5255918149789881e-14 0.0000000000000000e+00  6.8093009480976885e-14 -3.4072604474450539e-15 0.0000000000000000e+00  3.3066337865928040e-08 1.2823911524478290e-09 0.0000000000000000e+00  -1.2855143559032834e-08 6.8064471252047939e-09 0.0000000000000000e+00  6.5005142894737969e-11 -2.0884999019900198e-11 0.0000000000000000e+00  1.9875049346821755e-10 -1.1142631522349604e-10 0.0000000000000000e+00  7.8299166328620751e-14 -4.8932762042051172e-14 0.0000000000000000e+00  4.7157365339246220e-11 -3.7130566112203602e-11 0.0000000000000000e+00  1.1221687770520132e-10 -5.7186401607260489e-11 0.0000000000000000e+00  2.1645846477765309e-13 -6.2622861364745830e-14 0.0000000000000000e+00  -4.1876194396619231e-11 2.7938790740133691e-11 0.0000000000000000e+00  -1.7703612596467211e-08 9.1417672570457784e-09 0.0000000000000000e+00  1.1959363979448948e-11 -2.2111029215292690e-11 0.0000000000000000e+00  -1.1711264744708348e-10 -2.7603058422060556e-11 0.0000000000000000e+00  -5.7532152101106090e-09 -2.9977674993350966e-09 0.0000000000000000e+00  8.8579239779321449e-06 -8.2359534071946139e-07 0.0000000000000000e+00  -1.1630846216516910e-05 -6.7406668281215069e-06 0.0000000000000000e+00  -7.7496818190708861e-05 1.1035008116347104e-05 0.0000000000000000e+00  6.0059773758505307e-06 1.3551231701707645e-06 0.0000000000000000e+00  -3.6330916366674257e-12 -9.0806245148062239e-12 0.0000000000000000e+00  -2.3311987277328894e-11 -2.9283309230977331e-11 0.0000000000000000e+00  -8.1490259501425992e-09 -1.4226008806757031e-08 0.0000000000000000e+00  -5.9203474033468032e-14 -5.4454019904505686e-14 0.0000000000000000e+00  -8.4594034766433261e-11 -5.5290739780395249e-11 0.0000000000000000e+00  -2.8640742680273982e-06 -1.1901073969365065e-06 0.0000000000000000e+00  -7.5183195615780566e-07 4.8406107789073372e-06 0.0000000000000000e+00  3.3559783106159083e-11 -4.3097735128137046e-11 0.0000000000000000e+00  3.1638498401372432e-14 -5.2210644525427846e-14 0.0000000000000000e+00  1.6250172894996409e-11 -3.7457642995698295e-11 0.0000000000000000e+00  -3.4181594537223987e-08 1.8492322590386058e-08 0.0000000000000000e+00  -7.7456915482905566e-11 3.6838820816525366e-11 0.0000000000000000e+00  -8.5041560015346055e-07 4.6637567932261053e-08 0.0000000000000000e+00  1.5259706319679774e-05 -4.7346824244488389e-06 0.0000000000000000e+00  -2.2459904982962778e-05 -3.9398117291147946e-06 0.0000000000000000e+00  1.5277626628253280e-05 4.3402848593608665e-06 0.0000000000000000e+00  -1.3312744650189449e-04 -6.7139141534448924e-05 0.0000000000000000e+00  -2.9459087574710738e-04 -1.3823858678962619e-04 0.0000000000000000e+00  -4.0122317222550535e-05 1.8651841909587589e-05 0.0000000000000000e+00  -1.2008355811639981e-05 6.4886805272397955e-06 0.0000000000000000e+00  1.4453241253098187e-04 -7.5590901330405114e-05 0.0000000000000000e+00  2.9801543308166385e-05 -2.3427852409093026e-05 0.0000000000000000e+00  1.5088927755960049e-05 1.3353731073392815e-05 0.0000000000000000e+00  1.1473443607248402e-04 6.9947486593538154e-05 0.0000000000000000e+00  5.7296287446994167e-07 -6.4619792316960526e-06 0.0000000000000000e+00  -1.8346770761896912e-06 -4.8210314982376467e-06 0.0000000000000000e+00  -9.9695024966602729e-07 3.4401639790110250e-06 0.0000000000000000e+00  8.6520816104644097e-07 1.2758903899500937e-05 0.0000000000000000e+00  2.9161220824788416e-08 -2.8791284043253821e-08 0.0000000000000000e+00  5.0715513707875193e-14 3.6687418299875259e-14 0.0000000000000000e+00  1.2909828227211032e-10 8.6260097358476508e-11 0.0000000000000000e+00  2.2948348043766435e-11 2.0437550744980816e-11 0.0000000000000000e+00  -1.7848344477268072e-10 -9.5843140983225009e-11 0.0000000000000000e+00  -3.4947546382701742e-13 -1.5981927226943505e-13 0.0000000000000000e+00  -3.1310170863665327e-10 -1.5172317848365127e-10 0.0000000000000000e+00  2.3551774448116089e-14 4.4027594533164221e-14 0.0000000000000000e+00  1.3148442378135825e-17 2.7052228890955771e-17 0.0000000000000000e+00  4.0639632494331268e-17 -7.8649318763826583e-18 0.0000000000000000e+00  -8.2009776765411019e-05 -1.1635103287016446e-05 0.0000000000000000e+00  -2.8821616503230012e-05 1.5308242691732958e-05 0.0000000000000000e+00  -9.7943436663659128e-08 -4.6562022471312813e-08 0.0000000000000000e+00  2.5385828691317167e-11 1.6207965611065495e-11 0.0000000000000000e+00  2.9271894978126769e-08 2.3242423016517281e-08 0.0000000000000000e+00  6.0262612040302633e-11 3.8459955206539815e-11 0.0000000000000000e+00  2.0325344050060382e-11 2.9504724500049907e-11 0.0000000000000000e+00  1.5198647998399733e-08 1.7053903374412396e-08 0.0000000000000000e+00  1.1665815105447584e-12 -1.0025884541948016e-11 0.0000000000000000e+00  4.7140460443632793e-09 -1.7379080303003655e-08 0.0000000000000000e+00  -7.0393053099216037e-12 1.0617169990987976e-11 0.0000000000000000e+00  -1.9598372320494180e-12 7.9870815837632766e-12 0.0000000000000000e+00  -3.5921671233056693e-09 8.2198350236726391e-09 0.0000000000000000e+00  1.3380939112353020e-16 -6.9568429940841411e-17 0.0000000000000000e+00  -1.5580507608392263e-15 -1.1052175745806342e-14 0.0000000000000000e+00  2.2209344857898474e-05 -2.8281860474036932e-05 0.0000000000000000e+00  9.6054061613086183e-06 -2.3009214648948243e-05 0.0000000000000000e+00  8.3916433853463962e-06 2.1783200374799467e-05 0.0000000000000000e+00  1.3705905635241257e-05 1.9584973205831475e-05 0.0000000000000000e+00  -5.3571303151658966e-18 -1.2071965459007288e-18 0.0000000000000000e+00  1.3475600236284979e-11 3.4616468620622152e-11 0.0000000000000000e+00  4.9383944849037687e-09 1.9840314573113019e-08 0.0000000000000000e+00  -1.4194878224176944e-05 -1.8518444518955317e-05 0.0000000000000000e+00  -3.3956692766629908e-05 -2.3890808596882515e-05 0.0000000000000000e+00  -1.1382428731748277e-07 -7.8423443517614600e-08 0.0000000000000000e+00  -8.5612550823675632e-06 7.9928197940732433e-06 0.0000000000000000e+00  -4.2681264668266702e-06 6.5925377853081296e-06 0.0000000000000000e+00  -1.0544192550713044e-08 8.3383831350393108e-09 0.0000000000000000e+00  -1.0329640785938548e-13 5.2160618666790055e-14 0.0000000000000000e+00  -2.1474