<?xml version="1.0"?>
<VTKFile type="UnstructuredGrid"  version="0.1"  >
<UnstructuredGrid>
<Piece  NumberOfPoints="2549" NumberOfCells="4928">
<Points>
<DataArray  type="Float64"  NumberOfComponents="3"  format="ascii">1.469509422236225 0.03658247415014142 0  1.46476058846628 0.05958444889717767 0  1.440818885571982 0.06843907413009091 0  1.428236264544932 0.08442380365105315 0  1.42269084798983 0.09658860815437686 0  1.417259845644172 0.1200790516664915 0  1.396987486484949 0.1232240286629454 0  1.364823015334191 0.1283417136660448 0  1.387501266882384 0.1524914670987509 0  1.489094944403104 0.2590397421152796 0  1.381343664051549 0.1770506144212911 0  1.374569649996452 0.2168838259735445 0  1.336692734295188 0.2338117938819845 0  1.33326780587929 0.261374204300077 0  1.329670894277211 0.2924834652454297 0  1.311000671324189 0.3247436364965856 0  1.301088287254289 0.3584224723830703 0  1.283110441831894 0.3694437076673306 0  1.269553725241268 0.421457093223654 0  1.256507314327559 0.4604081102121392 0  1.237950720683841 0.5051470322380014 0  1.21983262877803 0.5502447575429538 0  1.198483283928663 0.5977891239348295 0  1.173959937372815 0.6487471155982254 0  1.149133450872763 0.7028654510593693 0  1.113679636320879 0.7402412132103315 0  1.084466690394793 0.7945483752080644 0  1.050706336747219 0.8499501806977484 0  1.011012431934421 0.9039999099748489 0  0.9684366963819979 0.9595977581055951 0  0.9216381833678404 1.014482982038297 0  0.8698954682762496 1.069886905108749 0  0.8143140232154196 1.122671067461951 0  0.7554770457127291 1.172404602580119 0  0.6899266271899214 1.223412288196618 0  0.6213065245482837 1.270546024771168 0  0.547381054038516 1.314128418599398 0  0.4695108841814646 1.353714285872151 0  0.3877150539561184 1.387937503537115 0  0.3021526104109888 1.417334506004769 0  0.2138119510715229 1.439978705376672 0  0.1240049679796556 1.455348193159419 0  0.03178966950345007 1.465339040322584 0  -0.06055448303284922 1.46709449647101 0  -0.1529805993014574 1.461775075587012 0  -0.2441309699959121 1.448607409595823 0  -0.3334404611826804 1.428930192689724 0  -0.4200516712619464 1.40045732619424 0  -0.5025025143128553 1.368841226385771 0  -0.5823695117217863 1.330397868566996 0  -0.6574496850950993 1.285032459887557 0  -0.7279129157714981 1.236651377860605 0  -0.7932293925584066 1.183941633421435 0  -0.8541850382141248 1.128500905160132 0  -0.9085236522985168 1.071379852234247 0  -0.9617332160702218 1.010386590332181 0  -1.004143955942568 0.9574355743684378 0  -1.04870675117652 0.9029596919295511 0  -1.087609049516355 0.8412000790174009 0  -1.121236298915616 0.7830053622033464 0  -1.151354938590552 0.7272755822484737 0  -1.175590104384535 0.6672979239915736 0  -1.204216567197676 0.624363781619957 0  -1.221175357956933 0.5499434656070149 0  -1.222445277913429 0.5108958113537672 0  -1.263165423006335 0.4964501078731434 0  -1.278245499945347 0.4469471198340993 0  -1.2876880946002 0.4081386795350132 0  -1.296476246515788 0.370312720725234 0  -1.320672215801729 0.3470986839235823 0  -1.326766396057248 0.2975851561004784 0  -1.31066184968006 0.3252153062246722 0  -1.375389150154601 0.2868082184767556 0  -1.36880102467504 0.1917590975523301 0  -1.366954433783131 0.1668048215254932 0  -1.3697254260691 0.1337203872852354 0  -1.382307490380384 0.1159281062944408 0  -1.385403260509242 0.08399753047526061 0  -1.393491936980998 0.1069389363472146 0  -1.368848206097367 0.02540688532580148 0  -1.399442929556194 0.09441010265635295 0  -1.433485198972678 0.1545936401237092 0  -1.464853710208696 0.07984875887261456 0  -1.474687521974885 0.05200714870611207 0  -1.500527882627179 0.02626229664232891 0  -1.483958676508981 -0.0005951502893009261 0  -1.469988810148827 -0.03105332195560721 0  -1.53448430111917 -0.3416417245818217 0  -1.396018679762368 -0.04624146295199751 0  -1.35781751720243 0.2986657484420379 0  -1.437806809614033 -0.06370830373195656 0  -1.456970728188192 0.009054030104989645 0  -1.417981239476579 -0.1243536001159386 0  -1.388962100955489 -0.09035849353781152 0  -1.372606994826513 -0.1034115501292448 0  -1.379631817802243 -0.1263552467296407 0  -1.397044650291782 -0.2430484296360875 0  -1.311585995788862 -0.3410804670387992 0  -1.35892901525052 -0.2431467437971806 0  -1.355921716683502 -0.3014983650422222 0  -1.319322768928619 -0.3270940866616272 0  -1.324213801973076 -0.3660039534080736 0  -1.320648196270546 -0.4051784643861717 0  -1.354619873770799 -0.4472480858698762 0  -1.234008145589838 -0.4677175503656478 0  -1.204224405080919 -0.5004453116918207 0  -1.25081901424775 -0.6207038060596634 0  -1.196503181810557 -0.6379551471468969 0  -1.187063522966873 -0.7035583653905148 0  -1.159991768845837 -0.766968143651878 0  -1.14041751408336 -0.8309941482822178 0  -1.092773391662215 -0.9093883461635143 0  -1.029759792431031 -0.9353447381412662 0  -1.008544342567798 -1.009277794705826 0  -0.9531743119313125 -1.091753632144638 0  -0.89598524877824 -1.145893219322088 0  -0.8351060227644659 -1.214875722759343 0  -0.7681186969675388 -1.274203557271368 0  -0.6955985237098603 -1.331547683526649 0  -0.6158632610840157 -1.384257720782448 0  -0.5334241859525575 -1.432611353120867 0  -0.4475298175768828 -1.470165941859844 0  -0.3541079124866768 -1.505474867194597 0  -0.2598322379385696 -1.532670902005509 0  -0.1614688595530139 -1.550964172196187 0  -0.06193612833382328 -1.560739671081545 0  0.03847368044756166 -1.561511768636377 0  0.1384570366543194 -1.553209293847127 0  0.2370843166640842 -1.536174742188447 0  0.3330961011262252 -1.510627487213269 0  0.425950127387762 -1.477516750390125 0  0.5147563220148887 -1.437205231315908 0  0.5987670245602106 -1.390703355154785 0  0.6779600031625773 -1.338589442127465 0  0.7505161674222989 -1.282689534355988 0  0.820240529093624 -1.221301929120788 0  0.8798836746490118 -1.164316589386567 0  0.9369449897955349 -1.102728815614148 0  0.9904248846092257 -1.037087773000624 0  1.036918217933567 -0.9728559056701767 0  1.078936682898301 -0.9084593209990933 0  1.116850528731233 -0.8457042433319326 0  1.149199591097838 -0.7832233266796067 0  1.178938364753042 -0.7228716969558364 0  1.208560747534778 -0.6757170887520934 0  1.231080224100259 -0.6168204769315636 0  1.2544126274136 -0.5605632261536735 0  1.271197819618179 -0.5070759687906715 0  1.291562173581627 -0.4595610807107235 0  1.290205699803167 -0.403307194075472 0  1.312079484720105 -0.3757100629071966 0  1.3009897144081 -0.2976005976230073 0  1.284566364871137 -0.302992793592589 0  1.34456264315282 -0.2692322736044041 0  1.365216186382576 -0.2221062176770777 0  1.356629352659514 -0.1910150918200624 0  1.363633236821911 -0.161579018469267 0  1.373588378378071 -0.1341562506366564 0  1.372020367014668 -0.0997233818566363 0  1.261200291574526 0.2186358411506277 0  1.399107183153586 -0.06990458943847115 0  1.398164917758873 -0.07988077604475714 0  1.406715306085947 -0.05217405385380013 0  1.425776325453917 -0.03915778016892579 0  1.42574348595032 -0.01908596749018533 0  1.435532419531967 -0.008002573507959694 0  1.442701169412009 0.00757946864681752 0  1.462382783049275 0.01613953666551662 0  -0.097784879154392 0.8875560272295741 0  0.6902714361713617 -0.5039851177386766 0  -0.8035790888648253 -0.3886879569351321 0  -0.07195512656227673 -0.9473039374976303 0  0.6491594140494797 0.4987806823212745 0  1.086629453560446 0.1185599925342224 0  -0.7945249998091527 0.4032442810159038 0  -1.154775564995192 0.02545394600207765 0  1.097484498978689 -0.06031852366354333 0  -1.036678088746627 -0.1785134025884349 0  -0.7322636271255598 0.01200473737470067 0  -0.4380275192313923 -0.1418996747291502 0  -1.026994661798154 0.2068058371015827 0  0.383992856498839 -0.8324167134225143 0  0.08316761800787047 -0.3054773450091575 0  0.3054239657339887 0.7716242544781663 0  0.2173561805007723 0.1860048634863429 0  0.5600254242654894 0.01824161399738225 0  -0.4784381176308815 -0.7005404494470258 0  -0.5040667006941291 0.6922764307827723 0  -0.2411908367550784 0.3079787895339406 0  0.9163679209553253 -0.2093788972027479 0  0.8939225696660666 0.248601651822778 0  0.3515780189632713 -0.2148956134215176 0  -0.01251520617872909 0.2349264877262857 0  -0.4920165055567077 0.2094310261015445 0  -0.1874486758203391 -0.2813753950152954 0  0.8599050055121634 0.02440789013672491 0  1.245978089490113 0.03510764485441055 0  0.8035486874131116 -0.3373254959782321 0  0.7169992490208444 -0.1052779298159502 0  0.5841488917946498 -0.2067549591635435 0  0.4392970132503253 -0.07632019321414549 0  0.5134034228623412 -0.3704392774632355 0  0.8620022193326679 -0.08030112142971015 0  0.7122079698118761 0.02116524170926529 0  -0.8585825370329823 0.1201570707117722 0  -1.071634054336108 0.09760496954521902 0  -0.9477718306553462 0.01999669723719654 0  -0.8650785107814765 -0.0918666682763532 0  -1.074973349145876 -0.05531414132219937 0  -1.238782799049515 -0.08442893303321189 0  -1.311218073588146 0.0003060054782954144 0  -1.306987612484829 0.05580457939359434 0  -1.228404880699027 0.1369293642304311 0  -0.1272286685507353 -0.614853434656029 0  -0.2993042973025611 -0.5071935011686727 0  -0.2880743563248686 -0.8463886542461445 0  -0.3083630394117907 -0.2044004616365499 0  -0.4498175702033274 -0.4055677826550736 0  -1.22906898763823 -0.2022265686673405 0  -1.210740093266332 0.2419641992321032 0  0.3834396539170787 -0.5033167221411778 0  0.2151064931591142 -0.2470934283125649 0  0.2443620772024856 -0.562599342361806 0  -0.911133227139457 0.2895208016898246 0  -0.7271330350794243 0.1889426707242349 0  1.26784734000677 -0.07478533488546145 0  1.205072884984264 -0.1724292159240446 0  1.184317792898496 0.2296560799241837 0  1.259332624255213 0.1437489452937997 0  -0.9097665426778238 -0.6559627520621091 0  -1.043276458904435 -0.4488758162495056 0  -1.021086205786504 0.4732108262110936 0  -0.887055261561111 0.661658004533169 0  0.9431076167420533 -0.6012730141998855 0  0.7790244235515006 -0.8210754862193166 0  0.731085718551669 0.7948388204603488 0  0.8982695366696982 0.6088949971398224 0  0.049483960
[...]
<PointData  Vectors="f_22679"> 
<DataArray  type="Float64"  Name="f_22679"  NumberOfComponents="3" format="ascii">-2.8143214845251335e-01 -8.6543365338868482e-03 0.0000000000000000e+00  -2.5825204647483374e-01 -1.9181773635977473e-01 0.0000000000000000e+00  1.5733648611574796e-01 2.8961329994451773e-01 0.0000000000000000e+00  1.3166939862032623e-01 1.5137917633115117e-01 0.0000000000000000e+00  1.7449518363934888e-01 -6.5222792280304259e-03 0.0000000000000000e+00  1.2260165255012485e-02 -2.5119627302701963e-01 0.0000000000000000e+00  -6.4131069213076919e-01 -6.7423873945767909e-01 0.0000000000000000e+00  -2.0718075425501711e-01 9.4485986129518429e-01 0.0000000000000000e+00  1.5096292098069598e-02 8.0440663620659866e-02 0.0000000000000000e+00  -6.9988890292538825e-02 1.4617142530787816e-01 0.0000000000000000e+00  -3.1654306303240815e-01 3.3325549292307516e-01 0.0000000000000000e+00  1.1754725880985938e-02 8.0242296861350870e-02 0.0000000000000000e+00  2.4114878810269050e-01 1.8431168629739295e-01 0.0000000000000000e+00  -8.7692424070710179e-02 -1.4587587398298410e-01 0.0000000000000000e+00  -1.5004637695230391e-01 -1.0842067336434423e-01 0.0000000000000000e+00  -1.3475426512956293e-01 -6.0237123420764739e-02 0.0000000000000000e+00  1.5288627393844073e-01 1.1100956057721285e-01 0.0000000000000000e+00  6.7111736174430348e-01 4.6329963303729477e-01 0.0000000000000000e+00  4.6687945117258228e-01 6.3650231767212975e-02 0.0000000000000000e+00  -3.9354087048286940e-02 -8.6952199801571720e-02 0.0000000000000000e+00  1.2112089348989045e-02 -7.4761384375877978e-03 0.0000000000000000e+00  3.6666267881932245e-02 1.8445407908802541e-02 0.0000000000000000e+00  -3.6233972791304046e-02 -3.5474019279772419e-03 0.0000000000000000e+00  -2.4604141436262644e-01 -9.9240170356676025e-02 0.0000000000000000e+00  -3.7266746501344450e-01 -3.4497330024484474e-01 0.0000000000000000e+00  1.0458774653956544e+00 8.1233800938656775e-01 0.0000000000000000e+00  5.5788937997668309e-01 3.2466877936689187e-01 0.0000000000000000e+00  -5.4413468061771185e-02 -7.0693818358453370e-02 0.0000000000000000e+00  3.0156735083414234e-02 1.9648620874996022e-02 0.0000000000000000e+00  6.3352563420748256e-02 4.6699467285551140e-02 0.0000000000000000e+00  4.8651149992971689e-02 4.1684035246423883e-02 0.0000000000000000e+00  7.4315077835679644e-02 6.8500094587391383e-02 0.0000000000000000e+00  2.5931449692080531e-02 2.4528703044674780e-02 0.0000000000000000e+00  3.5116099065088432e-02 4.2071147588818157e-02 0.0000000000000000e+00  6.9933841228481453e-02 9.2158854373659227e-02 0.0000000000000000e+00  4.9073192604332114e-02 7.0427810663533055e-02 0.0000000000000000e+00  4.6055962380473235e-02 7.9941745388975749e-02 0.0000000000000000e+00  4.0857795073968341e-02 7.9879198024669931e-02 0.0000000000000000e+00  2.9507899010894584e-02 7.3025715779094433e-02 0.0000000000000000e+00  3.2411910919073264e-02 9.5092418368634607e-02 0.0000000000000000e+00  9.2171504491448640e-03 2.7484699081001603e-02 0.0000000000000000e+00  5.4038544526268583e-03 3.4283145988226155e-02 0.0000000000000000e+00  5.3675309768916818e-03 4.1540545807117107e-02 0.0000000000000000e+00  1.4219188899593411e-04 2.2161331642660088e-02 0.0000000000000000e+00  -6.1555245456418578e-04 1.8345878362107017e-02 0.0000000000000000e+00  -4.1938219671432729e-03 2.2047617237653878e-02 0.0000000000000000e+00  -1.3603119664704409e-03 6.2993139272085972e-03 0.0000000000000000e+00  -6.4579287581022328e-03 1.4688664049962444e-02 0.0000000000000000e+00  -8.1178581153220387e-03 1.6747242681368842e-02 0.0000000000000000e+00  -1.8738306624098134e-02 2.9075206181870095e-02 0.0000000000000000e+00  -2.4350687537938790e-02 3.4545831366793470e-02 0.0000000000000000e+00  -3.0923129303594660e-02 3.6525788394898569e-02 0.0000000000000000e+00  -3.8476169232143954e-02 4.1644668524046476e-02 0.0000000000000000e+00  -5.7817145456162351e-02 5.4099177585745950e-02 0.0000000000000000e+00  -4.5890324978750799e-02 4.0636236006628315e-02 0.0000000000000000e+00  -5.7317129217228327e-02 4.6904200193954595e-02 0.0000000000000000e+00  -2.9181070557244164e-02 2.4537854845935844e-02 0.0000000000000000e+00  6.1082058639610505e-02 -6.3150930987854514e-02 0.0000000000000000e+00  -1.1570104512729092e-01 6.7775710287615518e-02 0.0000000000000000e+00  -5.5622559090981218e-02 2.3396245667777427e-02 0.0000000000000000e+00  -6.6768848848044593e-01 3.0532646797437435e-01 0.0000000000000000e+00  -6.0954896279567805e-01 2.6169462168641044e-01 0.0000000000000000e+00  -4.0436560448096993e-02 -4.1130982770552932e-01 0.0000000000000000e+00  -1.9356157843222279e+00 -2.3887904120101749e-01 0.0000000000000000e+00  -2.4617728489846731e+00 1.0468573128340855e+00 0.0000000000000000e+00  -5.6873801706759841e-01 2.2641546038195884e-01 0.0000000000000000e+00  -2.3656407224480150e-01 2.9886611175214711e-01 0.0000000000000000e+00  -2.2469874112149529e-01 6.0397938727039226e-02 0.0000000000000000e+00  -8.8909621639595127e-01 5.6644451646912186e-01 0.0000000000000000e+00  2.6563274007528229e-02 1.3923430340294718e-01 0.0000000000000000e+00  1.7579788231352613e+00 8.9505367313037390e-02 0.0000000000000000e+00  1.9140274389378661e-01 8.1585187668847425e-02 0.0000000000000000e+00  -1.4664681858155762e-01 9.3541167420771662e-02 0.0000000000000000e+00  1.0168876738532583e-01 1.5019586577396435e-01 0.0000000000000000e+00  1.0175047197262091e-01 -1.6385743349202408e-01 0.0000000000000000e+00  4.6811264860520363e-01 -1.8828311270862191e-01 0.0000000000000000e+00  1.2985162939894739e+00 -1.3086221941420179e-01 0.0000000000000000e+00  2.0183775031165592e+00 1.8636442328486666e-01 0.0000000000000000e+00  -7.4385855441068016e-01 -2.4288900133333854e-01 0.0000000000000000e+00  1.5903972953592543e-01 1.9306724871206677e-02 0.0000000000000000e+00  4.1290146496928096e-02 2.7960827722928142e-02 0.0000000000000000e+00  -1.8550528655204609e-01 1.1182914621443142e-02 0.0000000000000000e+00  -5.2619359299406969e-02 -2.2426706114648753e-02 0.0000000000000000e+00  -1.0922912014989825e-01 -3.9262148637219024e-02 0.0000000000000000e+00  -5.6651316450176381e-01 -5.9023330388705698e-02 0.0000000000000000e+00  -3.0606661239770905e-01 -1.3852283695997414e-01 0.0000000000000000e+00  -1.4902980604596463e-03 -2.1042792131081380e-02 0.0000000000000000e+00  -2.7738763887008612e-02 5.1853250452331091e-03 0.0000000000000000e+00  1.3065886851855198e-02 -5.6296325395319624e-03 0.0000000000000000e+00  -9.6363718855331446e-03 4.9583035383066699e-03 0.0000000000000000e+00  -1.6290856756158198e-01 2.5425733148799100e-02 0.0000000000000000e+00  -1.1529969392690263e-01 -4.0515568712002521e-02 0.0000000000000000e+00  -3.5897223244453141e-01 -1.9297441865247258e-01 0.0000000000000000e+00  1.9214793141532793e-01 -1.6406533665758203e+00 0.0000000000000000e+00  6.5658345775723292e-01 3.9163315225651185e-01 0.0000000000000000e+00  -1.3300933361841060e-02 6.6898009266418451e-02 0.0000000000000000e+00  2.5039298822887700e-02 2.1747158899417290e-02 0.0000000000000000e+00  6.7767393913308507e-02 4.3754657910923388e-02 0.0000000000000000e+00  5.8418928174791100e-02 4.3133541326084192e-02 0.0000000000000000e+00  3.6880238989918401e-01 1.6023484852862077e-01 0.0000000000000000e+00  2.0292460793967488e+00 6.4914340305707052e-01 0.0000000000000000e+00  3.0569182490843332e+00 -5.4261944014822350e-01 0.0000000000000000e+00  5.7804462485638020e+00 -2.9748046077370431e+00 0.0000000000000000e+00  4.1647760445138715e-01 -1.0342144776649900e+00 0.0000000000000000e+00  2.0113139484345504e+00 1.3098281883950582e+00 0.0000000000000000e+00  1.6072697849830583e-01 -1.2621534975993989e-02 0.0000000000000000e+00  -3.5208029799664486e-01 -2.7736967484568165e-01 0.0000000000000000e+00  2.1460383261962146e-02 2.4155620758746574e-01 0.0000000000000000e+00  -1.1871384926652584e-01 4.2825332226205909e-02 0.0000000000000000e+00  1.2866100838469851e-02 6.0609822800713101e-02 0.0000000000000000e+00  1.3610288287807232e-01 2.2933431348223024e-01 0.0000000000000000e+00  6.3498516280110728e-01 7.4880760850988548e-01 0.0000000000000000e+00  3.7361889192961137e-03 6.2840209541382322e-02 0.0000000000000000e+00  -3.9955844806155755e-01 -1.2607713721378186e-01 0.0000000000000000e+00  -7.9566385745482096e-02 -6.9220092062858892e-03 0.0000000000000000e+00  -9.4371992860973874e-03 1.3515064297290294e-03 0.0000000000000000e+00  -3.6124679837781073e-02 -3.0830243670101853e-02 0.0000000000000000e+00  -2.0400814256611600e-02 -1.8121939509004016e-02 0.0000000000000000e+00  -1.0782971181151164e-02 -1.0913335601291180e-02 0.0000000000000000e+00  -4.4364060651834250e-03 -6.0862637737411776e-04 0.0000000000000000e+00  5.1925723734470956e-03 9.3769397503652673e-03 0.0000000000000000e+00  -5.2926846628759102e-03 -7.1093980866650348e-03 0.0000000000000000e+00  1.1355800683028288e-02 3.8269225485917442e-02 0.0000000000000000e+00  4.1776681034759013e-03 1.5625225766716638e-02 0.0000000000000000e+00  1.9519918049924127e-03 1.2615624572579693e-02 0.0000000000000000e+00  2.2204187040143282e-03 1.5779009455049359e-02 0.0000000000000000e+00  2.0841802992665748e-03 -2.9749492005240962e-03 0.0000000000000000e+00  4.1856201577353943e-03 -7.9068576151606271e-03 0.0000000000000000e+00  1.4831532226629756e-02 -4.8773327476703245e-02 0.0000000000000000e+00  2.7641952585448964e-02 -7.6315744097181754e-02 0.0000000000000000e+00  3.9961465856471076e-02 -8.7165084413834040e-02 0.0000000000000000e+00  5.7757780606436417e-02 -1.0507414247803117e-01 0.0000000000000000e+00  7.5252418904708115e-02 -1.1568737795822649e-01 0.0000000000000000e+00  8.9021304906148069e-02 -1.1665006348567315e-01 0.0000000000000000e+00  1.2070567876427034e-01 -1.4166493775840300e-01 0.0000000000000000e+00  6.4743711362756418e-02 -6.9130949177236806e-02 0.0000000000000000e+00  6.1862553026367742e-02 -5.4129640404940678e-02 0.0000000000000000e+00  1.4244819150986918e-01 -1.1555599880492114e-01 0.0000000000000000e+00  1.3648395882819730e-01 -1.0059102470067920e-01 0.0000000000000000e+00  1.3965811148721918e-01 -9.2452454943080256e-02 0.0000000000000000e+00  8.6079910917914504e-02 -5.2796686718998967e-02 0.0000000000000000e+00  6.0304842014190153e-02 -2.5579061258233303e-02 0.0000000000000000e+00  2.3695866495176995e-01 -1.2997524185276371e-01 0.0000000000000000e+00  8.3445919482195074e-01 -4.7483478783309324e-01 0.0000000000000000e+00  1.5362111460706579e-01 -3.3257351643660171e-02 0.0000000000000000e+00  3.5721461179704442e-02 -3.2342916717252951e-02 0.0000000000000000e+00  5.4028442749747063e-01 -2.0900971394849352e-01 0.0000000000000000e+00  1.7788357465798745e+00 -5.5032124939676919e-01 0.0000000000000000e+00  4.3394200444838464e+00 -6.9889570375354559e-01 0.0000000000000000e+00  2.0200016704596604e+00 -7.5880117340057784e-01 0.0000000000000000e+00  -3.0589122337747310e+00 -1.4243354118951692e+00 0.0000000000000000e+00  -1.1185583149746465e+01 -6.3700405701661067e+00 0.0000000000000000e+00  -1.0942303722201570e+00 -2.4207395213741356e-01 0.0000000000000000e+00  -2.0712557638747262e-01 1.8411181555491715e-01 0.0000000000000000e+00  1.2425649119898823e+00 -1.3862603840751472e-01 0.0000000000000000e+00  -8.2369757977332392e-01 -8.2462818898239379e-02 0.0000000000000000e+00  8.7125990802969544e-01 -1.5602621046483636e-01 0.0000000000000000e+00  7.2977773635334853e-01 -6.3816271897135929e-02 0.0000000000000000e+00  6.2314203961646893e-02 2.4113869181368385e-02 0.0000000000000000e+00  2.1729282926894068e-02 2.0195015746946550e-02 0.0000000000000000e+00  6.1700908262887842e-02 3.1930993649054482e-02 0.0000000000000000e+00  2.4913124447920603e+00 -2.2136822734396958e-01 0.0000000000000000e+00  5.7906066410024892e-01 -6.8863726688315058e-03 0.0000000000000000e+00  3.3459049409839531e-01 -2.9217762092186089e-01 0.0000000000000000e+00  -1.9345282580817878e-02 3.2576691547567087e-02 0.0000000000000000e+00  -3.9925809279502726e-02 1.3373092013449253e-01 0.0000000000000000e+00  -1.3483453500705020e-01 1.8998976621842578e-01 0.0000000000000000e+00  -2.0942006404149915e-01 1.7950083830227082e-01 0.0000000000000000e+00  4.8757799404227162e-05 5.4986714259966160e-06 0.0000000000000000e+00  1.3419751668600005e-05 1.3589716998592844e-05 0.0000000000000000e+00  5.7193919920116759e-06 -1.0325678655282138e-05 0.0000000000000000e+00  5.7196092964628738e-05 -1.6739638780754681e-06 0.0000000000000000e+00  9.8232338155225098e-06 -1.5063487661302203e-05 0.0000000000000000e+00  1.6247532413357158e-08 -2.4930602712186441e-06 0.0000000000000000e+00  -6.3893752196106203e-06 -2.1432744279594696e-05 0.0000000000000000e+00  -3.9171716637800434e-08 -8.4641885997053710e-08 0.0000000000000000e+00  1.4501839017009808e-06 1.1286083522330545e-05 0.0000000000000000e+00  -9.4017104494139529e-07 8.7152790305246249e-06 0.0000000000000000e+00  2.1579317630431252e-06 -1.7646860777412639e-05 0.0000000000000000e+00  4.3422215786942614e-05 -1.0086347379127111e-04 0.0000000000000000e+00  4.0813718341863020e-07 -1.5457901713476454e-05 0.0000000000000000e+00  -9.3030226386451112e-06 -2.9425433390659051e-06 0.0000000000000000e+00  -1.3035177069825807e-04 5.6287863044372864e-06 0.0000000000000000e+00  -8.6847546653817438e-06 3.7839649047827062e-06 0.0000000000000000e+00  -5.2336069679008489e-07 1.5399630844880978e-05 0.0000000000000000e+00  -7.8792105408305078e-07 -1.2233331460076884e-05 0.0000000000000000e+00  7.0452645967423549e-05 -3.6853136405000367e-05 0.0000000000000000e+00  2.6880759707767114e-05 1.7366370250912973e-05 0.0000000000000000e+00  -4.2678864345301536e-05 9.5800677972582884e-05 0.0000000000000000e+00  1.0096665571100627e-05 3.0285030905278000e-05 0.0000000000000000e+00  1.2007425438062975e-06 -1.7252776330396334e-05 0.0000000000000000e+00  -4.5852314391437086e-05 -6.3161617251659399e-05 0.0000000000000000e+00  -4.5150308052628379e-04 2.1983119278561731e-04 0.0000000000000000e+00  3.7770465452316730e-06 1.5258984845333400e-05 0.0000000000000000e+00  2.1444180703023848e-04 -1.5535966492584874e-04 0.0000000000000000e+00  3.9610168522465387e-07 2.3252776044059906e-06 0.0000000000000000e+00  -1.2916217116198538e-07 1.8082734681450849e-06 0.0000000000000000e+00  1.7188890260357064e-05 3.0103128910022996e-05 0.0000000000000000e+00  7.3313082369141978e-07 1.4131886506583458e-05 0.0000000000000000e+00  -4.4267005862281650e-06 -8.2812888801836470e-06 0.0000000000000000e+00  -1.3933965651876797e-05 -3.4489746313457677e-05 0.0000000000000000e+00  -2.9606056806861895e-05 -3.7865588561511056e-05 0.0000000000000000e+00  2.2050510793824264e-06 1.0478810225742892e-05 0.0000000000000000e+00  6.0592147674976812e-07 3.8997348094718529e-07 0.0000000000000000e+00  2.6791790752246121e-07 -1.5951572186918421e-05 0.0000000000000000e+00  3.6342420616664327e-07 -9.1171703339587138e-06 0.0000000000000000e+00  5.6364075163733057e-07 -5.5263466121198526e-06 0.0000000000000000e+00  5.1125480275859999e-07 -1.3297018772317093e-06 0.0000000000000000e+00  -1.0243787182007231e-06 6.2480604225248074e-06 0.0000000000000000e+00  -1.4784275362005698e-05 1.5844135877682938e-05 0.0000000000000000e+00  -7.2632306584647926e-06 -3.4566055738493198e-06 0.0000000000000000e+00  -9.4267889099441813e-07 1.2492621327382971e-05 0.0000000000000000e+00  -1.8557779654701157e-06 -1.1115674553066905e-05 0.0000000000000000e+00  1.5257344184446616e-04 -2.3812108178262892e-05 0.0000000000000000e+00  1.5138017065426709e-04 -7.7346835085527558e-05 0.0000000000000000e+00  9.0411627480104509e-05 -1.9571005773592616e-05 0.0000000000000000e+00  8.9210639824472004e-05 -1.3477280329595297e-04 0.0000000000000000e+00  8.3625185449314637e-05 -7.8748629696799843e-05 0.0000000000000000e+00  -3.5665781723885864e-06 2.0015699283245029e-05 0.0000000000000000e+00  -6.6452098312880210e-07 -2.6680118333721398e-05 0.0000000000000000e+00  -6.5090853146959100e-05 -4.4790412852959539e-05 0.0000000000000000e+00  -2.0062666621202383e-04 -1.9181493068676754e-04 0.0000000000000000e+00  -6.2788777964214109e-05 -1.9667024359188237e-05 0.0000000000000000e+00  -1.6245049826492329e-06 -2.3698246962754387e-05 0.0000000000000000e+00  -2.2750872559280361e-06 -1.8608339724530532e-05 0.0000000000000000e+00  7.3230775402826130e-06 1.1825151353042549e-05 0.0000000000000000e+00  -3.2360615950014323e-06 2.9821640527924643e-05 0.0000000000000000e+00  -2.6733275109508236e-06 -9.2269095323656040e-06 0.0000000000000000e+00  2.1083301998119760e-05 -7.4640333873098931e-06 0.0000000000000000e+00  -1.6187215389040343e-05 1.2141040191800156e-05 0.0000000000000000e+00  -4.0460761527366993e-06 -6.7770931210023639e-08 0.0000000000000000e+00  1.7851886420050191e-06 -2.3229642512581656e-05 0.0000000000000000e+00  -2.4204972630213193e-05 -3.0874013139051190e-05 0.0000000000000000e+00  4.8315650117707214e-05 5.6859827037649843e-05 0.0000000000000000e+00  6.4017879809200612e-05 4.1541653832415260e-05 0.0000000000000000e+00  3.9277271768995895e-05 -3.2711646516550771e-05 0.0000000000000000e+00  2.0264861531412167e-05 -3.5160677444296524e-05 0.0000000000000000e+00  3.0090822990041437e-05 -2.5727862195564746e-07 0.0000000000000000e+00  1.3927936851957547e-05 5.1121067993399757e-07 0.0000000000000000e+00  1.7296528366034368e-05 2.3181966921752227e-06 0.0000000000000000e+00  2.6947193274971397e-05 1.0295564871703566e-06 0.0000000000000000e+00  -2.7522525043305042e-06 -2.9523176719159483e-06 0.0000000000000000e+00  1.7082894047538283e-06 -5.6519647292458476e-07 0.0000000000000000e+00  3.0313431305467611e-06 -1.1471023575559876e-05 0.0000000000000000e+00  -7.1228190608121995e-06 1.6301478855744945e-05 0.0000000000000000e+00  2.6668419641020686e-05 -4.7488591309052602e-05 0.0000000000000000e+00  1.3326061748957416e-05 -4.8817774427097737e-05 0.0000000000000000e+00  5.8546344554244516e-06 -1.6782044462019207e-05 0.0000000000000000e+00  8.5152421530518919e-05 2.4008356151792524e-05 0.0000000000000000e+00  6.2731326799333174e-04 -6.5069762312220626e-03 0.0000000000000000e+00  8.2796096828635223e-04 -2.6441871688860502e-03 0.0000000000000000e+00  5.1839788192622907e-07 2.6176072987075979e-06 0.0000000000000000e+00  3.9794430083725976e-06 -1.7208774396044118e-05 0.0000000000000000e+00  -5.4668044953553479e-07 2.1113248300777196e-06 0.0000000000000000e+00  1.7136358329257820e-07 -1.3653536044240110e-05 0.0000000000000000e+00  6.3641690473473776e-06 -2.2225390702296692e-05 0.0000000000000000e+00  -1.1389054298506848e-07 -4.2470849951230699e-06 0.0000000000000000e+00  -4.5577251792355426e-05 4.0093781282338531e-05 0.0000000000000000e+00  -1.0036807383125048e-06 1.2865605179854004e-06 0.0000000000000000e+00  4.8703005227864783e-06 1.5011703494416362e-06 0.0000000000000000e+00  7.4468552985934068e-06 1.0421131439940868e-06 0.0000000000000000e+00  7.4177700938744226e-05 6.8976854608678527e-05 0.0000000000000000e+00  1.1111945461263120e-04 3.6945143410413705e-05 0.0000000000000000e+00  5.4935202152071140e-05 2.2733289634440977e-05 0.0000000000000000e+00  -4.3001262076536915e-05 -1.8773872440345561e-04 0.0000000000000000e+00  8.3253370244342493e-05 -9.5775550174810641e-06 0.0000000000000000e+00  6.0800632824852945e-05 2.2810300023512633e-05 0.0000000000000000e+00  4.9859943864453939e-05 1.1613919675474995e-05 0.0000000000000000e+00  3.8209757795709917e-05 -8.7676411064529792e-06 0.0000000000000000e+00  4.3320604759366458e-05 -1.9701765231635474e-05 0.0000000000000000e+00  -5.7406691763066831e-04 -7.0846997251915005e-04 0.0000000000000000e+00  -3.3663617372029576e-05 1.3084576215378863e-05 0.0000000000000000e+00  1.3785917885687566e-05 -2.2040812223637054e-06 0.0000000000000000e+00  -1.7226584926237180e-05 -4.0952295856354359e-06 0.0000000000000000e+00  -2.0402867524689833e-05 9.3788897916528380e-06 0.0000000000000000e+00  3.0764403717162937e-05 -3.0534512661093457e-05 0.0000000000000000e+00  -2.6070919679268653e-05 -1.9601007098922921e-05 0.0000000000000000e+00  -1.6384846907006815e-05 -6.0366388807090322e-06 0.0000000000000000e+00  -2.3577101063759474e-06 -3.3303143482094332e-06 0.0000000000000000e+00  1.7389095768763856e-06 -6.7192321271138100e-06 0.0000000000000000e+00  -4.0451687712497216e-06 -1