<?xml version="1.0"?>
<VTKFile type="UnstructuredGrid"  version="0.1"  >
<UnstructuredGrid>
<Piece  NumberOfPoints="2549" NumberOfCells="4928">
<Points>
<DataArray  type="Float64"  NumberOfComponents="3"  format="ascii">1.458509079990612 0.03143000708902839 0  1.454634002390291 0.05412674631926453 0  1.429139422520212 0.06444674873262057 0  1.419386833781671 0.07867326097193666 0  1.405171321084276 0.08998205159933798 0  1.396690194592658 0.1048219544234799 0  1.384611071530005 0.1188204624954284 0  1.381322671068553 0.1405617655392706 0  1.35082292302303 0.1465795939249886 0  1.334391371560219 0.130627922975434 0  1.347631780775445 0.1773586755325317 0  1.335898780304777 0.1958083429094395 0  1.330689156191281 0.2260342906431311 0  1.321537246392855 0.2543228694488306 0  1.31154196261118 0.28347047264261 0  1.302290592886836 0.3199328057297859 0  1.276759398058738 0.3381041187196006 0  1.268031464571056 0.3456493105924827 0  1.264968216369901 0.4062711492220431 0  1.249590934779304 0.4426950486020365 0  1.235357542344352 0.4889783881811968 0  1.217892862278083 0.5340541317219829 0  1.198922183808428 0.5820583233791247 0  1.178191852595669 0.6348157403776308 0  1.150057803705668 0.6864165103391837 0  1.122534223057242 0.7285518188398183 0  1.093774572171069 0.7837733761441311 0  1.060535926723662 0.8389291374970447 0  1.023556958614806 0.895194739484734 0  0.9825327352719301 0.9520777254327015 0  0.9372719299018146 1.008916600371027 0  0.887693965835849 1.066574472950712 0  0.8320278959645462 1.120843780287254 0  0.7739502729213144 1.172254322282864 0  0.7101943618831956 1.226241322280441 0  0.6413724487679378 1.275284808657413 0  0.5678056578931652 1.32127344796757 0  0.4897111536469575 1.362873055640055 0  0.407423055670126 1.399376755376966 0  0.3215075259892153 1.431197752990301 0  0.2317154271812897 1.45513109200591 0  0.1407632117086036 1.472111560613651 0  0.04738679384580201 1.48384302414176 0  -0.04669994919874453 1.486842204781222 0  -0.1406973597810524 1.482458971675291 0  -0.2336608493793396 1.470064452625574 0  -0.3246850989525529 1.45048590745971 0  -0.4129272996237381 1.422106141262271 0  -0.4967984983466259 1.390170268844904 0  -0.5784588257830346 1.351420787027134 0  -0.6544660114327662 1.305225727804033 0  -0.7256163814181757 1.255361639780313 0  -0.7915751192935838 1.201670543660755 0  -0.852166290328307 1.144602087432109 0  -0.9075772782386942 1.086723271710902 0  -0.9568545266800083 1.022271667343333 0  -1.000195859266912 0.9705783479116914 0  -1.044963615292188 0.9137906041344261 0  -1.081092873062606 0.8514468005838816 0  -1.113552347719952 0.7927370288667441 0  -1.142554783153988 0.7360392258657494 0  -1.167484090624288 0.6784601444134308 0  -1.19098541049971 0.6294443231282925 0  -1.206064608308794 0.5606480315282398 0  -1.217652208689104 0.5298885313237532 0  -1.243258447665357 0.5015767233538063 0  -1.257739733296543 0.4576019094514965 0  -1.272037818891106 0.4212050016366319 0  -1.283863489219398 0.3839950244964855 0  -1.29806039003866 0.3573485245778533 0  -1.303310670849927 0.3158207280928461 0  -1.334428328696499 0.3347719714512369 0  -1.362342516981824 0.2854913421290649 0  -1.335181237245013 0.2067763558648133 0  -1.341397697897668 0.1832210397098507 0  -1.337409841902482 0.1523689436577526 0  -1.34490713023943 0.1344740778652697 0  -1.337610070809896 0.107512707585905 0  -1.363002021183997 0.1104155198863371 0  -1.311226164668401 0.05972582315131833 0  -1.374501819886564 0.1234014992844837 0  -1.458646991719172 0.1187815731114417 0  -1.419719146950452 0.08693970520524837 0  -1.447601300979239 0.07104331533087717 0  -1.435106130707788 0.0524257813286367 0  -1.451391144408203 0.0336164362594629 0  -1.424169485097266 0.01724709156628797 0  -1.469871315702373 -0.01631483417055984 0  -1.381491402267963 -0.02041215489550277 0  -1.316670001818957 0.04890119985625313 0  -1.377869415505299 -0.008100785958666701 0  -1.353025073037718 -0.00495660182117974 0  -1.364513590652758 -0.03502745766804 0  -1.359379991665484 -0.05488263184259606 0  -1.366162908203795 -0.08830376529279071 0  -1.361130491438786 -0.1124542831874621 0  -1.393714876180318 -0.1951296529311178 0  -1.370080012386073 -0.2557308979923182 0  -1.338043031641747 -0.2334133078194776 0  -1.335364801179797 -0.278986337542144 0  -1.322587564286161 -0.3068793176697089 0  -1.312808890297433 -0.3465703747503822 0  -1.300245253867513 -0.3848225838594567 0  -1.287613547126149 -0.430948141587331 0  -1.263589874327887 -0.4585548595585465 0  -1.255973597303486 -0.4916329175124253 0  -1.244134606525879 -0.5686401191960114 0  -1.222853278826096 -0.6209466514947461 0  -1.200506401519126 -0.6838310935856536 0  -1.173930849478393 -0.7456199789589529 0  -1.143622851218376 -0.8096308062885231 0  -1.108918601606008 -0.8761095587312362 0  -1.067612663575702 -0.9347638660698394 0  -1.028400895954614 -0.9982692167563778 0  -0.9801174562575379 -1.077010757818193 0  -0.9250782584764519 -1.14302492913826 0  -0.8645677476515043 -1.210773242567266 0  -0.7979902389595022 -1.274518862569771 0  -0.7255086559568388 -1.334846149590892 0  -0.6474195550309134 -1.392575871791738 0  -0.5617909472548096 -1.441084486507334 0  -0.4744613444391335 -1.481714781930012 0  -0.3811949215543299 -1.520797833391509 0  -0.2840243997630393 -1.549389941522514 0  -0.1839465457604149 -1.569896736812943 0  -0.08196092493937525 -1.581042995577691 0  0.02081051354811844 -1.583050069647082 0  0.1233315793324731 -1.575506747615856 0  0.224421610176138 -1.558856893933285 0  0.3228627113844813 -1.533322983501322 0  0.4180183124447271 -1.499951229670048 0  0.5088921065507701 -1.458966032914932 0  0.5948339064346106 -1.411568308679015 0  0.6753031862896882 -1.35822294065017 0  0.7500100605396527 -1.301312085315824 0  0.8183253103539289 -1.236701896618273 0  0.8790671038708723 -1.179535983428968 0  0.9390778224779811 -1.117245297590756 0  0.9904080193712268 -1.04911406230183 0  1.036691650267662 -0.983231758016365 0  1.078018752333048 -0.9176277709009131 0  1.114663439723202 -0.8531858162877358 0  1.14702931463714 -0.7902850680199981 0  1.174532981678026 -0.7282415547864213 0  1.200582128221126 -0.6794984933710526 0  1.226689322775215 -0.6215013841062097 0  1.245440548523697 -0.5633888995543188 0  1.262238170036971 -0.5103255129531661 0  1.277526039237693 -0.4607645235789047 0  1.289429150279055 -0.4101211707567171 0  1.302724853123929 -0.370369899659586 0  1.303018371877686 -0.3047997193365862 0  1.309160471994544 -0.2952751694675633 0  1.333156299861354 -0.2755816672170245 0  1.34041816782204 -0.2365848431616109 0  1.348452261848222 -0.2051792838519107 0  1.355529434339298 -0.1745824262720268 0  1.358512489516063 -0.1420640960809702 0  1.368394211706677 -0.1219852484021541 0  1.352058773118997 -0.07220321881063219 0  1.366870356450874 -0.08817998549589984 0  1.395969903378583 -0.08105748755542541 0  1.396745126549801 -0.0576569233004437 0  1.406444390963767 -0.04238323071536429 0  1.412454721006228 -0.02649841893267119 0  1.423292818640227 -0.01415788844562163 0  1.432571354417414 -0.0003038635284195179 0  1.451290826650335 0.01136773923426724 0  -0.09043155183238721 0.9077004220054459 0  0.6799304680592427 -0.5204572137312403 0  -0.7971063568533736 -0.380085239929528 0  -0.08666979974257591 -0.9677706114745268 0  0.6474158390746678 0.5004482037224851 0  1.070999342944522 0.1086980012940074 0  -0.7785298667486494 0.4164878487670988 0  -1.128891320643269 0.04036288037126484 0  1.082023201217733 -0.06879187306819909 0  -1.019431217010676 -0.1638797921098793 0  -0.7149812947686741 0.02222241195676389 0  -0.4278357891337883 -0.1395589934808107 0  -1.005147267856705 0.2203193179128973 0  0.3735228684078599 -0.8553259195040286 0  0.08090092367585551 -0.3275999746274317 0  0.3104124803565005 0.7848612387392599 0  0.2253734733039574 0.1925453924051599 0  0.5539706805082052 0.01040643011364737 0  -0.4873856781637807 -0.7066372129538867 0  -0.4950648435793739 0.7104504606261866 0  -0.2330908867592789 0.3215445141789405 0  0.9026030872262664 -0.2190309809337131 0  0.88335349300351 0.241621204459516 0  0.3470711237328966 -0.233903919823639 0  -0.006375915174958426 0.2500933569918894 0  -0.4779390327350674 0.2205819813575099 0  -0.1854676229938936 -0.2895157405686153 0  0.8470934416253925 0.0159245412418814 0  1.230004545085443 0.02499981043260673 0  0.7916286724650656 -0.3499018197213181 0  0.7060348678168451 -0.116046800006252 0  0.5750242796462777 -0.2216771496521087 0  0.4360191211127212 -0.08883934475560532 0  0.5032958247015789 -0.3901915327376925 0  0.8487433022726827 -0.08964286600063068 0  0.7021587999314954 0.01302633203507406 0  -0.8387498346161325 0.1323489009030652 0  -1.047727657844627 0.1117448223257846 0  -0.9269627315172654 0.03290876801901087 0  -0.8476174081419439 -0.08025550929476309 0  -1.053222563790339 -0.04089078520049627 0  -1.215494496433596 -0.06916055167455232 0  -1.277566514686067 0.01688718912589457 0  -1.272030504768427 0.07444502441993539 0  -1.200170728229168 0.1531617443420477 0  -0.1379786329734147 -0.6324745062392956 0  -0.3038492104277482 -0.5171567894267974 0  -0.3018573604527976 -0.8606863425967479 0  -0.3017749449747782 -0.2069462735899764 0  -0.4481932645381381 -0.4084555282418314 0  -1.211547298026348 -0.1844128998846289 0  -1.187582357374475 0.2570549162726533 0  0.3718707695692198 -0.5270678113354246 0  0.2125673308481739 -0.2671518094637983 0  0.2312393299119476 -0.5877896306335284 0  -0.8920531554093798 0.3022837350687139 0  -0.7094268864381914 0.2007008597448077 0  1.251726248576107 -0.08360542476050967 0  1.189446752429496 -0.1789273858771636 0  1.168259186948081 0.2190347093548435 0  1.237557236396135 0.1319442006160128 0  -0.9150972802007614 -0.6449159113304179 0  -1.037610469555411 -0.4332552431236094 0  -1.004661794196037 0.4851912988186672 0  -0.8758387036598175 0.6750216875990164 0  0.9347923120977876 -0.6118269673854966 0  0.7735377527989727 -0.8360000791068197 0  0.7383994806109537 0.794730053778832 0  0.8991237479986465 0.6032662719370522 0  
[...]
<PointData  Vectors="f_5128"> 
<DataArray  type="Float64"  Name="f_5128"  NumberOfComponents="3" format="ascii">3.5215556402613847e-02 1.5705801076740052e-03 0.0000000000000000e+00  8.0233504720273935e-02 5.9708370729375161e-02 0.0000000000000000e+00  1.5466689435915359e-01 1.8238806583995554e-01 0.0000000000000000e+00  -9.9586384717692669e-02 -9.9750251138922205e-02 0.0000000000000000e+00  -6.8724581984393088e-02 -4.5128173692304666e-02 0.0000000000000000e+00  -5.8828006692666102e-01 -4.4045072125343171e-01 0.0000000000000000e+00  -3.3104288815072365e+00 -8.0620451406501725e-01 0.0000000000000000e+00  -4.3657285801478513e-01 7.7753123700967475e-01 0.0000000000000000e+00  -3.2337580106253747e+00 1.1218688884241923e+01 0.0000000000000000e+00  1.6127718379445313e+00 -6.3725988694012203e-01 0.0000000000000000e+00  2.6163078425628785e+00 1.1472725694788267e-01 0.0000000000000000e+00  1.7939504274109914e+00 6.3946146385279934e-01 0.0000000000000000e+00  7.6772402602882839e-01 2.0093192737079246e-01 0.0000000000000000e+00  1.6377046153520738e-01 5.0487062159328550e-02 0.0000000000000000e+00  -1.5749723687221898e-01 -1.5909839815935623e-02 0.0000000000000000e+00  1.5756037911092582e+00 1.0652899052189149e+00 0.0000000000000000e+00  1.9648427773487862e+00 2.3083422751847813e+00 0.0000000000000000e+00  -2.2083503067110954e+00 -1.0180480668816887e+00 0.0000000000000000e+00  4.2656528243520830e-01 8.7931664278059277e-02 0.0000000000000000e+00  5.2314406272442604e-01 1.8068165101105643e-01 0.0000000000000000e+00  2.6110929670502026e-01 9.1892672197566486e-02 0.0000000000000000e+00  4.1494099874467269e-02 1.5894412287772188e-02 0.0000000000000000e+00  -2.1083832861418434e-03 5.3480676799302131e-05 0.0000000000000000e+00  1.8615584839949917e-01 8.5378864631495716e-02 0.0000000000000000e+00  -2.5365726133757838e-01 -1.4885771653103114e-01 0.0000000000000000e+00  -2.6370426685446732e-03 -1.4801231008634782e-03 0.0000000000000000e+00  1.6345230837407340e-01 9.2697054039838467e-02 0.0000000000000000e+00  1.5606388654536922e-02 9.5169217029721122e-03 0.0000000000000000e+00  6.0590110986450091e-02 4.1875022991931687e-02 0.0000000000000000e+00  3.4151272181418071e-02 2.5800191217061137e-02 0.0000000000000000e+00  5.5116113708752155e-02 4.6229258244948918e-02 0.0000000000000000e+00  7.1773662613801248e-02 6.6897012505333253e-02 0.0000000000000000e+00  6.5554852446169645e-03 7.0482914712668137e-03 0.0000000000000000e+00  2.4169521883200804e-02 2.8340729798564720e-02 0.0000000000000000e+00  5.5072666684629130e-02 7.0822907123575640e-02 0.0000000000000000e+00  2.5685911038712227e-02 3.8573469716868349e-02 0.0000000000000000e+00  3.1337512062405745e-02 5.4162116568645710e-02 0.0000000000000000e+00  1.8201301364088249e-02 3.7226297062482171e-02 0.0000000000000000e+00  1.7453232418607949e-02 4.3281434813679347e-02 0.0000000000000000e+00  1.3999807930911419e-02 4.3505384501391131e-02 0.0000000000000000e+00  3.6376994635330044e-03 1.5919139222746244e-02 0.0000000000000000e+00  2.8654213932493991e-03 1.8487670911464679e-02 0.0000000000000000e+00  1.4484968473600327e-03 1.7754994905078932e-02 0.0000000000000000e+00  -8.5940662504544463e-05 1.1839644203277020e-02 0.0000000000000000e+00  -9.5230761221462210e-04 1.0734469490885757e-02 0.0000000000000000e+00  -1.2635336447779232e-03 7.5666357881961502e-03 0.0000000000000000e+00  -3.1383762050384775e-03 1.1372362367981420e-02 0.0000000000000000e+00  -4.1660521069285666e-03 1.2131278331806198e-02 0.0000000000000000e+00  1.8831961556353147e-03 -4.2557975388887804e-03 0.0000000000000000e+00  -1.6137605168059670e-02 2.9241854844525430e-02 0.0000000000000000e+00  -2.6254099747724555e-02 4.0564794898530009e-02 0.0000000000000000e+00  -1.3522123425805414e-02 1.7806752276336404e-02 0.0000000000000000e+00  -4.8907561760861008e-02 5.5673345732815599e-02 0.0000000000000000e+00  -1.0066013018012410e-02 1.0407735543230467e-02 0.0000000000000000e+00  -1.1414170551172810e-01 9.8034459015104936e-02 0.0000000000000000e+00  7.7397477519232871e-02 -6.1964478289700906e-02 0.0000000000000000e+00  4.6505706330715400e-02 -3.6551643567285519e-02 0.0000000000000000e+00  -8.7441127312209377e-02 5.7533334223276972e-02 0.0000000000000000e+00  -3.7090320182742040e-02 2.2338731118014751e-02 0.0000000000000000e+00  -5.6671903340128477e-03 3.0386944916068778e-03 0.0000000000000000e+00  -1.4034159089488640e-01 6.6127082409597041e-02 0.0000000000000000e+00  -1.5230999816048391e-01 7.1029570800701727e-02 0.0000000000000000e+00  2.5807390379679270e-02 -1.0358060703327013e-02 0.0000000000000000e+00  1.0652605903265415e+00 -3.2410408627449677e-01 0.0000000000000000e+00  -2.0977001517442537e+00 1.2457511878967862e+00 0.0000000000000000e+00  -2.8843246039029280e-01 1.6196272689448388e-01 0.0000000000000000e+00  1.3322949910477719e-01 -4.7398746858638409e-02 0.0000000000000000e+00  -5.2929254831868625e-02 1.7331709610849445e-02 0.0000000000000000e+00  8.9289952689041496e-02 -3.1234943524794025e-02 0.0000000000000000e+00  2.0548293424676292e+00 -6.7100130386600332e-01 0.0000000000000000e+00  -5.9268241771869024e-01 1.7423230037402166e+00 0.0000000000000000e+00  -2.3203839064553319e-01 8.8472906494609416e-01 0.0000000000000000e+00  5.1745464052449397e-01 -2.0160200399375973e-02 0.0000000000000000e+00  1.7566995423075926e+00 2.2149354276297325e-02 0.0000000000000000e+00  8.0952148508614452e-01 3.6076627752446244e-02 0.0000000000000000e+00  5.9922027150911961e-01 -1.7988805435835289e-01 0.0000000000000000e+00  2.1113994094470734e-01 3.7411896658035926e-01 0.0000000000000000e+00  6.1989078009200926e-01 7.7802267008274362e-01 0.0000000000000000e+00  -3.4421317844819488e-01 -8.5520789577516165e-01 0.0000000000000000e+00  3.4851470414277080e-02 -1.0619489158474231e-01 0.0000000000000000e+00  1.7445361395988016e-02 -1.5411071428372199e-02 0.0000000000000000e+00  3.1412175602092078e-02 -3.6713835311286996e-02 0.0000000000000000e+00  5.3951197838712805e-01 -6.8053072396548245e-02 0.0000000000000000e+00  -1.0580037006245931e-01 2.4787559446809701e-02 0.0000000000000000e+00  2.5051820262905583e-01 -2.1500688637600959e-02 0.0000000000000000e+00  -1.5508287350501737e+00 -2.1956262066064200e-01 0.0000000000000000e+00  1.2327832008445903e+00 1.0355045831433081e-01 0.0000000000000000e+00  1.8417846134119864e-01 8.6174372025485377e-02 0.0000000000000000e+00  3.3678941625513666e-02 5.1616310854222511e-02 0.0000000000000000e+00  2.8205623516883428e-02 2.5938322547731257e-01 0.0000000000000000e+00  -8.7589179562167596e-01 2.3214129547522071e+00 0.0000000000000000e+00  2.2288124132934972e+00 -1.7450895335687522e+00 0.0000000000000000e+00  5.2087283189982729e+00 -1.2369241607941153e+00 0.0000000000000000e+00  2.5127529727519029e+00 2.5266954936147595e-02 0.0000000000000000e+00  1.9936554390316217e+00 2.0650675900645982e-02 0.0000000000000000e+00  2.7365251472032472e+00 -1.9118852463983665e-01 0.0000000000000000e+00  5.3895882951833962e-01 -2.4153399003439328e-02 0.0000000000000000e+00  -8.0379128669102184e-01 2.3625335610972845e-01 0.0000000000000000e+00  1.2621743118066799e+01 -4.2522721223286437e+00 0.0000000000000000e+00  5.1527103838753199e+00 7.6859046329937952e-01 0.0000000000000000e+00  1.8197002325720801e-01 3.6996388518891574e-02 0.0000000000000000e+00  -4.6773753605752290e-02 -1.0575578518282254e-02 0.0000000000000000e+00  2.9404709391737566e-01 9.3102570686139891e-02 0.0000000000000000e+00  -1.3916654962751221e-01 -6.1219300996693871e-02 0.0000000000000000e+00  -4.0407743518606676e+00 -2.0082403153537269e+00 0.0000000000000000e+00  1.1817133278240184e+00 2.3646492886377068e-01 0.0000000000000000e+00  1.5759765188709518e-01 4.7555409074474510e-02 0.0000000000000000e+00  -2.8532066178050713e-01 -1.1254051546083826e-01 0.0000000000000000e+00  -2.7141588372871878e-01 -1.0654248221751042e-01 0.0000000000000000e+00  -1.5903307650081359e-02 -7.4740744930021849e-03 0.0000000000000000e+00  -1.4235147169741538e-01 -7.1645029604343741e-02 0.0000000000000000e+00  1.4767609193857409e-01 9.0462111292339303e-02 0.0000000000000000e+00  -2.9412737658457372e-01 -1.9304163776618957e-01 0.0000000000000000e+00  3.6952416706938440e-02 2.0752272008168853e-02 0.0000000000000000e+00  -1.5824369254592641e-01 -1.1086081341383361e-01 0.0000000000000000e+00  -5.1890418362971792e-02 -4.7898710745442573e-02 0.0000000000000000e+00  -1.9363757531726736e-01 -1.8615833484689565e-01 0.0000000000000000e+00  -5.3858007617623924e-02 -6.0288247357484143e-02 0.0000000000000000e+00  -1.1152293966792516e-01 -1.4439649022996606e-01 0.0000000000000000e+00  -1.0919850969290934e-01 -1.6524864000522529e-01 0.0000000000000000e+00  1.7345027298779826e-02 3.3613556399381080e-02 0.0000000000000000e+00  -1.6789421985380217e-02 -3.9583014388447010e-02 0.0000000000000000e+00  -3.0232064676339595e-02 -8.3629772702727062e-02 0.0000000000000000e+00  -3.3903793569757634e-03 -1.4452934327804885e-02 0.0000000000000000e+00  -5.1015970409593794e-03 -3.1263605961987864e-02 0.0000000000000000e+00  -6.6823640909222809e-04 -1.0538975295690750e-02 0.0000000000000000e+00  2.1721784134669911e-04 -1.0065300924093456e-02 0.0000000000000000e+00  7.0267598563763687e-04 -5.9105575766196707e-03 0.0000000000000000e+00  9.7437549986420350e-04 -4.6362524125706031e-03 0.0000000000000000e+00  2.0727427565793988e-03 -6.6515707721235646e-03 0.0000000000000000e+00  5.7903991117423574e-03 -1.4375562042762243e-02 0.0000000000000000e+00  9.7653521450123369e-03 -1.9422046617886830e-02 0.0000000000000000e+00  1.8483652526848856e-02 -3.0390791006332005e-02 0.0000000000000000e+00  1.8690907046099808e-02 -2.6296473078195059e-02 0.0000000000000000e+00  4.5136050174956054e-02 -5.3230483414806531e-02 0.0000000000000000e+00  6.5183555844308466e-03 -7.1336109899360171e-03 0.0000000000000000e+00  2.9352900070006714e-03 -2.9981844979683333e-03 0.0000000000000000e+00  8.3256846716333349e-02 -7.0286664655861711e-02 0.0000000000000000e+00  5.3899703608978944e-02 -4.0032392772410462e-02 0.0000000000000000e+00  4.1554342925346766e-02 -2.7564114198887959e-02 0.0000000000000000e+00  5.9512523285117504e-02 -3.5735713284989291e-02 0.0000000000000000e+00  3.3534117540326473e-02 -1.8084549798257559e-02 0.0000000000000000e+00  9.8976450761372556e-02 -4.7860213437252178e-02 0.0000000000000000e+00  -1.9814012412950589e-02 9.6361677200365228e-03 0.0000000000000000e+00  -8.5203651629181393e-02 4.1173637731223386e-02 0.0000000000000000e+00  1.1269475947948672e-01 -4.2895267122872102e-02 0.0000000000000000e+00  1.1973128910823441e-02 -4.2961255934003875e-03 0.0000000000000000e+00  1.9434061619863580e-02 -6.0313378081270734e-03 0.0000000000000000e+00  1.0793380214022084e-01 -2.9744783510080492e-02 0.0000000000000000e+00  1.8490792717399929e-01 -5.0492010735065679e-02 0.0000000000000000e+00  1.9820550929539005e-01 -3.4518333698344755e-02 0.0000000000000000e+00  -5.4138779562375561e-01 1.5722177888919708e-01 0.0000000000000000e+00  4.0329739711037477e-01 -3.4196303029214337e-01 0.0000000000000000e+00  1.6276681745220070e-01 -9.3774151437083605e-02 0.0000000000000000e+00  4.1514770788153597e-02 -1.2653803359831394e-02 0.0000000000000000e+00  -2.1522886066084383e-02 4.8910160737132410e-03 0.0000000000000000e+00  -9.5363941845293107e-02 1.7122411665390910e-02 0.0000000000000000e+00  -3.0028248212166908e-01 8.5509650965178124e-02 0.0000000000000000e+00  6.9122587332638030e-01 5.3616782101229402e-02 0.0000000000000000e+00  1.8915167592125701e+00 1.0755635770672418e+00 0.0000000000000000e+00  8.3308670336577151e-01 1.0699514984585841e+00 0.0000000000000000e+00  7.0110435775414126e-01 9.1838417117349358e-01 0.0000000000000000e+00  5.2208332995585238e-01 9.8161050968397545e-01 0.0000000000000000e+00  2.1583567202975684e-01 1.0199495614894483e-01 0.0000000000000000e+00  3.3500944471359911e-01 -1.8787048870599096e-01 0.0000000000000000e+00  1.0753210615166313e-01 -9.1755147819868557e-02 0.0000000000000000e+00  2.1879445066534539e-01 -2.1623243697932901e-01 0.0000000000000000e+00  1.6725156158819551e-01 -1.3061292691108356e-01 0.0000000000000000e+00  -7.2690187560999857e-10 9.5750122323678490e-09 0.0000000000000000e+00  3.0700539373129528e-08 -1.8824076318392708e-08 0.0000000000000000e+00  -6.7095506803836545e-08 -3.2002151413142136e-08 0.0000000000000000e+00  -3.4132083139459375e-09 -1.7416608396481105e-08 0.0000000000000000e+00  2.6701300105818233e-08 1.8556077178226154e-08 0.0000000000000000e+00  2.9039931253092295e-07 8.3888929473920226e-08 0.0000000000000000e+00  -3.5211428124064850e-08 2.0067861073266239e-08 0.0000000000000000e+00  5.0776909836703384e-07 -1.1197682746406095e-07 0.0000000000000000e+00  1.3655834368572201e-09 2.2242722308461414e-08 0.0000000000000000e+00  3.8420977437405314e-07 -2.3612560219506480e-08 0.0000000000000000e+00  2.0180349607196230e-13 -4.9170976736374437e-14 0.0000000000000000e+00  -8.1603065208222245e-14 -5.5871186742667464e-14 0.0000000000000000e+00  8.4673022248479769e-08 -7.3613767203855426e-09 0.0000000000000000e+00  1.2286158502471416e-08 -1.9490708426173538e-08 0.0000000000000000e+00  3.1157169844097662e-15 -1.4080760947418939e-14 0.0000000000000000e+00  1.6242112004602926e-08 2.7832543554141585e-08 0.0000000000000000e+00  2.9770664650971505e-14 3.0796631820101406e-14 0.0000000000000000e+00  9.5342187359966831e-15 -8.6045425409701194e-15 0.0000000000000000e+00  -6.8104216859379897e-08 -6.8000357628117373e-08 0.0000000000000000e+00  -2.1248831544496985e-08 2.4328653647097296e-08 0.0000000000000000e+00  -9.9444179525155981e-15 1.9392120553382776e-14 0.0000000000000000e+00  3.9896848125118507e-08 -1.0684768681994103e-08 0.0000000000000000e+00  9.8861265459869681e-08 3.1675662469929237e-08 0.0000000000000000e+00  3.7749838647728736e-14 -3.4193560522639787e-14 0.0000000000000000e+00  7.9307830478949027e-15 2.7704735258399326e-14 0.0000000000000000e+00  -1.7035209608422308e-14 1.1004128430011106e-14 0.0000000000000000e+00  -4.2240686062681873e-14 -6.5061116453921322e-14 0.0000000000000000e+00  1.7293073968398986e-13 2.0567404291382699e-13 0.0000000000000000e+00  3.8502237900174314e-08 -1.8899744559679291e-08 0.0000000000000000e+00  -6.7753729890953378e-10 1.5749061188680451e-09 0.0000000000000000e+00  2.4410619878071082e-11 -8.0173153130707443e-12 0.0000000000000000e+00  3.4383574842477913e-11 -1.7599775733928298e-11 0.0000000000000000e+00  4.4302943526201852e-14 -2.7634663100043616e-14 0.0000000000000000e+00  3.9115598406720954e-11 -2.9499508134344932e-11 0.0000000000000000e+00  2.1763218548362828e-11 -4.4545691627646206e-12 0.0000000000000000e+00  1.5549224081896922e-13 2.1377239055496877e-14 0.0000000000000000e+00  1.4070840202922439e-10 5.2483401072163981e-11 0.0000000000000000e+00  2.3762051970900695e-07 3.4810005876924260e-08 0.0000000000000000e+00  4.5507303956189858e-10 -4.2077720262975516e-11 0.0000000000000000e+00  6.8459442592863377e-10 -3.4678205863240040e-11 0.0000000000000000e+00  3.5284617037455582e-07 -1.7059704554856877e-08 0.0000000000000000e+00  1.3362210312617144e-04 -2.2815271250491585e-05 0.0000000000000000e+00  1.7189750971308387e-04 4.2390679390660565e-04 0.0000000000000000e+00  4.5412060805661570e-05 -1.5821953401824011e-04 0.0000000000000000e+00  1.6695962162213880e-04 -1.6282852451157969e-05 0.0000000000000000e+00  -1.4294492848531700e-11 -3.6897006853934671e-11 0.0000000000000000e+00  -6.5187577080066146e-11 -8.2032493318862731e-11 0.0000000000000000e+00  -2.0728891351486206e-08 -3.2121740543310885e-08 0.0000000000000000e+00  -9.9146984725588883e-14 -9.8833213799114761e-14 0.0000000000000000e+00  -7.7439303935760706e-11 -6.2887977492998718e-11 0.0000000000000000e+00  6.0011537806697543e-04 -4.9740898730784761e-05 0.0000000000000000e+00  9.5502132323355501e-05 3.5183892345364327e-05 0.0000000000000000e+00  2.3229944075072576e-11 -2.8051228895073562e-11 0.0000000000000000e+00  1.7597530333497699e-14 -2.7304290507675877e-14 0.0000000000000000e+00  7.5410023703069488e-12 -1.6772169405440208e-11 0.0000000000000000e+00  -2.1634785160589571e-07 1.4860195241813094e-07 0.0000000000000000e+00  4.0148928631264157e-11 9.6316598096211559e-12 0.0000000000000000e+00  2.1155731762027033e-04 8.7717637677883317e-05 0.0000000000000000e+00  1.3139419809028822e-05 -7.0604679978225226e-06 0.0000000000000000e+00  6.0692759975883190e-05 6.2413500206747659e-05 0.0000000000000000e+00  4.6197192048267054e-04 3.3047293481640395e-05 0.0000000000000000e+00  -3.4965490672634463e-05 -1.7140589951482470e-05 0.0000000000000000e+00  1.6215373197229355e-05 -1.9143721113741273e-05 0.0000000000000000e+00  7.9485842324817517e-06 9.5287713809352024e-06 0.0000000000000000e+00  -9.9855467382963246e-06 5.4552955989926400e-06 0.0000000000000000e+00  2.9271096023409078e-05 -1.4585708433251632e-05 0.0000000000000000e+00  2.3930907561293790e-05 -1.7646608582787684e-05 0.0000000000000000e+00  2.1667794037614409e-05 1.8056108841236521e-05 0.0000000000000000e+00  4.3413398137267518e-05 2.4901211908984430e-05 0.0000000000000000e+00  -1.5099583597906590e-08 -8.3966954643574378e-06 0.0000000000000000e+00  -1.0224671065398275e-05 -2.9199207747399134e-05 0.0000000000000000e+00  -1.8938397364268838e-06 7.2957434166106686e-06 0.0000000000000000e+00  8.6558524654597602e-07 9.7354911126275914e-06 0.0000000000000000e+00  2.0354436655939417e-08 -1.8376962678570211e-08 0.0000000000000000e+00  4.0442908213151772e-14 2.8407000792307419e-14 0.0000000000000000e+00  3.9080371094101265e-11 2.2543804384644920e-11 0.0000000000000000e+00  3.0548022639490975e-11 2.5927727651962738e-11 0.0000000000000000e+00  -3.9881476285963693e-11 -1.9568717200955093e-11 0.0000000000000000e+00  -1.0177234714078142e-13 -5.3180177840700893e-14 0.0000000000000000e+00  1.7955072441365923e-11 -3.3890075373612425e-11 0.0000000000000000e+00  2.4036505809661324e-14 4.0877232507427436e-14 0.0000000000000000e+00  1.1241653224665070e-17 2.1309510077321727e-17 0.0000000000000000e+00  3.4614085080033829e-17 1.7323767786881733e-17 0.0000000000000000e+00  1.6560113732428752e-05 -1.9825738543717265e-05 0.0000000000000000e+00  -1.0392808134900061e-05 1.6762013724899187e-05 0.0000000000000000e+00  -4.3676039689990391e-07 -2.3595891605884609e-07 0.0000000000000000e+00  3.6610658473989324e-11 1.2825280044554845e-11 0.0000000000000000e+00  -2.1148997215354301e-08 -1.5101975506226667e-08 0.0000000000000000e+00  2.9509562491782012e-11 5.8924203659832707e-12 0.0000000000000000e+00  2.6304261653351036e-11 3.4908034492110330e-11 0.0000000000000000e+00  1.8946873667132003e-08 1.9471605315658369e-08 0.0000000000000000e+00  -2.4474805871486871e-13 -1.3305965927119601e-11 0.0000000000000000e+00  1.8764565041483758e-09 -8.4794017093686294e-09 0.0000000000000000e+00  -1.8049113645411990e-11 2.6521264838459975e-11 0.0000000000000000e+00  -3.2436252907760501e-12 1.1804598899247036e-11 0.0000000000000000e+00  -5.3967721479657499e-09 1.0761673386700914e-08 0.0000000000000000e+00  1.1740368289148783e-16 -3.3044426980895734e-17 0.0000000000000000e+00  -7.1955006043103511e-15 -3.1494039515334644e-14 0.0000000000000000e+00  1.7663574707188858e-05 -2.1355074848351500e-05 0.0000000000000000e+00  4.3162135911907757e-06 -9.9426408422470618e-06 0.0000000000000000e+00  8.1849473382127092e-06 1.9494942192563749e-05 0.0000000000000000e+00  1.9532689836951517e-05 2.5845510328491319e-05 0.0000000000000000e+00  -2.0608957538024227e-17 -4.1561871082146534e-17 0.0000000000000000e+00  1.2798115553279975e-11 3.0090197795943585e-11 0.0000000000000000e+00  4.3967374433455730e-09 1.6072986500950187e-08 0.0000000000000000e+00  -4.1353638187164080e-05 -5.1588849298207033e-05 0.0000000000000000e+00  -6.6913756406819153e-05 -5.2226154623801872e-05 0.0000000000000000e+00  -7.3018781623865071e-08 -4.8896615733790582e-08 0.0000000000000000e+00  -3.2791736055765381e-05 2.9386706074331763e-05 0.0000000000000000e+00  -1.1299109312284930e-05 1.6663601009114386e-05 0.0000000000000000e+00  -6.4935572906675461e-09 3.4925746704978374e-09 0.0000000000000000e+00  -4.4643425411506036e-14 2.9014601583128315e-14 0.0000000000000000e+00  -2.4434350503952900e-11 1.4627019322253867e-11