<?xml version="1.0"?>
<VTKFile type="UnstructuredGrid"  version="0.1"  >
<UnstructuredGrid>
<Piece  NumberOfPoints="2549" NumberOfCells="4928">
<Points>
<DataArray  type="Float64"  NumberOfComponents="3"  format="ascii">1.468297489787079 0.01496077114224658 0  1.464253105731025 0.03784641862003293 0  1.441183512789286 0.04897359567602403 0  1.427523165954807 0.0650743963530096 0  1.421289301541751 0.07587941306982532 0  1.422530523009615 0.09767550749872483 0  1.403868721245638 0.1061524130317939 0  1.37525267751485 0.1131853210705933 0  1.37554188095329 0.1484026239395276 0  1.472713002461159 0.1466072006098639 0  1.363375100516938 0.1652883565702735 0  1.354807572469597 0.1906540651103902 0  1.343857888733243 0.2187438324799424 0  1.336325415834685 0.2481209223644187 0  1.330875822502815 0.2779115518110621 0  1.312636966155134 0.3101164871247986 0  1.30694609112237 0.3431052135623053 0  1.29368981133856 0.3577782378725614 0  1.273263338668899 0.4108726852482489 0  1.259281524783114 0.4472396263408825 0  1.24403560845728 0.4934883107794575 0  1.225099689505175 0.5381833784543091 0  1.205045978870653 0.5860885936491428 0  1.180771458390527 0.6377204081702054 0  1.153885603413034 0.6895198376502224 0  1.12455290596597 0.7311516550730167 0  1.093327371825173 0.785127077487644 0  1.059551814908605 0.8400583933597281 0  1.021023392189109 0.8952682903121681 0  0.9789794462861263 0.9512958943576154 0  0.9327316140205126 1.007059881632857 0  0.8818786404925079 1.063366765936392 0  0.8262540484396207 1.116775959929804 0  0.7678148818386928 1.167392742740097 0  0.7030916433046652 1.219715676962088 0  0.6343671619739631 1.267651728853096 0  0.5607181576994942 1.312409240362125 0  0.4828491244550639 1.352897079428768 0  0.4008938842205446 1.388241479279585 0  0.3154243937038244 1.418917119827787 0  0.2264685238156505 1.442075831762689 0  0.1362701512859271 1.458376790373156 0  0.04378556863453881 1.469399157804341 0  -0.04929992323691054 1.471860653432731 0  -0.1422059738170222 1.467278646108774 0  -0.2341787705699503 1.454813754395224 0  -0.3240181467894731 1.435479611600545 0  -0.411569025106317 1.407589520844974 0  -0.4947015121956604 1.376366287734881 0  -0.5752360942491773 1.337982674187462 0  -0.6511568382607751 1.29286569407629 0  -0.7222302411609497 1.244454848977247 0  -0.788204714515077 1.191728885069194 0  -0.8497074192014502 1.136125345595066 0  -0.9044728769294821 1.078818089926978 0  -0.9580103170181659 1.017511297785227 0  -1.000877462197888 0.9646011052506567 0  -1.045630729256965 0.9095285783695484 0  -1.084717060425095 0.8476988651802158 0  -1.118639126822073 0.7893075199885472 0  -1.148091337189864 0.7327736658367172 0  -1.175600881225725 0.6748709463131272 0  -1.203301983643257 0.6281970694190904 0  -1.213276979467561 0.5552814796711423 0  -1.223830832228507 0.5192348782939865 0  -1.26289196585701 0.499709800407694 0  -1.273918333950327 0.4513695604022126 0  -1.286499735857143 0.4132715444495469 0  -1.297192003143069 0.3759124520502474 0  -1.319602157872046 0.3500718895914028 0  -1.323091362166505 0.3012711362697512 0  -1.314859549589267 0.3323778612883208 0  -1.375468665419733 0.2908754718574506 0  -1.364567146792877 0.1975226768349816 0  -1.369125324722577 0.1719152421698675 0  -1.367077712967807 0.1383860155333277 0  -1.376414034038213 0.1191131744105068 0  -1.372287458734874 0.09197130059796156 0  -1.393526620557443 0.1020518469955112 0  -1.365047687317416 0.02744879491466956 0  -1.414017492178633 0.09400115540859744 0  -1.473665365628499 0.117765286342365 0  -1.467223718871872 0.05858902920070282 0  -1.472400471015433 0.03311602644518005 0  -1.492706212885181 0.002638647004635911 0  -1.469733604434051 -0.01866104819030102 0  -1.44908776930226 -0.04575299096229937 0  -1.302190727052458 -0.2003778636938474 0  -1.38097614001441 -0.03491677115074107 0  -1.429250210906106 0.2912423838244802 0  -1.424561502805322 -0.06638564833820602 0  -1.456575493154289 0.001369783998006408 0  -1.410069097653124 -0.123156490040277 0  -1.381027604923299 -0.08933435265100209 0  -1.364678724047367 -0.1012174186739636 0  -1.372511194724248 -0.124016593801107 0  -1.390349299393517 -0.2410019696573162 0  -1.276332637752619 -0.2763539940617609 0  -1.351019845728792 -0.2426098736079593 0  -1.339646824147686 -0.3071424435618644 0  -1.305315832551192 -0.3182588959703725 0  -1.320333165067575 -0.3653104604651627 0  -1.304727760238716 -0.4044040158426059 0  -1.315413214007638 -0.4701916774525193 0  -1.219832758243264 -0.453518956795638 0  -1.197107652274552 -0.4862814379415701 0  -1.267190298537291 -0.586711538655338 0  -1.217292688448622 -0.6311389704255597 0  -1.186773014910683 -0.6917402214114918 0  -1.167931672987392 -0.7570194799947073 0  -1.136309345746096 -0.8191321108726342 0  -1.112988688455432 -0.8995624286521462 0  -1.046325585395159 -0.9379240463844094 0  -1.003640769099068 -0.9972441911504742 0  -0.9651010316892349 -1.083809930666702 0  -0.9065057062026609 -1.144204733986662 0  -0.8443016487974186 -1.210408140143771 0  -0.7779543138535344 -1.27204405105029 0  -0.7055217002387395 -1.329909670463872 0  -0.6258215710765194 -1.383835145297924 0  -0.5435433791188611 -1.432941724352236 0  -0.4572646845716018 -1.471334871513045 0  -0.3638325405210741 -1.507534045367391 0  -0.2692605960762749 -1.535443360916473 0  -0.1705539488900547 -1.554512203692872 0  -0.07063007638883062 -1.564881745701067 0  0.03022375219577436 -1.566226892858403 0  0.1306781897443904 -1.558365922826286 0  0.2297885752736543 -1.541725804745721 0  0.3262816829943129 -1.516463821733321 0  0.4195817898448841 -1.483521575835701 0  0.5087828239387406 -1.443304765538685 0  0.593134558563737 -1.396821025196066 0  0.6725634909366034 -1.344635006280218 0  0.745316940892767 -1.288648198066583 0  0.8149209492986101 -1.227004629176018 0  0.8746417397861876 -1.170015852079793 0  0.9318544051737844 -1.108398380972826 0  0.9850855025792132 -1.042536365639125 0  1.031345074011324 -0.9781468825822266 0  1.072957727949913 -0.9136083263002532 0  1.110648202138278 -0.850774592005908 0  1.14234086452477 -0.7881420779710676 0  1.171599602019107 -0.7278317999112862 0  1.201365147641691 -0.6808838254325338 0  1.223356433923198 -0.6217015912571373 0  1.245636548426951 -0.5652555510352092 0  1.262903083553254 -0.5118749764735746 0  1.278247605527845 -0.4627594093426126 0  1.287043215655433 -0.4102180660905272 0  1.301209495404969 -0.3742682062618786 0  1.318743279904159 -0.3004525576317197 0  1.283458458051409 -0.2816576297470409 0  1.332753357279112 -0.2866289870888075 0  1.351424780543745 -0.2411111361612517 0  1.352534358410432 -0.2083223682934317 0  1.358571509934227 -0.1745465136595796 0  1.364531456777407 -0.1432884929152307 0  1.361654987133635 -0.1143463620117235 0  1.477209642455449 0.06712339096550382 0  1.393961864780999 -0.1058847425338972 0  1.389506265680173 -0.1085523291556838 0  1.400878401326796 -0.0723150631849319 0  1.423599013879826 -0.05887629636422305 0  1.423839569235655 -0.04085227505520133 0  1.434034707991166 -0.02722562316768593 0  1.44097757025133 -0.01376592645289438 0  1.46143876879641 -0.005389960603295278 0  -0.09056833171260831 0.8931652218723458 0  0.682642870512427 -0.5103272967745046 0  -0.8005029302301451 -0.3846850784591158 0  -0.07737498134620142 -0.9510350343789421 0  0.6532661171281575 0.4939924362600232 0  1.083429407982456 0.1085029593457906 0  -0.7917129052854954 0.4093737264237722 0  -1.150572553978571 0.03099409288111783 0  1.09101362051482 -0.06921043831503371 0  -1.030956936308956 -0.172035598066771 0  -0.7288904407191131 0.01722355066846305 0  -0.436599067327715 -0.1386955564334064 0  -1.024097181359893 0.2123729793747525 0  0.3777213878448469 -0.8380380742382316 0  0.07825451455228637 -0.3060475119399572 0  0.3128912884464092 0.7724635146751444 0  0.2179950983743378 0.187333855765688 0  0.5564685056266743 0.01320764677872535 0  -0.4808282056114519 -0.7005281696947477 0  -0.4999206722068047 0.6995991115757988 0  -0.240155308415269 0.3159005963326172 0  0.9083076080984934 -0.2165353803137091 0  0.893737900407563 0.2406944082053583 0  0.3459067834940389 -0.2188750874363448 0  -0.01154662257079979 0.2434756342379599 0  -0.4900616840398423 0.2156133662110938 0  -0.1883686349739452 -0.2793067055266325 0  0.8554636063019531 0.01708456708817636 0  1.242495377119934 0.02192793845433489 0  0.7954998459934266 -0.3440493671804553 0  0.7111481382502527 -0.1116338425530831 0  0.5777910665110773 -0.2125242809273391 0  0.434871167950176 -0.08056355825961106 0  0.5063376740855715 -0.3761258993325026 0  0.8558519662969436 -0.08744486316418471 0  0.7081704568726891 0.01491169800688176 0  -0.8552056094950612 0.1258801994882995 0  -1.068121055629411 0.103263057929123 0  -0.9437260244451207 0.02588499632739337 0  -0.8607373896354136 -0.08626176580903606 0  -1.070070599941958 -0.04923416576185059 0  -1.232791281765027 -0.07964854315654925 0  -1.305810916225317 0.00447266179460266 0  -1.303299276290605 0.060105941920001 0  -1.225726438643542 0.1416885017733277 0  -0.1303515373131388 -0.6168336171591959 0  -0.3003306756020903 -0.5075570947052147 0  -0.2923461444452115 -0.8483503265490949 0  -0.3081493655825003 -0.2018452444091735 0  -0.4492355448998334 -0.4045000605689084 0  -1.222418982202426 -0.1968008227598081 0  -1.208351188218351 0.2467814704431697 0  0.3765441299432707 -0.5085292017536422 0  0.2096590631292605 -0.2494696458619589 0  0.2380287456839561 -0.5670213588947016 0  -0.9083282273321466 0.2952634377697383 0  -0.724213172783623 0.1947116745819812 0  1.26156952385692 -0.08639085845119968 0  1.196020440072123 -0.1803664441824794 0  1.183408502692448 0.2185560529587223 0  1.253033400005608 0.1288919693607284 0  -0.9114849693601863 -0.6513771174102274 0  -1.037922053578054 -0.4424244188031254 0  -1.018483202451429 0.4787981341834029 0  -0.8840190170726374 0.6680154960949487 0  0.9353357210154329 -0.6075589605446818 0  0.7725538061881816 -0.8270347728540951 0  0.739215252343544 0.7894564081716583 0  0.9041269679745955 0.6009625816857909 0  0.04
[...]
<PointData  Vectors="f_17081"> 
<DataArray  type="Float64"  Name="f_17081"  NumberOfComponents="3" format="ascii">1.9110746721119731e-01 -3.5810905940067445e-02 0.0000000000000000e+00  3.3557287532849089e-01 9.9328224492973516e-02 0.0000000000000000e+00  4.2495371479110816e-01 2.7143687025758917e-01 0.0000000000000000e+00  6.7816024974198430e-01 3.1934172815055339e-02 0.0000000000000000e+00  4.2142783123418842e-01 6.3928370421020217e-02 0.0000000000000000e+00  1.4177195731744090e+00 4.1049768853787860e-01 0.0000000000000000e+00  2.5013016689774563e+00 1.0861412546534709e-02 0.0000000000000000e+00  5.9018924022176844e-01 -8.8656878483801438e-02 0.0000000000000000e+00  -1.4594081851711649e+00 3.7587627737736891e+00 0.0000000000000000e+00  -5.4422906659065719e-02 1.9554451450535442e+00 0.0000000000000000e+00  -4.4519077590031525e-01 9.7678605292025447e-02 0.0000000000000000e+00  -9.1892802964655051e-01 1.7548977312967207e+00 0.0000000000000000e+00  1.4094665583149075e+00 1.0961359341981256e+00 0.0000000000000000e+00  -6.5226315732985873e-01 -1.3633645739685202e-01 0.0000000000000000e+00  -1.2127675885198401e+00 -4.8562361434582924e-01 0.0000000000000000e+00  -2.3668850751002168e-01 -1.9054961185130372e-02 0.0000000000000000e+00  4.5775409110528038e+00 2.2238580286720206e+00 0.0000000000000000e+00  4.5452264515218177e+00 2.8667955504956173e+00 0.0000000000000000e+00  9.5449972579151310e-01 4.7163508573120827e-01 0.0000000000000000e+00  1.0576307870862386e-01 4.6445761491390118e-02 0.0000000000000000e+00  3.1314093607962512e-01 1.1766152481745772e-01 0.0000000000000000e+00  6.5122431274569875e-02 2.3947744977247325e-02 0.0000000000000000e+00  8.7495492474181702e-02 3.6765864302810605e-02 0.0000000000000000e+00  7.4630179039011285e-02 3.1968203923331794e-02 0.0000000000000000e+00  -6.5005838273812910e-01 -4.2891634272218210e-01 0.0000000000000000e+00  6.6960490327869959e-01 4.3903972610297881e-01 0.0000000000000000e+00  2.8628199820715122e-01 1.7217170303391269e-01 0.0000000000000000e+00  -2.7516479799033218e-02 -3.0076318714505827e-02 0.0000000000000000e+00  5.1037168305436260e-02 3.7001996967264611e-02 0.0000000000000000e+00  5.8778804132825983e-02 4.2165670077650375e-02 0.0000000000000000e+00  8.6689414912164586e-02 7.5040121346742497e-02 0.0000000000000000e+00  1.1544924864407087e-01 9.9926629204982048e-02 0.0000000000000000e+00  -1.3692742452791477e-02 -1.8390064868061544e-02 0.0000000000000000e+00  6.0842556852871148e-02 7.4689193641975751e-02 0.0000000000000000e+00  1.2469019554943551e-01 1.5719008562515538e-01 0.0000000000000000e+00  6.0110860871439832e-02 8.7272487557767592e-02 0.0000000000000000e+00  8.3697848216598078e-02 1.4256942532211025e-01 0.0000000000000000e+00  5.1506890015311148e-02 9.8173099761331983e-02 0.0000000000000000e+00  5.5163473669555291e-02 1.3901536897613964e-01 0.0000000000000000e+00  5.9430776474070780e-02 1.6287086288378261e-01 0.0000000000000000e+00  6.7605799653748782e-03 1.3217917224695962e-02 0.0000000000000000e+00  9.3425196045224604e-03 6.1862631159010438e-02 0.0000000000000000e+00  1.0025300696611651e-02 6.4492765396114454e-02 0.0000000000000000e+00  6.4972519069603517e-05 2.4794875495696860e-02 0.0000000000000000e+00  1.6759658811240212e-04 2.6088121266335119e-02 0.0000000000000000e+00  -5.3724815321277153e-03 3.0210587643613347e-02 0.0000000000000000e+00  7.2447832461055772e-03 -1.7111514701057963e-02 0.0000000000000000e+00  -5.1834391477587408e-03 8.0926042928158269e-03 0.0000000000000000e+00  -1.5268260956013205e-02 3.8242027323699759e-02 0.0000000000000000e+00  8.7128861153547774e-03 -1.6994558095509395e-02 0.0000000000000000e+00  -9.2877239980394561e-03 1.0032208976355613e-02 0.0000000000000000e+00  -1.3016251632371384e-02 1.4459401995957808e-02 0.0000000000000000e+00  -2.1679231662903472e-02 2.1782427030984375e-02 0.0000000000000000e+00  -3.2000571574158462e-02 2.8921747407619651e-02 0.0000000000000000e+00  -3.2723629257304897e-02 2.7839450137704336e-02 0.0000000000000000e+00  -3.3689944267604348e-02 2.7191631526072357e-02 0.0000000000000000e+00  -2.2051884795180891e-02 1.8524057774898784e-02 0.0000000000000000e+00  1.2486633246893029e-02 -2.0547104062874456e-02 0.0000000000000000e+00  -6.4698226826078342e-02 3.8501698339558209e-02 0.0000000000000000e+00  -1.5961783582751420e-02 1.6897484414502926e-02 0.0000000000000000e+00  -1.3112123347139501e-01 9.2384399826925007e-02 0.0000000000000000e+00  -5.4125858502979785e-01 3.1852602261586399e-01 0.0000000000000000e+00  -2.4759388142774324e-02 -2.0422558843259137e-01 0.0000000000000000e+00  1.3395881822774287e+00 -4.5759550870056320e-01 0.0000000000000000e+00  -8.4290571460336206e-01 1.2349291543342658e+00 0.0000000000000000e+00  -5.6967770965364406e-01 4.8662679809189413e-01 0.0000000000000000e+00  6.5004071812262576e-01 8.3165814999271767e-02 0.0000000000000000e+00  -1.1606859759578458e-01 1.1187851930512722e-01 0.0000000000000000e+00  -5.8894872190486225e-01 3.4998488192580696e-01 0.0000000000000000e+00  4.9790958445889272e-01 -2.4103642998618158e-01 0.0000000000000000e+00  2.3034908813362116e+00 -2.8678098461638452e-01 0.0000000000000000e+00  2.1394344305949750e-01 9.0037612235953163e-02 0.0000000000000000e+00  -8.4329812720082831e-02 1.6097480719729521e-01 0.0000000000000000e+00  1.2576351097529599e+00 1.7530079341066362e-01 0.0000000000000000e+00  -1.0531138445396927e-01 -2.1242694270855903e-02 0.0000000000000000e+00  1.9311143516840044e+00 -3.4006339993083590e-01 0.0000000000000000e+00  3.3230470243704091e+00 4.0079871221905761e-01 0.0000000000000000e+00  4.9332340845836429e+00 1.6936747789376885e+00 0.0000000000000000e+00  -2.3666006737211331e+00 -1.0703767002651847e+00 0.0000000000000000e+00  -5.6235691806341659e-01 -3.8549034980740488e-01 0.0000000000000000e+00  -1.3759128325205608e-01 2.4932103895823524e-02 0.0000000000000000e+00  -6.6774179951240042e-01 -4.5123433610545322e-01 0.0000000000000000e+00  -6.0278882069965800e-01 -6.0127187138108239e-02 0.0000000000000000e+00  -1.1513647529208082e+00 6.9556002776014914e-01 0.0000000000000000e+00  -9.5116165974389311e-01 5.7951076233009136e-01 0.0000000000000000e+00  4.4203987883215029e-02 5.1181569804579219e-01 0.0000000000000000e+00  -3.5726327160122806e-02 -8.0079907260908884e-03 0.0000000000000000e+00  3.9280460760461926e-02 2.5779634374190469e-02 0.0000000000000000e+00  6.8242529977009594e-03 -4.5080034618152813e-03 0.0000000000000000e+00  2.3440100980623328e-02 1.1161226391300364e-03 0.0000000000000000e+00  5.4460705357267651e-02 1.9968170346355779e-03 0.0000000000000000e+00  -9.2464090956598494e-02 -3.2312017385099805e-02 0.0000000000000000e+00  -1.0058472437316072e-01 -2.9729268646251730e-03 0.0000000000000000e+00  5.7378491552555505e-02 -2.5638623587207587e-01 0.0000000000000000e+00  8.4885929353359135e-01 3.7956633082641611e-01 0.0000000000000000e+00  4.2924485567766714e-02 1.4775857364517492e-02 0.0000000000000000e+00  -1.2203376122621415e-01 -1.9749609409368713e-04 0.0000000000000000e+00  -7.8641379098002475e-03 1.9101950468762549e-02 0.0000000000000000e+00  1.2234537709642705e-01 1.6847681032373944e-02 0.0000000000000000e+00  6.9280731327431078e-01 6.2022618297218668e-01 0.0000000000000000e+00  2.2861898183863949e+00 4.3649576817426841e+00 0.0000000000000000e+00  -1.0069700258736296e-01 6.9917378349114634e-01 0.0000000000000000e+00  3.8541769892220787e+00 -1.5129522224022121e-01 0.0000000000000000e+00  2.7604555131034991e+00 -3.7958843382843027e-01 0.0000000000000000e+00  2.1423417333172279e+00 2.7033760311911657e+00 0.0000000000000000e+00  -1.7583248209948479e+00 1.4653048505684729e+00 0.0000000000000000e+00  -3.8349501270976640e+00 -4.7963722873530723e-01 0.0000000000000000e+00  -4.6052085063366821e+00 -4.1613668058488020e+00 0.0000000000000000e+00  6.5181605110012419e-01 -2.8563530319655844e-01 0.0000000000000000e+00  6.3690302160374601e-01 7.7483079948823766e-02 0.0000000000000000e+00  1.8819034059935871e+00 3.8031988835802683e-01 0.0000000000000000e+00  -2.4098368138013413e+00 -1.7112801707141831e+00 0.0000000000000000e+00  -1.7778581006963370e+00 -2.3814677614287243e+00 0.0000000000000000e+00  1.7922624992503935e+00 8.7569148698846200e-01 0.0000000000000000e+00  1.7521749082371782e-01 3.1375836338992930e-01 0.0000000000000000e+00  -1.0755458338960512e-01 -2.0293374772230119e-01 0.0000000000000000e+00  -1.6424685074641024e-01 -1.9577915273691968e-01 0.0000000000000000e+00  -6.1915930670151074e-02 -8.6679995259472842e-02 0.0000000000000000e+00  -7.2246780430420196e-02 -9.1992348272941546e-02 0.0000000000000000e+00  -6.6629315317144014e-02 -1.0306830958092987e-01 0.0000000000000000e+00  -4.5437192676534149e-02 -6.6811966990684910e-02 0.0000000000000000e+00  -1.1256343857718116e-02 -2.6289143033155538e-02 0.0000000000000000e+00  -2.5365267750381927e-02 -6.7516226301012186e-02 0.0000000000000000e+00  -8.4409604289774863e-03 -2.5170991592454825e-02 0.0000000000000000e+00  -4.2267394408701644e-03 -2.3508076845606740e-02 0.0000000000000000e+00  -1.2344202004198276e-03 -1.5530945402347307e-02 0.0000000000000000e+00  9.9246548287449873e-04 -1.3912868430910037e-02 0.0000000000000000e+00  3.0682023566392636e-03 -1.3738169942627335e-02 0.0000000000000000e+00  7.0171379579377219e-03 -2.3022129949060430e-02 0.0000000000000000e+00  1.2505571016353079e-02 -3.2335420916965348e-02 0.0000000000000000e+00  1.9145142888134039e-02 -3.9774912541120644e-02 0.0000000000000000e+00  2.7293344469236345e-02 -4.7353158501050235e-02 0.0000000000000000e+00  3.6666803666402174e-02 -5.4067691446868120e-02 0.0000000000000000e+00  4.2885119262066451e-02 -5.4135061576847894e-02 0.0000000000000000e+00  5.5952215949280654e-02 -6.3382163590176524e-02 0.0000000000000000e+00  3.1913686576394706e-02 -3.2389523348515484e-02 0.0000000000000000e+00  3.0480958282509383e-02 -2.5461072455348580e-02 0.0000000000000000e+00  6.4801807847616924e-02 -5.0171982838713915e-02 0.0000000000000000e+00  5.7455893353841749e-02 -4.0161218107386952e-02 0.0000000000000000e+00  5.2961551268362071e-02 -3.3250958540781569e-02 0.0000000000000000e+00  2.7455815703236446e-02 -1.4419700952362736e-02 0.0000000000000000e+00  3.9816839987560596e-02 -1.8263515112679086e-02 0.0000000000000000e+00  1.1294160760927255e-02 -9.0325355039696867e-03 0.0000000000000000e+00  4.7996678593742086e-03 -1.9038724960566270e-03 0.0000000000000000e+00  7.3242700823238749e-02 -3.6814233927011462e-02 0.0000000000000000e+00  2.6186150809691350e-02 -9.1112923350992123e-03 0.0000000000000000e+00  -5.1883339432368537e-02 1.8597819479663134e-02 0.0000000000000000e+00  -4.1347705802262817e-02 2.0948611484124238e-03 0.0000000000000000e+00  -5.5721547365107593e-01 1.6518069349852155e-01 0.0000000000000000e+00  7.1306151978572163e-01 1.5129691394809056e-01 0.0000000000000000e+00  1.3082017561369192e+00 1.3965195062735851e+00 0.0000000000000000e+00  1.0909818789760747e+01 6.2554039391590042e+00 0.0000000000000000e+00  8.1971630682886882e+00 1.7803573231728048e+01 0.0000000000000000e+00  8.1939398188524315e-01 2.4969993643802497e+00 0.0000000000000000e+00  -1.1822176754872193e+00 1.1172370121154762e+00 0.0000000000000000e+00  4.4527475984217207e-01 1.0631086878759240e-01 0.0000000000000000e+00  -1.9139723812647105e-01 -4.5271267269341997e-02 0.0000000000000000e+00  -8.9169011092301897e-01 -1.1796908582210096e-01 0.0000000000000000e+00  -6.7223174938675379e-01 2.1000587383924324e-01 0.0000000000000000e+00  -4.1948660380414382e-01 2.2568908415250605e-01 0.0000000000000000e+00  -2.8963273567265829e-01 2.7672165971926332e-01 0.0000000000000000e+00  2.1294311830676507e+00 -4.0838333198796786e+00 0.0000000000000000e+00  2.8038580552586267e-01 -7.5880555825001628e-01 0.0000000000000000e+00  5.8328603986435301e-01 4.0206398437214347e-01 0.0000000000000000e+00  1.6537910646449152e+00 -5.2308340309676093e-01 0.0000000000000000e+00  3.4111755590700710e-01 -9.5590969060340736e-01 0.0000000000000000e+00  1.9521599956692759e+00 -2.6313645959774417e+00 0.0000000000000000e+00  5.2657326878228050e-01 -5.8933175874444610e-01 0.0000000000000000e+00  6.8100477427938345e-05 6.5974344501447147e-06 0.0000000000000000e+00  -1.7782561719770240e-05 -1.8142877277856930e-05 0.0000000000000000e+00  -9.9035761255768142e-06 1.0404858507716717e-05 0.0000000000000000e+00  3.1083767115372649e-05 -2.3895099685570414e-06 0.0000000000000000e+00  3.5228277026692041e-05 -6.4915648737321076e-05 0.0000000000000000e+00  8.3067082095804556e-06 -2.8494630018949461e-05 0.0000000000000000e+00  -8.9700478446140303e-06 -2.5136478530690846e-05 0.0000000000000000e+00  -4.0175579862247121e-06 -8.4704103551493647e-06 0.0000000000000000e+00  4.6063267331528655e-06 -1.5808098829006111e-05 0.0000000000000000e+00  2.4531627479049134e-07 6.4655213960169714e-06 0.0000000000000000e+00  1.2494858860208687e-06 -1.5274044316176969e-05 0.0000000000000000e+00  4.4314022439224574e-05 -9.3998349348427414e-05 0.0000000000000000e+00  -3.5926640723039777e-06 -2.4623967384365760e-05 0.0000000000000000e+00  -3.2432093795207512e-05 -1.0733669956694092e-05 0.0000000000000000e+00  -1.3241663108062970e-05 2.2047843499246715e-05 0.0000000000000000e+00  2.2341584605113737e-05 -1.2191814993631195e-05 0.0000000000000000e+00  3.6852169294797316e-05 -4.6103194597714274e-05 0.0000000000000000e+00  -2.5978896392329980e-06 -5.9266725108558610e-05 0.0000000000000000e+00  5.0654743168918027e-05 -2.4839557046959345e-05 0.0000000000000000e+00  3.5019866393178024e-05 1.8271310409505705e-05 0.0000000000000000e+00  -9.8462189130910701e-05 1.2968275838911246e-04 0.0000000000000000e+00  -7.5733061139827713e-08 -1.0444555302273711e-05 0.0000000000000000e+00  1.2339110228477487e-05 -5.4540591134414723e-05 0.0000000000000000e+00  -7.1519724498856691e-05 -9.2565598414065742e-05 0.0000000000000000e+00  -7.7282665516173747e-04 3.3006331209159043e-04 0.0000000000000000e+00  -2.7696639293150224e-06 1.2474301207048022e-05 0.0000000000000000e+00  2.1783658916251734e-04 -1.5109720916473566e-04 0.0000000000000000e+00  1.7965012209138480e-06 -1.5955503209152826e-05 0.0000000000000000e+00  -5.8703343106321387e-06 -8.3133525474569190e-06 0.0000000000000000e+00  -7.4415988525282204e-06 -1.7976178645192449e-05 0.0000000000000000e+00  -5.9596199145016372e-06 -2.3378427072903225e-05 0.0000000000000000e+00  -2.1642468765075849e-05 -5.3335305306156018e-05 0.0000000000000000e+00  -2.2080168234449109e-05 -7.8548268905282814e-05 0.0000000000000000e+00  -5.9052071166482460e-05 -6.9522231396354703e-05 0.0000000000000000e+00  1.1675314316015082e-06 -1.5006124831922710e-05 0.0000000000000000e+00  8.2859321733809855e-07 -2.6043158231240842e-05 0.0000000000000000e+00  -1.5396053433993659e-06 -1.9452194269509533e-05 0.0000000000000000e+00  -4.4622009952213371e-06 -1.8106053468376061e-05 0.0000000000000000e+00  -5.9032229098475230e-07 -7.9072393619585688e-06 0.0000000000000000e+00  4.4457187333626772e-08 -4.0654211981398114e-08 0.0000000000000000e+00  -4.8176909089011949e-08 -2.8693237570251386e-07 0.0000000000000000e+00  -4.4078918174956185e-06 -2.7949970443932895e-06 0.0000000000000000e+00  -6.8894689293418626e-06 1.2045573478921818e-05 0.0000000000000000e+00  -4.6265612061176357e-05 2.0074417134692725e-05 0.0000000000000000e+00  -1.8335315369596919e-05 -3.5260369578166557e-05 0.0000000000000000e+00  1.2262091429190438e-04 -1.8953945296484393e-05 0.0000000000000000e+00  1.3630955626395453e-04 -6.6962347134857209e-05 0.0000000000000000e+00  6.7839143520499019e-05 -1.5991268845146560e-05 0.0000000000000000e+00  1.0136564882067177e-04 -1.4082257179291936e-04 0.0000000000000000e+00  7.9358674448171731e-05 -6.7090259702495087e-05 0.0000000000000000e+00  -1.7217727396458233e-07 4.3708080348436260e-06 0.0000000000000000e+00  -7.9259464510684469e-06 -5.4875066941281219e-05 0.0000000000000000e+00  -1.0031559062286007e-04 -6.4412328788661003e-05 0.0000000000000000e+00  -2.3809659916454692e-04 -2.2152970860271680e-04 0.0000000000000000e+00  -8.8834542455927396e-05 -2.5433457407119016e-05 0.0000000000000000e+00  -5.0985955868684159e-06 -2.9746833506762663e-05 0.0000000000000000e+00  -2.8468795843389778e-06 -2.0121830377564519e-05 0.0000000000000000e+00  -5.2374111940777608e-06 -1.6659422644007592e-05 0.0000000000000000e+00  1.2015212356602449e-05 -2.5725397785442757e-05 0.0000000000000000e+00  5.9950656986259687e-06 -7.1791192938013579e-05 0.0000000000000000e+00  -6.4381301439583286e-04 -2.1242200988284485e-05 0.0000000000000000e+00  -8.1432557175063644e-05 5.3858265092313767e-05 0.0000000000000000e+00  -6.7548510870941482e-05 3.4959589236241331e-06 0.0000000000000000e+00  -2.5993298657546370e-06 -3.0990798743114259e-05 0.0000000000000000e+00  -3.0189746466281235e-05 -3.7397725147328396e-05 0.0000000000000000e+00  3.0765231546381333e-05 1.7069753820214253e-05 0.0000000000000000e+00  5.3161198959653103e-05 1.6909261334265694e-05 0.0000000000000000e+00  5.3025361537110323e-05 -5.8688444081873601e-05 0.0000000000000000e+00  2.8659467070547763e-05 -6.7127169306284510e-05 0.0000000000000000e+00  1.6475129959229058e-05 2.0371654153344596e-06 0.0000000000000000e+00  -2.5631262752950256e-06 1.4234053594825016e-06 0.0000000000000000e+00  2.9204978150766507e-05 2.2923438290895599e-06 0.0000000000000000e+00  3.7725349491536184e-05 2.4228419605458777e-06 0.0000000000000000e+00  -3.0710886495503642e-05 -1.8603080307727412e-05 0.0000000000000000e+00  -7.8832440145827222e-06 -3.5641623184710399e-05 0.0000000000000000e+00  1.8026674385185489e-05 -6.2657870560319125e-05 0.0000000000000000e+00  3.3154999596312409e-05 -6.5787499160539141e-05 0.0000000000000000e+00  2.4067638549129715e-05 -3.4467555829902755e-05 0.0000000000000000e+00  8.2588555286324222e-06 -3.8330136673987639e-05 0.0000000000000000e+00  3.0523644466149127e-06 -7.7065099268477127e-06 0.0000000000000000e+00  2.3101010177199114e-04 1.1356259380323769e-05 0.0000000000000000e+00  3.2814611078725185e-04 -6.3647402291381171e-03 0.0000000000000000e+00  4.5017303630919025e-04 -3.8046655987574460e-03 0.0000000000000000e+00  8.3622292669565808e-06 5.1126794907184602e-06 0.0000000000000000e+00  5.1269743838228825e-06 -3.3869767921540203e-05 0.0000000000000000e+00  -5.0097591067402377e-06 1.1004781873098304e-05 0.0000000000000000e+00  7.9736666770265652e-06 -4.6727342952434438e-05 0.0000000000000000e+00  2.2742541344458213e-05 -7.4018077347156181e-05 0.0000000000000000e+00  4.1201118430174265e-06 -2.8331283690861598e-05 0.0000000000000000e+00  4.3430986036681405e-06 -4.4309561383990969e-06 0.0000000000000000e+00  2.5525081891246683e-05 -2.4397735424114920e-05 0.0000000000000000e+00  -3.3659160694883626e-05 -1.6137632858615988e-06 0.0000000000000000e+00  -1.9754137181171818e-05 -3.2204484194176593e-06 0.0000000000000000e+00  1.0217539894718757e-04 7.3425511738659243e-05 0.0000000000000000e+00  1.3533613512791662e-04 4.3651202701323953e-05 0.0000000000000000e+00  6.7636649158238382e-05 2.8055181555937657e-05 0.0000000000000000e+00  -5.5368802824589186e-05 -2.0095603068210328e-04 0.0000000000000000e+00  6.3942823281839395e-05 3.2075432489855351e-06 0.0000000000000000e+00  5.0513736689554692e-05 1.4907913690756218e-05 0.0000000000000000e+00  3.5247440733144041e-05 1.7292251415989098e-06 0.0000000000000000e+00  5.4159696274835471e-05 -1.9791672738620766e-05 0.0000000000000000e+00  6.0558251033201576e-05 -3.2057534365274030e-05 0.0000000000000000e+00  -3.6130610012520287e-04 -9.3479439007662386e-04 0.0000000000000000e+00  1.2673097396287316e-05 -6.4778935854915029e-06 0.0000000000000000e+00  3.7435042558019910e-05 -6.3672929807654369e-06 0.0000000000000000e+00  -3.6437281505270690e-05 9.9237720964948385e-06 0.0000000000000000e+00  -5.5977564780653109e-05 2.7713421433825338e-05 0.0000000000000000e+00  1.1357539771754752e-05 -9.5670612870845230e-06 0.0000000000000000e+00  -2.4703769608233733e-05 -1.9701781249148334e-05 0.0000000000000000e+00  -1.4771410509142194e-05 -2.6830930077190271e-06 0.0000000000000000e+00  -3.4358139357167555e-06 -4.7321085272938087e-06 0.0000000000000000e+00  2.8815052030951732e-06 -1.0556674460596529e-05 0.0000000000000000e+00  -6.150542