<?xml version="1.0"?>
<VTKFile type="UnstructuredGrid"  version="0.1"  >
<UnstructuredGrid>
<Piece  NumberOfPoints="2549" NumberOfCells="4928">
<Points>
<DataArray  type="Float64"  NumberOfComponents="3"  format="ascii">1.474981630914291 0.02405032311063162 0  1.471205968766328 0.04716125120725317 0  1.447806848376961 0.05652154755040627 0  1.435838551106787 0.07240231248502565 0  1.431030120853326 0.08360509371169902 0  1.430635256291346 0.1065505633163073 0  1.413064178608191 0.1137743518694476 0  1.399952269780098 0.105677159312654 0  1.388084492365024 0.1506311278509128 0  1.520143161918673 0.6657300107018793 0  1.386970170408843 0.1744621898062563 0  1.380949844552091 0.2155689447050182 0  1.346253318328638 0.232087935654538 0  1.3398012792962 0.2596481418191996 0  1.336670898399347 0.2905203958049665 0  1.318405227027051 0.323077307174958 0  1.310320995245954 0.3574579602385622 0  1.290469232883166 0.3683220566009552 0  1.276657763404878 0.4201186985923497 0  1.26415024450213 0.4604519851427831 0  1.244067118617274 0.5048244786201084 0  1.225754184746963 0.5504608392510247 0  1.202803181468192 0.5979253938673126 0  1.179938430658652 0.6493638181731676 0  1.155215431520763 0.706941332898822 0  1.112643191741634 0.737094214743253 0  1.086341843867472 0.7927530571627035 0  1.054126100311864 0.8506380384662298 0  1.012692623978643 0.9032910333851184 0  0.9696352272009969 0.9591369660177086 0  0.9223286167209074 1.013585639873083 0  0.8699289952534398 1.068563524192283 0  0.8141612455517608 1.121057688111751 0  0.755095579752699 1.170440107597596 0  0.6891089629778099 1.220794032360973 0  0.6203706421053835 1.267481041582101 0  0.5464806954644144 1.310540611796403 0  0.4686071400378147 1.349650093230481 0  0.3870836480970133 1.383493080397644 0  0.3016731375373319 1.412298985908782 0  0.2137947659052372 1.434905070705084 0  0.1244661610996838 1.450081858637479 0  0.03257985742896584 1.459782016542371 0  -0.05914273050746209 1.461516142767185 0  -0.1511300931081999 1.456235919613383 0  -0.2416471523152912 1.44311729960081 0  -0.3305583624577894 1.42380860731955 0  -0.4166039882333269 1.395577154282924 0  -0.4986760218518025 1.364352979877547 0  -0.5781434932805692 1.326408661725199 0  -0.6529595131024389 1.28159760469493 0  -0.7232785748309493 1.233944284705314 0  -0.7885873335229535 1.181882108061397 0  -0.84955715984624 1.127202141408334 0  -0.9042917332375106 1.070852028133237 0  -0.9578700621713163 1.010667921387988 0  -1.000397471185517 0.9578693139862088 0  -1.04574074318324 0.9048733067712449 0  -1.08511381767803 0.8431583506204576 0  -1.119903055724283 0.7856723799519049 0  -1.148624310868515 0.729333505983675 0  -1.17243183173888 0.6689523743188035 0  -1.205453058064194 0.6301136087843291 0  -1.220195923890369 0.5528853386988473 0  -1.221138342407934 0.5124590581117494 0  -1.264890807061046 0.5009039161757273 0  -1.279636758748613 0.4505122080622633 0  -1.289315125113229 0.4120064258538212 0  -1.2967715055841 0.3733561830531184 0  -1.322196432874708 0.3513489454069412 0  -1.331187317933931 0.3017499806740337 0  -1.311374499713946 0.3285504698061915 0  -1.377373860024569 0.2895326584517365 0  -1.372465231140134 0.1944656280525805 0  -1.370088146950372 0.1695019875538484 0  -1.374534263211374 0.1363625712876667 0  -1.388560207558563 0.1193788202495181 0  -1.399131724414073 0.08655217318748419 0  -1.398626402630593 0.111880920891165 0  -1.38894140376316 0.02266445071267978 0  -1.407996296976003 0.09630188044670962 0  -1.437967111322639 0.1585764092347831 0  -1.474081150318513 0.07866741087450084 0  -1.482059215417354 0.0489257848431251 0  -1.504793920802224 0.02117257341306441 0  -1.488589663603192 -0.005378962146709333 0  -1.472726940477753 -0.03871585225299201 0  -1.283545311031765 -0.5229182159461607 0  -1.395054265303971 -0.04279574689034002 0  -1.704992556497257 0.504174990662604 0  -1.441163362851201 -0.0623779853608942 0  -1.45048547300975 0.0135253166746201 0  -1.408693340956015 -0.1298279149619666 0  -1.394766309114029 -0.08756615726743415 0  -1.376023775239855 -0.1007833463792051 0  -1.381439931444656 -0.1226931462927091 0  -1.398348984180104 -0.2418843714068447 0  -1.316935586752197 -0.3426089758069263 0  -1.360928688790509 -0.2390279037560228 0  -1.358108896771147 -0.2963746792716748 0  -1.323125986171187 -0.3230738499211685 0  -1.32936103279098 -0.3607677155296583 0  -1.328360621066997 -0.4005298506028806 0  -1.347186092122838 -0.448250260830768 0  -1.239522669638587 -0.4666942176973805 0  -1.209714903219585 -0.4995603814278589 0  -1.248670225233331 -0.6155044834118953 0  -1.199005020858998 -0.6373481983399246 0  -1.187972786818256 -0.700694090605344 0  -1.163203988875346 -0.7653141374786828 0  -1.140757346371715 -0.8275669239079543 0  -1.098305220242871 -0.9091932095600657 0  -1.033044229727569 -0.9323506515732383 0  -1.007702152942484 -1.005199522765929 0  -0.9557456139821775 -1.088704425307281 0  -0.8983427647949482 -1.142128195278276 0  -0.8367162909583262 -1.210143268841154 0  -0.7703294711686072 -1.269209638128003 0  -0.6980451718453261 -1.326131343789196 0  -0.618688187851253 -1.378436704639123 0  -0.5368643295315707 -1.426587111386098 0  -0.4514232098411966 -1.46391897907051 0  -0.3587589921094443 -1.499299494470058 0  -0.2651125909838996 -1.52642315201448 0  -0.1674432376866282 -1.544851065778143 0  -0.06864616476896779 -1.554972814539625 0  0.03110120263054781 -1.556076945883237 0  0.1304463392021213 -1.548412834953524 0  0.2285000819602 -1.531849311420842 0  0.3240176755752887 -1.506990725263997 0  0.4165061935663587 -1.474792641820152 0  0.5050874165428658 -1.435365786651205 0  0.5890110219187344 -1.389833073808916 0  0.6682830254008735 -1.338779142624047 0  0.7410184925790497 -1.283819816020365 0  0.8115394796838112 -1.223740701047581 0  0.8714252260721563 -1.167423345447893 0  0.9286513868524561 -1.106457061668522 0  0.9829769464757572 -1.041771450734385 0  1.030325414944204 -0.9783864978923454 0  1.073144202923995 -0.9143792159581703 0  1.112736125936219 -0.8528784943793773 0  1.144416483872259 -0.7891858772398392 0  1.170415928590984 -0.72760527867687 0  1.208567465861329 -0.6871209286378201 0  1.231338301779364 -0.6252583179475129 0  1.252741381321232 -0.5691044134414561 0  1.272398331360218 -0.5152990454407912 0  1.281358696684832 -0.464885970850739 0  1.28707780417599 -0.4111929687362504 0  1.315211057743403 -0.383675249547902 0  1.324430094575693 -0.3085303232679483 0  1.289689406777372 -0.3142698389201714 0  1.350452336863799 -0.2756373894785144 0  1.365465657474387 -0.2283554548905844 0  1.363621122212965 -0.1971627709412221 0  1.366874835273866 -0.167570695691577 0  1.376432664245056 -0.1390151177627088 0  1.375262389386029 -0.1056673847582526 0  1.604764399285128 0.824369179880778 0  1.411703935721198 -0.08573721662325241 0  1.404756339887272 -0.09279247043005259 0  1.411764585676816 -0.06173501110220472 0  1.431647719091135 -0.04857156390414111 0  1.430915420773773 -0.02927077833067762 0  1.440572840084303 -0.01790156252813849 0  1.447605033604204 -0.003683283868228615 0  1.467651971714385 0.003966931271547841 0  -0.09650182176816637 0.8822137463077852 0  0.6906996194740168 -0.5053864720608893 0  -0.8072683905825545 -0.3852704083416349 0  -0.07653740980212176 -0.9415501958075452 0  0.6537806484022426 0.4967451171592644 0  1.093576725174979 0.1155417844460428 0  -0.7953288707990617 0.4037719726483488 0  -1.15808427897859 0.02868875923259953 0  1.102989340360645 -0.06468840384439448 0  -1.039778805930055 -0.1757855126658052 0  -0.7344112404404379 0.01422380094604057 0  -0.4392519431177933 -0.1390361560879382 0  -1.02956171053314 0.2093832823526292 0  0.3803933200263361 -0.8300828510295821 0  0.08532632897589182 -0.303118640078738 0  0.3074933336138266 0.7675108625085454 0  0.2210726638520172 0.1837207543136556 0  0.5651641645595707 0.01741735569767079 0  -0.4824057449841226 -0.6950283238523457 0  -0.5029714884096455 0.6889682616753448 0  -0.2387171693609698 0.3042972783078976 0  0.9204286961662717 -0.2128972555299816 0  0.900437226789746 0.2467569702018386 0  0.3550140726689468 -0.2134706696903655 0  -0.008726301988603614 0.2298133601433535 0  -0.4918020377245851 0.208792687406037 0  -0.1882932537874828 -0.2788068746098991 0  0.8658177396051651 0.02205156934375964 0  1.252631393747214 0.0305565872418389 0  0.806080545203847 -0.3399360533835934 0  0.7218246784269736 -0.1068991610975737 0  0.5879627324610224 -0.2071851868152994 0  0.4436792691159465 -0.07614342478949013 0  0.5155462088926686 -0.3699218216299296 0  0.8672218518245874 -0.08298677653654321 0  0.7177798869416444 0.0196038409487988 0  -0.8608581439242418 0.1223048236636341 0  -1.074675070497197 0.100519523399565 0  -0.9505785480554673 0.02265684495155025 0  -0.8679702280972174 -0.08916100688839002 0  -1.07797263225721 -0.05232123383262906 0  -1.241522349910223 -0.0808862507191927 0  -1.315226061602983 0.003830512052934187 0  -1.311728840907796 0.05897634849284126 0  -1.232109255257477 0.139996657972346 0  -0.1306945501616628 -0.6097084286054693 0  -0.3028931877885188 -0.5019721318110192 0  -0.2923136444332456 -0.8403638548065731 0  -0.3091426928048773 -0.2015207526087951 0  -0.4530767751980605 -0.4007499352201796 0  -1.231483525361598 -0.1988888610204474 0  -1.213764131414429 0.2450453521974846 0  0.3839765501540928 -0.5013358446819959 0  0.2181249342522675 -0.244923000659478 0  0.2439273879475345 -0.5594212161289609 0  -0.9129306432720007 0.2913305522733263 0  -0.7285630305479097 0.1901347940302016 0  1.272575415946692 -0.08056046769971957 0  1.209601598951099 -0.1787772470611343 0  1.191798720260432 0.2270341578649802 0  1.267338466978949 0.1398725912960044 0  -0.9133267888682979 -0.6526465479471375 0  -1.04766808194373 -0.4464908622746148 0  -1.022192488612511 0.475266796865638 0  -0.8863948602909705 0.6620471212968233 0  0.9419572915122461 -0.6057907597967809 0  0.7750692945310904 -0.8235645698346755 0  0.7336544586328639 0.7929557327481985 0  0.9027198401481765 0.6075808547576729 0  0.04339930344437255 
[...]
<PointData  Vectors="f_36524"> 
<DataArray  type="Float64"  Name="f_36524"  NumberOfComponents="3" format="ascii">-8.0726857613425879e-02 1.7577542074809439e-03 0.0000000000000000e+00  -5.0591044553236694e-02 -2.4258996646945526e-02 0.0000000000000000e+00  1.7809153400986269e-01 2.2025561980463393e-01 0.0000000000000000e+00  4.0902470399528823e-02 3.4279112057949451e-02 0.0000000000000000e+00  6.2235694674842379e-03 -2.9375782321409230e-03 0.0000000000000000e+00  -6.7895617348281312e-02 -4.7351610472427565e-02 0.0000000000000000e+00  8.0654713432102246e-02 -9.7252777654218220e-02 0.0000000000000000e+00  -9.4584981134812937e-02 4.6605026085565750e-02 0.0000000000000000e+00  1.6096936421203134e-03 2.4936396486478335e-03 0.0000000000000000e+00  -2.1768303060626822e-02 4.2684504281711505e-03 0.0000000000000000e+00  -2.8351496847140018e-02 3.5183635030511455e-03 0.0000000000000000e+00  1.1634897277253228e-01 8.1375055225996196e-02 0.0000000000000000e+00  3.7702734152402195e-01 2.8477198598603987e-01 0.0000000000000000e+00  -2.9009065398023626e-01 -5.5353588630386356e-02 0.0000000000000000e+00  -1.8571466028741043e-01 -5.8096276596723707e-02 0.0000000000000000e+00  -1.4903294993572860e-01 -6.1367632522937664e-02 0.0000000000000000e+00  2.0423972047008337e-01 1.5176574909909635e-01 0.0000000000000000e+00  5.3567100637966925e-01 3.9924365386836091e-01 0.0000000000000000e+00  2.0011460629246899e-01 6.4147720830182678e-02 0.0000000000000000e+00  -1.0293451390667516e-01 -4.1865730135987884e-02 0.0000000000000000e+00  8.1244085798747295e-03 4.1380107430695531e-03 0.0000000000000000e+00  5.6279297061832233e-02 2.5207420890393111e-02 0.0000000000000000e+00  7.5406579522339270e-02 3.5077485644906231e-02 0.0000000000000000e+00  -1.4412515856371186e-01 -6.1145793198901802e-02 0.0000000000000000e+00  4.1240881396934249e-02 2.5336658462827445e-02 0.0000000000000000e+00  6.8471065319745772e-01 5.5200695827032975e-01 0.0000000000000000e+00  4.9681530064506185e-01 2.7563039850701854e-01 0.0000000000000000e+00  -7.5438241714955862e-02 -5.5811740424231815e-02 0.0000000000000000e+00  2.3017396916379943e-02 2.0133050639633516e-02 0.0000000000000000e+00  7.3680301655306868e-02 6.0055062109464125e-02 0.0000000000000000e+00  2.1674469324509685e-02 2.0106107071831098e-02 0.0000000000000000e+00  4.8867464296576575e-02 4.9071728367299297e-02 0.0000000000000000e+00  2.2372965013730754e-02 2.5116133150840280e-02 0.0000000000000000e+00  2.1058710775522765e-02 2.6533110283199008e-02 0.0000000000000000e+00  4.2360117131714503e-02 5.9104461391911889e-02 0.0000000000000000e+00  3.4293756083251643e-02 5.4313467134034968e-02 0.0000000000000000e+00  2.8866553413972540e-02 5.3559872431321480e-02 0.0000000000000000e+00  2.8674405310781505e-02 6.2411265454128201e-02 0.0000000000000000e+00  1.8285611779633334e-02 4.8915730204483733e-02 0.0000000000000000e+00  2.0902884980763526e-02 7.0326722890633867e-02 0.0000000000000000e+00  5.6757465933903271e-03 2.5306974853540939e-02 0.0000000000000000e+00  2.8242150054555875e-03 2.1996133094619487e-02 0.0000000000000000e+00  2.2357016830401480e-03 3.2703370244623602e-02 0.0000000000000000e+00  -4.3908552007969370e-04 1.7153845208631030e-02 0.0000000000000000e+00  -5.1687230926075571e-04 7.1433765131753346e-03 0.0000000000000000e+00  -3.5397641060191912e-03 1.8410352828921457e-02 0.0000000000000000e+00  2.3601210594128147e-03 -7.4767632548307242e-03 0.0000000000000000e+00  -1.1265351251082735e-03 2.2793581598179549e-03 0.0000000000000000e+00  -1.0370847432677844e-02 2.4562246448553707e-02 0.0000000000000000e+00  8.0688721061783538e-03 -1.4855840757189787e-02 0.0000000000000000e+00  -3.2351991229798097e-03 4.7673379948995880e-03 0.0000000000000000e+00  -4.1012761068742925e-03 5.6499558865788198e-03 0.0000000000000000e+00  -7.7068923829854141e-03 9.0388472414568120e-03 0.0000000000000000e+00  -1.0725082387707332e-02 1.1149739896588438e-02 0.0000000000000000e+00  -1.1191614804857081e-02 1.0440253147367243e-02 0.0000000000000000e+00  -1.4398150484303323e-02 1.2204756405634155e-02 0.0000000000000000e+00  -1.2069511742123942e-02 1.0216462848067570e-02 0.0000000000000000e+00  7.6657766433187230e-03 -5.9134397716220470e-03 0.0000000000000000e+00  -1.8444036318271646e-02 1.1622286213314606e-02 0.0000000000000000e+00  3.6255599187762456e-03 -2.3957095197427998e-03 0.0000000000000000e+00  -1.5861946750576447e-01 7.5423553245143479e-02 0.0000000000000000e+00  -2.3384475779839275e-01 1.3352887504700353e-01 0.0000000000000000e+00  -8.8692808865230122e-02 4.0190808905281199e-02 0.0000000000000000e+00  -5.5133832906067673e-02 1.1912772461371575e-02 0.0000000000000000e+00  8.2503767555780747e-02 -6.3975172369095959e-02 0.0000000000000000e+00  -1.3609536503825104e-01 1.2933586609256759e-01 0.0000000000000000e+00  -3.8304646449947424e-02 1.3259212026937747e-02 0.0000000000000000e+00  -2.6616072029787635e-02 7.3009421462156155e-03 0.0000000000000000e+00  -7.5800359916662159e-03 1.9685736063667614e-03 0.0000000000000000e+00  -2.0788367435508968e-02 1.3296417711949756e-02 0.0000000000000000e+00  3.9897666099896943e-02 3.7606248081495514e-02 0.0000000000000000e+00  1.4344738367012029e-02 8.4449483982105035e-03 0.0000000000000000e+00  -3.4097029940897805e-02 1.8261413352591335e-02 0.0000000000000000e+00  -2.8302133408416967e-02 -1.5939138761317359e-03 0.0000000000000000e+00  4.8241672356976371e-02 -9.0979143714131443e-04 0.0000000000000000e+00  -1.2501807798518481e-03 1.9485815083427565e-05 0.0000000000000000e+00  4.9004525007080987e-03 -6.3432835480046182e-03 0.0000000000000000e+00  -1.0109906013433914e-02 -4.8329620206752450e-03 0.0000000000000000e+00  -2.5474971520650208e-01 1.2812538916443869e-02 0.0000000000000000e+00  -5.8837120743223097e-03 -8.5182201829051701e-03 0.0000000000000000e+00  1.2863805070879576e-02 1.1134149480913291e-02 0.0000000000000000e+00  -3.9023231802378243e-03 7.4741285769979104e-03 0.0000000000000000e+00  -9.0295969249205733e-03 3.8531375899690727e-03 0.0000000000000000e+00  -2.0073231545456491e-01 9.0282057188071668e-02 0.0000000000000000e+00  -2.6570805238916245e-01 1.9229861445852935e-02 0.0000000000000000e+00  3.3167333494164682e-02 2.2149083212942622e-02 0.0000000000000000e+00  -9.9588406315733909e-03 -5.2697790972612178e-03 0.0000000000000000e+00  -7.3944929584501286e-04 -5.1442500000133226e-04 0.0000000000000000e+00  6.5785006889262487e-03 3.0235424260185023e-03 0.0000000000000000e+00  4.7672902252118036e-03 3.1884136503651877e-03 0.0000000000000000e+00  5.6359076222123092e-02 8.3888396860657514e-03 0.0000000000000000e+00  5.4709632172365375e-03 2.9235193517364880e-04 0.0000000000000000e+00  -3.1315623632582722e-04 -1.8491914430101685e-02 0.0000000000000000e+00  3.4962511989070372e-01 -7.5786845215400311e-01 0.0000000000000000e+00  -1.5334198570173835e-01 2.3732212808329436e-01 0.0000000000000000e+00  -6.6645029139185699e-02 2.2920457628920303e-02 0.0000000000000000e+00  1.3911511717242414e-02 4.1743696926721833e-03 0.0000000000000000e+00  4.7457675240548065e-02 2.3192560653473755e-02 0.0000000000000000e+00  1.8399680248242462e-01 4.9743799567039171e-02 0.0000000000000000e+00  -8.8515406500405916e-02 -4.3127228724431470e-02 0.0000000000000000e+00  -3.3755366363085493e-01 -1.1265293096854777e-01 0.0000000000000000e+00  -3.3588142166975132e-01 1.4294962047581364e-02 0.0000000000000000e+00  -1.4518455643888087e-01 1.0224962533683300e-02 0.0000000000000000e+00  -3.0304757704161717e-01 -1.5891727020121155e-01 0.0000000000000000e+00  -3.2220047793609824e-01 -4.3695664583558147e-01 0.0000000000000000e+00  -5.2058573721054746e-01 -1.5575710831467121e-01 0.0000000000000000e+00  -1.1098897000896197e+00 -5.1882752267505083e-01 0.0000000000000000e+00  -8.0694898932610482e-01 -5.3520820401419189e-01 0.0000000000000000e+00  -7.3532974949286078e-01 -2.3521209829847672e-01 0.0000000000000000e+00  -1.6309391662440478e-01 -5.9063053431721461e-02 0.0000000000000000e+00  -4.2543728329122371e-01 -2.1433764322449136e-01 0.0000000000000000e+00  -2.6949476302695435e-01 -2.6471504764439435e-01 0.0000000000000000e+00  -2.6916231642239286e-01 -2.4401383893627487e-01 0.0000000000000000e+00  -5.3536716019697617e-01 -2.8650993073637532e-01 0.0000000000000000e+00  -1.1223779518230706e-03 7.0877578625728656e-03 0.0000000000000000e+00  -2.6271029928093530e-02 -2.6894443629628697e-02 0.0000000000000000e+00  -1.2482472874948874e-01 -1.2685920594467681e-01 0.0000000000000000e+00  -2.6535711221447524e-02 -3.1741007350100936e-02 0.0000000000000000e+00  -3.5031407492498522e-02 -4.8206974183449561e-02 0.0000000000000000e+00  -2.0759871108757804e-02 -3.3505458596813982e-02 0.0000000000000000e+00  -1.4209026482749850e-02 -2.7409696415275509e-02 0.0000000000000000e+00  -5.8585656700322827e-03 -1.4323865538295094e-02 0.0000000000000000e+00  -3.2830271885639028e-03 -9.6185379339882651e-03 0.0000000000000000e+00  -1.4551205841194991e-03 -6.0667886507228853e-03 0.0000000000000000e+00  -7.5121773560190154e-04 -4.9929499032458141e-03 0.0000000000000000e+00  -3.9718621402037019e-05 -1.3382234227684066e-03 0.0000000000000000e+00  2.2774959467037348e-04 -7.4444768616856952e-03 0.0000000000000000e+00  1.0238348276705763e-03 -7.3727944725346245e-03 0.0000000000000000e+00  6.6462499799762320e-03 -3.0627639045783559e-02 0.0000000000000000e+00  1.1874661448924816e-02 -3.8996647879681420e-02 0.0000000000000000e+00  1.7934634978779899e-02 -4.5081099869039173e-02 0.0000000000000000e+00  2.8193405270425225e-02 -5.7155498424771072e-02 0.0000000000000000e+00  3.4048293317965994e-02 -5.7513075745255160e-02 0.0000000000000000e+00  4.6098139542834392e-02 -6.5982586194920409e-02 0.0000000000000000e+00  5.2441908411398098e-02 -6.5661204589723729e-02 0.0000000000000000e+00  3.0047988771414392e-02 -3.3697311513834122e-02 0.0000000000000000e+00  4.3056201290382234e-02 -4.2864542063437872e-02 0.0000000000000000e+00  6.6898866310009603e-02 -5.9323753712843680e-02 0.0000000000000000e+00  5.6005237192908675e-02 -4.4616826665719804e-02 0.0000000000000000e+00  7.9440053267782140e-02 -5.6124809821257400e-02 0.0000000000000000e+00  3.3577645362964800e-02 -2.3171561792062145e-02 0.0000000000000000e+00  -2.7526745165136098e-02 1.8503654812931092e-02 0.0000000000000000e+00  4.6954661416234766e-01 -2.2983017363570279e-01 0.0000000000000000e+00  8.2225210483107281e-01 -5.1979876071302700e-01 0.0000000000000000e+00  -3.0748889426650289e-01 1.8628719029566845e-01 0.0000000000000000e+00  -1.3613479473517587e-01 5.4274821616726268e-02 0.0000000000000000e+00  5.5392467591469360e-02 -2.0322566132680710e-02 0.0000000000000000e+00  1.8716856634199058e-01 -4.6934365208589651e-02 0.0000000000000000e+00  3.4209416010676486e-01 -6.8626588966312255e-02 0.0000000000000000e+00  9.0784477587101953e-01 -4.1239955642380660e-01 0.0000000000000000e+00  1.7530724164837302e-01 -7.7018078035395954e-02 0.0000000000000000e+00  -8.9526204252588781e-02 -8.1394109879646750e-02 0.0000000000000000e+00  -7.2790380482721462e-02 -5.5276120663034552e-03 0.0000000000000000e+00  -3.8203935683477699e-02 2.0250732237999912e-02 0.0000000000000000e+00  -2.0692050043204693e-02 6.9877376105306425e-03 0.0000000000000000e+00  -1.5772151763092823e-02 6.6465192246088333e-04 0.0000000000000000e+00  5.1968719511436202e-02 -8.8405246038892066e-03 0.0000000000000000e+00  3.6249256833640948e-02 -5.1807236503598709e-03 0.0000000000000000e+00  -8.3035586304275951e-04 4.6736389183783644e-05 0.0000000000000000e+00  -3.9755180416875633e-04 8.2331781235785341e-05 0.0000000000000000e+00  -2.1914149789211139e-04 -7.4836339385357857e-05 0.0000000000000000e+00  -8.2647904046085185e-02 -1.4933237433136820e-01 0.0000000000000000e+00  -4.0798786830522495e-02 -6.1566421175576452e-02 0.0000000000000000e+00  5.4547637698035223e-02 5.1781290261116927e-02 0.0000000000000000e+00  1.1295026557624178e-01 -2.4972133864548506e-02 0.0000000000000000e+00  5.9553905002187796e-02 -5.1100443977025407e-02 0.0000000000000000e+00  3.4622145673209925e-01 -3.6726122590345167e-01 0.0000000000000000e+00  -8.9859326277700290e-03 -8.5627979747274138e-03 0.0000000000000000e+00  -7.8166585245090583e-10 9.9404427789008780e-09 0.0000000000000000e+00  4.2168113975787226e-08 -2.6218209029583447e-08 0.0000000000000000e+00  -2.6865347471203666e-07 -1.1579178946996597e-07 0.0000000000000000e+00  -1.1852655429451275e-09 -7.6109547803950452e-09 0.0000000000000000e+00  3.1399098692726878e-08 2.2236179656867664e-08 0.0000000000000000e+00  2.7144730039550174e-08 3.0865677088748327e-08 0.0000000000000000e+00  -5.9839713145627281e-08 3.0016856839204606e-08 0.0000000000000000e+00  -4.8844999932711046e-08 -3.3238857587073826e-08 0.0000000000000000e+00  2.7846422830686968e-09 -4.9410592222105479e-10 0.0000000000000000e+00  -7.2426356699353584e-08 -1.3950761520164814e-08 0.0000000000000000e+00  -2.0743200613936838e-13 -7.0183753883958602e-14 0.0000000000000000e+00  -2.4276379685155489e-13 -1.6318640774938081e-13 0.0000000000000000e+00  -4.8683970284635158e-09 3.3353504570771069e-09 0.0000000000000000e+00  2.1187855020037270e-08 -3.5204460067419055e-08 0.0000000000000000e+00  7.5372699924653713e-15 -2.6207944594482808e-14 0.0000000000000000e+00  1.6343902645017666e-08 3.0350460880206633e-08 0.0000000000000000e+00  2.4222047334328652e-14 2.7375305192334634e-14 0.0000000000000000e+00  1.2149749714418570e-13 2.9391318785195571e-14 0.0000000000000000e+00  -4.7429767475526563e-08 -4.6367281503449882e-08 0.0000000000000000e+00  -7.6962159425724112e-09 8.8915596571465499e-09 0.0000000000000000e+00  -4.4443626516729308e-15 1.0677221760541340e-14 0.0000000000000000e+00  1.3832562626278920e-07 -4.7181888839720991e-08 0.0000000000000000e+00  1.8966169477900456e-08 1.0294718682527059e-08 0.0000000000000000e+00  4.8548377849697663e-14 -4.8060065004268810e-14 0.0000000000000000e+00  9.7873315814317219e-15 3.7150534805851502e-14 0.0000000000000000e+00  -1.6600656850910481e-14 1.2631867808135564e-14 0.0000000000000000e+00  -1.8589945898787129e-14 -3.0963085801547828e-14 0.0000000000000000e+00  6.8619992822581405e-14 1.4468981568276786e-14 0.0000000000000000e+00  3.6071524136137293e-08 -3.5991542322369035e-09 0.0000000000000000e+00  -1.1091472647093902e-08 5.9354056620534279e-09 0.0000000000000000e+00  5.6869646233217844e-11 -1.7901626034732880e-11 0.0000000000000000e+00  1.8136112028394182e-10 -1.0173350083955475e-10 0.0000000000000000e+00  7.2926261781929679e-14 -4.5631926116774667e-14 0.0000000000000000e+00  4.4552348078784438e-11 -3.5117312884369091e-11 0.0000000000000000e+00  9.7777441666254369e-11 -4.1374397627198927e-11 0.0000000000000000e+00  1.8864000428818277e-13 -4.6840446823184055e-14 0.0000000000000000e+00  -3.3443255056604358e-11 2.1278779006980799e-11 0.0000000000000000e+00  -1.6243108289877200e-08 7.1940788660389991e-09 0.0000000000000000e+00  1.5518323298858584e-11 -3.1362782211398987e-11 0.0000000000000000e+00  -1.3110363129619084e-10 -3.4939262655846988e-11 0.0000000000000000e+00  -5.5856731257318389e-09 -3.8088104933247405e-09 0.0000000000000000e+00  9.8444639096413460e-06 9.9719187098074144e-07 0.0000000000000000e+00  -1.3373849286648534e-05 -8.0726236622505406e-06 0.0000000000000000e+00  -6.3619267296468042e-05 9.2984609470508159e-06 0.0000000000000000e+00  4.3670839855002864e-06 1.3420342819072165e-06 0.0000000000000000e+00  -4.8158992970327146e-12 -1.2422448615215608e-11 0.0000000000000000e+00  -2.7717884133519800e-11 -3.4863357828279220e-11 0.0000000000000000e+00  -9.9452383702734422e-09 -1.7573108525670423e-08 0.0000000000000000e+00  -7.2181140554242184e-14 -6.6231377654170754e-14 0.0000000000000000e+00  -1.0315692091213239e-10 -6.7651992087574148e-11 0.0000000000000000e+00  -4.6473507353949235e-06 -1.8200184148728829e-06 0.0000000000000000e+00  -1.0218443592053330e-06 2.3094721334809801e-06 0.0000000000000000e+00  3.1799318870459966e-11 -4.0811540020130645e-11 0.0000000000000000e+00  2.9932038593414927e-14 -4.9403318622713860e-14 0.0000000000000000e+00  1.5376487134765620e-11 -3.5535336028764963e-11 0.0000000000000000e+00  -1.0166894460886524e-08 6.0219602897130924e-09 0.0000000000000000e+00  -5.8954604152717376e-11 2.8702580920729032e-11 0.0000000000000000e+00  -1.1261084069494783e-06 1.7617436743767718e-07 0.0000000000000000e+00  7.8095877466478997e-06 -2.1282682672772883e-06 0.0000000000000000e+00  -3.7020400595678721e-05 -7.6635656907991447e-06 0.0000000000000000e+00  1.7824101153709792e-05 6.7156391879969905e-06 0.0000000000000000e+00  -1.6404314093275286e-04 -8.5176985340683570e-05 0.0000000000000000e+00  -3.3515138329083430e-04 -1.5793778239062102e-04 0.0000000000000000e+00  -3.7563355998307818e-05 1.7146431653738030e-05 0.0000000000000000e+00  -1.0566156394674036e-05 5.8811632843841048e-06 0.0000000000000000e+00  1.3143994330659840e-04 -6.8786472072972186e-05 0.0000000000000000e+00  2.8168853031388651e-05 -2.2162026836956928e-05 0.0000000000000000e+00  1.6188512595742601e-05 1.4298331296146433e-05 0.0000000000000000e+00  1.2908130317972741e-04 7.8577450244114930e-05 0.0000000000000000e+00  5.2466129147910249e-07 -7.1543740819857777e-06 0.0000000000000000e+00  -2.7432281248466829e-06 -7.5490110130903700e-06 0.0000000000000000e+00  -7.8247529515992753e-07 2.5870762528690977e-06 0.0000000000000000e+00  9.1497199668589476e-07 1.3430842958306097e-05 0.0000000000000000e+00  2.7753870761998456e-08 -2.7409226743694696e-08 0.0000000000000000e+00  5.5581758163813335e-14 4.0141216680404214e-14 0.0000000000000000e+00  1.4435032891334456e-10 9.6296895436978881e-11 0.0000000000000000e+00  2.4651182738068443e-11 2.1905732617829669e-11 0.0000000000000000e+00  -2.2345475260564140e-10 -1.2547493442775102e-10 0.0000000000000000e+00  -4.1243598957101692e-13 -1.9196622807572228e-13 0.0000000000000000e+00  -3.5954639797210418e-10 -1.7543866517471581e-10 0.0000000000000000e+00  2.5169163504913181e-14 4.7073658258875055e-14 0.0000000000000000e+00  1.3956564777391275e-17 2.8996362377321022e-17 0.0000000000000000e+00  4.1133386030776260e-17 -3.6336453718715229e-18 0.0000000000000000e+00  -8.5453733410508306e-05 -1.6773588171501392e-05 0.0000000000000000e+00  -2.4564796966325596e-05 1.2475041014302997e-05 0.0000000000000000e+00  -1.1246457426675432e-07 -5.7440732102621488e-08 0.0000000000000000e+00  2.8329468690319661e-11 1.8166932311429174e-11 0.0000000000000000e+00  3.1913334561014879e-08 2.5656643825338628e-08 0.0000000000000000e+00  7.2807164357842478e-11 4.5938302842501006e-11 0.0000000000000000e+00  2.1678546981568818e-11 3.1488003084195325e-11 0.0000000000000000e+00  1.6097876042706071e-08 1.8053101951357570e-08 0.0000000000000000e+00  1.0365813865096445e-12 -1.1050377035799830e-11 0.0000000000000000e+00  4.4884554899654685e-09 -1.6863250882434296e-08 0.0000000000000000e+00  -5.1641050176288500e-12 7.7563792883986365e-12 0.0000000000000000e+00  -1.6428208269214478e-12 7.0505103082508065e-12 0.0000000000000000e+00  -3.1240892657360522e-09 7.3967378240456573e-09 0.0000000000000000e+00  1.3087628058697722e-16 -6.2018542414072671e-17 0.0000000000000000e+00  -2.2727003645434806e-15 -1.4243600791904352e-14 0.0000000000000000e+00  2.1002419255275448e-05 -2.6731744821069772e-05 0.0000000000000000e+00  9.0932047536686226e-06 -2.1803387572851818e-05 0.0000000000000000e+00  8.9830087341801511e-06 2.3314673531491058e-05 0.0000000000000000e+00  1.4652018666231729e-05 2.0945480126211036e-05 0.0000000000000000e+00  -7.2200706374791290e-18 -5.9499895153144214e-18 0.0000000000000000e+00  1.4439810215147767e-11 3.7084745017095434e-11 0.0000000000000000e+00  5.2622899391254593e-09 2.1042488293398251e-08 0.0000000000000000e+00  -1.6939615294141170e-05 -2.2182966478799944e-05 0.0000000000000000e+00  -3.9490548944606429e-05 -2.7666945377796157e-05 0.0000000000000000e+00  -1.4771219269052662e-07 -1.0382128072744942e-07 0.0000000000000000e+00  -7.2344071260325976e-06 6.7382010681771360e-06 0.0000000000000000e+00  -3.2484411714381456e-06 5.0539511191472580e-06 0.0000000000000000e+00  -8.6385039931750365e-09 6.7915197031666670e-09 0.0000000000000000e+00  -7.7063200821556116e-14 3.8861870202316489e-14 0.0000000000000000e+00  