<?xml version="1.0"?>
<VTKFile type="UnstructuredGrid"  version="0.1"  >
<UnstructuredGrid>
<Piece  NumberOfPoints="2549" NumberOfCells="4928">
<Points>
<DataArray  type="Float64"  NumberOfComponents="3"  format="ascii">1.473403874342973 0.03191745664817678 0  1.469006687948756 0.05495770150123924 0  1.445257754917852 0.06382438635291013 0  1.433176975206809 0.08001465880635267 0  1.428071943677687 0.09201547643731162 0  1.423677018435114 0.1155900557324889 0  1.404260325650583 0.1201526440008067 0  1.373501643841821 0.1264235397232145 0  1.394839991146794 0.1531777786179525 0  1.195081037750726 0.3974574540729673 0  1.386794118634233 0.1768511041346873 0  1.377784831446575 0.2139851928542062 0  1.339374840211271 0.2316131537938729 0  1.337525494197185 0.2589500464547553 0  1.334336075188132 0.2905974274943028 0  1.31603814768031 0.3232623581666093 0  1.308031960638103 0.3578623092998088 0  1.287480633765328 0.3685819026839668 0  1.273553137803415 0.4198086520738731 0  1.2617725909843 0.4604731344588099 0  1.241599418266295 0.5047456981868843 0  1.223548142259627 0.5503877797958703 0  1.200893949936197 0.5978524773475616 0  1.17800851915137 0.6492612730447883 0  1.15333740019847 0.7063645830526283 0  1.111706633715777 0.7375924118930375 0  1.085070018029611 0.7929028245230915 0  1.052847784564305 0.8503923678847221 0  1.011747024523934 0.9033698785319498 0  0.9689113908451252 0.9591592695758184 0  0.9217741500184924 1.013729967137824 0  0.8695983417627742 1.068826955775921 0  0.8139423426412757 1.121424733166935 0  0.7549743077491766 1.170904636517414 0  0.689140141006038 1.221440319646125 0  0.620485877896419 1.268278170575623 0  0.5466175003987793 1.311488370989656 0  0.4687778601056338 1.350753239107743 0  0.3872101413085511 1.384711547339879 0  0.3017768622481667 1.413695667724688 0  0.2137999895696742 1.436338220216474 0  0.1243533243274027 1.451574177606834 0  0.03239308761883896 1.461370590894293 0  -0.0594887340843286 1.463119933091049 0  -0.1515831794120817 1.457833156687959 0  -0.2422678582263161 1.44470429514585 0  -0.3312694479644944 1.425290006838556 0  -0.4174626059523758 1.396984074435263 0  -0.4996203745598734 1.365654084019001 0  -0.5791702240132 1.327547778869264 0  -0.6540413741234399 1.282575315945345 0  -0.7243643390309434 1.2347105338056 0  -0.7896451488918014 1.182452790392297 0  -0.8505613002916056 1.127550951212062 0  -0.9051515791612651 1.07097783181379 0  -0.9585777794577164 1.01056663505504 0  -1.001012566979806 0.9577055882707065 0  -1.046160009030479 0.9043626934188801 0  -1.08531231461277 0.8425714562807395 0  -1.11974184608835 0.7848570299357887 0  -1.148630379222513 0.7286157458388566 0  -1.172413575341801 0.6682726739537034 0  -1.20475153804626 0.6286595307384739 0  -1.218862938090823 0.5515212816128581 0  -1.219186105233294 0.5114566353316725 0  -1.263491020303941 0.5009488724740078 0  -1.278468169948164 0.4501764747182449 0  -1.28794982040186 0.4115168226468405 0  -1.295154415967271 0.3729292382131529 0  -1.320746108991613 0.3509110016296845 0  -1.329829416317356 0.3015462597095535 0  -1.305472804886359 0.3240231007481312 0  -1.376368963801367 0.2892534742084784 0  -1.370755948246574 0.1943579132106133 0  -1.367898097975714 0.1695139521372042 0  -1.372202220056863 0.1366626250281429 0  -1.386577942218755 0.1201413619378975 0  -1.397910802934263 0.0875454187453875 0  -1.396467893662532 0.1127509351416373 0  -1.386868080858995 0.02385273844348446 0  -1.400761381945614 0.09678494875269729 0  -1.418362913645792 0.1605413461751491 0  -1.467884656268095 0.08663781349090963 0  -1.478080399448071 0.05723442042470098 0  -1.503206007301313 0.03127985526071971 0  -1.488118258089892 0.003794272965299762 0  -1.47446258072624 -0.02870019721199948 0  -1.497662345029968 -0.4891692403856718 0  -1.398318423845134 -0.04245319258660787 0  -1.346269213751971 0.4609466368224464 0  -1.442742520984093 -0.05787040702284777 0  -1.453958561972657 0.01680910372971222 0  -1.418725313399215 -0.1223676902772342 0  -1.392596295237418 -0.08633447620885394 0  -1.376316015217816 -0.100032038757415 0  -1.382588717089693 -0.1231220330521806 0  -1.398763942731964 -0.2405873741078867 0  -1.329418981020955 -0.3473498828161488 0  -1.360674836256266 -0.2392699910462781 0  -1.357804229467688 -0.2969230861694666 0  -1.323732997837772 -0.3238538019629059 0  -1.329627755426275 -0.3617098999840989 0  -1.327918809221292 -0.401268441836485 0  -1.347914961729994 -0.4485120487047395 0  -1.238732780489674 -0.4669021272957138 0  -1.209074428151029 -0.4999561076090758 0  -1.251880476452862 -0.6173641199697175 0  -1.199774438100674 -0.637520922236344 0  -1.189068067803279 -0.7019872477090731 0  -1.162632255987803 -0.765577764501668 0  -1.141904752412034 -0.8290327798488499 0  -1.098075266889441 -0.9096172219074717 0  -1.032800933719831 -0.9334798280918986 0  -1.009117443746535 -1.006820105726102 0  -0.9550148927298613 -1.089255158630591 0  -0.8979662408105921 -1.143111814055399 0  -0.8367884080114687 -1.211618182466339 0  -0.7700030696771953 -1.270665801897421 0  -0.6977051490480399 -1.327766664802051 0  -0.6181715782349524 -1.380229065463734 0  -0.5361659460415386 -1.428463956133347 0  -0.450519848838334 -1.465876623681223 0  -0.3576089942677313 -1.5012639549686 0  -0.2637312502645774 -1.528416209562828 0  -0.165810755162024 -1.546819300319527 0  -0.06675160445414269 -1.556840493651767 0  0.03323483605362352 -1.557850938086321 0  0.1328174179738335 -1.549991587995255 0  0.2310832805713884 -1.533286801283131 0  0.3267903355747492 -1.50820982066927 0  0.4194306010509858 -1.475726122858073 0  0.5081196512667953 -1.436021492779065 0  0.5921026599079267 -1.390175642894573 0  0.6713962982317416 -1.338783947492003 0  0.7440895477027136 -1.283509328114942 0  0.8144159427026221 -1.223012274544587 0  0.8742629713930495 -1.166475983764983 0  0.9314409206133161 -1.105283438746198 0  0.9855417660138684 -1.040289042214992 0  1.032634699293409 -0.9766062892197889 0  1.075282073732782 -0.9125274753470567 0  1.114101168415417 -0.8504408043091276 0  1.146697943737142 -0.7876481214998073 0  1.174277311990216 -0.7263979625625515 0  1.208202572640636 -0.6825970719868978 0  1.231361144090619 -0.6223583528463154 0  1.253944771021994 -0.5663685905756446 0  1.271749408378069 -0.5122196301247161 0  1.284350198640254 -0.4632316692583446 0  1.289474433675746 -0.4086389834452578 0  1.315761008929962 -0.3816604100108008 0  1.31832654570953 -0.3020259379841432 0  1.296530422039256 -0.3174863939830931 0  1.349217508900341 -0.2736102244024213 0  1.366853309503127 -0.2255957387363322 0  1.362419179535173 -0.1943146493591419 0  1.367383483079509 -0.1646594037175514 0  1.377057469105359 -0.1364735920192769 0  1.375430403019848 -0.1020698892182732 0  1.36370135548303 0.8234777832622094 0  1.409580040058276 -0.07854638763085547 0  1.404597082788759 -0.08707299679316728 0  1.411884329931807 -0.05653233205691346 0  1.430684830035288 -0.04305934920237457 0  1.430024718786663 -0.02285823396848187 0  1.439645972817388 -0.01189893700515141 0  1.446368124592104 0.003660877992964281 0  1.466194684424374 0.01154715595970249 0  -0.09679991809546323 0.8836575667098975 0  0.6909864781320396 -0.5049002092994613 0  -0.8067063235062281 -0.3860866491514889 0  -0.07530286222984203 -0.943492788417343 0  0.6519310798936931 0.4973636064238051 0  1.091138609616664 0.1166360043890611 0  -0.7944677078520672 0.4037181402147084 0  -1.157192435568319 0.02818580519278244 0  1.101790729022265 -0.06307224602244793 0  -1.039380405126085 -0.1761973311532238 0  -0.7337457817012178 0.01370030565991909 0  -0.4390560084262223 -0.1400541383095716 0  -1.02835756204416 0.2089065794657474 0  0.3816504402606699 -0.8309404267799447 0  0.08472809162894825 -0.3046532523250076 0  0.3065962585274143 0.7686011879685855 0  0.2197354712734836 0.183866478693496 0  0.5636109673513169 0.01762867580530443 0  -0.4816400485476041 -0.6967344057722177 0  -0.5028224121487707 0.6898772425627239 0  -0.2388709303021873 0.3047575324470902 0  0.919729920099433 -0.2116196188537044 0  0.8980486561535164 0.2474420968129657 0  0.3542213404924784 -0.2142537086256489 0  -0.009885531101609116 0.2299570322916046 0  -0.4914635276796665 0.2088794511356123 0  -0.1883142581432099 -0.2801725812910507 0  0.8640466145209685 0.02286904230692543 0  1.250784626608497 0.03251591414741711 0  0.8058030906784284 -0.3389859997553324 0  0.720573552935493 -0.1063504222791892 0  0.5870824654283278 -0.2070955537385406 0  0.4424855850584974 -0.0763837135000827 0  0.5152248926390098 -0.3701948207035075 0  0.8658936342090517 -0.08204768562987595 0  0.7160983594968815 0.02012775554167801 0  -0.8599636186927423 0.121849490363021 0  -1.073597117031887 0.1000104293767874 0  -0.949772801455517 0.02212671887363805 0  -0.8673347191015369 -0.08973147762062855 0  -1.077407870404139 -0.05281382708097259 0  -1.241535672247243 -0.08124810948646788 0  -1.314339827890701 0.003634430462960261 0  -1.310012585841424 0.0589431638507743 0  -1.230520862444505 0.1397855885364069 0  -0.1298785521501452 -0.6116321134335727 0  -0.3021791647849251 -0.5038208799474174 0  -0.2913336366243651 -0.8423361567848829 0  -0.3091392996331759 -0.2027690659777196 0  -0.4525054570469215 -0.402311479528047 0  -1.23150592433339 -0.1991258116053239 0  -1.212287933156574 0.244769814493746 0  0.3840684387532903 -0.5021784050688528 0  0.2174331402506094 -0.2461996927357294 0  0.244197000105431 -0.5607389244342055 0  -0.91184530186188 0.290967618513461 0  -0.7277933681850615 0.1898817967814485 0  1.2721695715854 -0.07794319486726743 0  1.209234513529359 -0.1762270836997171 0  1.188724847456974 0.2280382136297952 0  1.264241487309786 0.1413911587762696 0  -0.9128737187334359 -0.6534487369861319 0  -1.047048538710231 -0.4469046038891205 0  -1.021008909850462 0.4748298450050991 0  -0.8859358769869852 0.6620382370635396 0  0.9427907296196749 -0.6042085870832451 0  0.776606313218438 -0.8227353987866338 0  0.7324680688333889 0.7934787647362348 0  0.9008819555883799 0.6079890465573312 0  0.045163277157299
[...]
<PointData  Vectors="f_31755"> 
<DataArray  type="Float64"  Name="f_31755"  NumberOfComponents="3" format="ascii">-5.9665085990264344e-01 1.4311318675371536e-02 0.0000000000000000e+00  -6.3908968807499256e-01 -4.1794751310475853e-01 0.0000000000000000e+00  3.2580446091108890e-02 2.9505501774550047e-01 0.0000000000000000e+00  2.1305116746911826e-01 2.8131609366122257e-01 0.0000000000000000e+00  2.2398283807794389e-01 -8.6283148761534187e-02 0.0000000000000000e+00  -2.2797011807523826e+00 -9.5641497798615482e-01 0.0000000000000000e+00  -4.8682930721482327e+00 5.5072246345007680e-01 0.0000000000000000e+00  -8.0562893926115589e+00 3.5093070657481800e+00 0.0000000000000000e+00  6.4258821222732931e-01 -1.4307445447844149e-02 0.0000000000000000e+00  2.8922891849379279e-01 1.4677164749200844e-01 0.0000000000000000e+00  5.3749430581198610e-01 4.3702955787606784e-01 0.0000000000000000e+00  -1.1194477135135312e+00 -4.6843386187413399e-01 0.0000000000000000e+00  -4.7686432640215317e+00 -2.3901387069773246e+00 0.0000000000000000e+00  -1.4966345037887158e-01 7.5658089298096354e-01 0.0000000000000000e+00  8.5479786047569251e-01 5.4865057957306151e-01 0.0000000000000000e+00  6.7330863559749243e-01 2.7993118738524653e-01 0.0000000000000000e+00  2.6505258166810736e-01 9.8965469506038892e-02 0.0000000000000000e+00  -1.1615437586060071e-01 2.8415517197293128e-02 0.0000000000000000e+00  -1.2348624272799763e-01 1.0190197745145498e-01 0.0000000000000000e+00  6.0882088163855173e-02 6.9772533654694130e-02 0.0000000000000000e+00  -5.9668911581954847e-03 6.0079498871782218e-03 0.0000000000000000e+00  2.4133983151359711e-02 1.6024156980567625e-02 0.0000000000000000e+00  1.3906265449680356e-02 1.8334111394537944e-02 0.0000000000000000e+00  -3.0920714725416319e-02 6.3330806082169738e-03 0.0000000000000000e+00  6.7971422070813997e-02 5.5713218709087197e-05 0.0000000000000000e+00  5.4591079921872376e-01 5.4350304818659467e-01 0.0000000000000000e+00  3.5434216689508341e-01 1.8075465578960009e-01 0.0000000000000000e+00  1.4441855066544620e-02 -4.4479720667936005e-02 0.0000000000000000e+00  2.0622893178663112e-02 8.6297877596521275e-03 0.0000000000000000e+00  6.9478829725590274e-02 5.2480277173362698e-02 0.0000000000000000e+00  3.0561360727782986e-02 2.5798276528694056e-02 0.0000000000000000e+00  5.4077075681453486e-02 5.0393773920020743e-02 0.0000000000000000e+00  2.8964028293384615e-02 2.8578832253480881e-02 0.0000000000000000e+00  2.7248139926875730e-02 3.1902495476798277e-02 0.0000000000000000e+00  4.8767867711826028e-02 6.4569854717485317e-02 0.0000000000000000e+00  4.1481767633336240e-02 5.9849311908118132e-02 0.0000000000000000e+00  3.5300516706852733e-02 6.0811739534341207e-02 0.0000000000000000e+00  3.4294062158444445e-02 6.7609448591135157e-02 0.0000000000000000e+00  2.3462506174912565e-02 5.6803334136356437e-02 0.0000000000000000e+00  2.5154510827188812e-02 7.4769746640422435e-02 0.0000000000000000e+00  9.4315597324788284e-03 2.9301918318640739e-02 0.0000000000000000e+00  4.4589916143978701e-03 2.7197293653287880e-02 0.0000000000000000e+00  4.5603050635551982e-03 3.5594476296016364e-02 0.0000000000000000e+00  2.1446097732106699e-04 1.9996644035147018e-02 0.0000000000000000e+00  -1.0603586244912321e-05 1.2847895167459112e-02 0.0000000000000000e+00  -3.7620448479871844e-03 1.8986168734787975e-02 0.0000000000000000e+00  8.1494851381162792e-04 5.4442462075717218e-04 0.0000000000000000e+00  -4.1498549643009834e-03 7.7195841998461481e-03 0.0000000000000000e+00  -8.4597891819076110e-03 1.8795779617505396e-02 0.0000000000000000e+00  -6.3251248249615562e-03 8.3512352020466574e-03 0.0000000000000000e+00  -1.3823225502215472e-02 1.8140840968316006e-02 0.0000000000000000e+00  -1.7802622481214458e-02 2.0411086999929624e-02 0.0000000000000000e+00  -2.3320718075155910e-02 2.4214488168167084e-02 0.0000000000000000e+00  -3.3679208284686055e-02 3.1247544668424210e-02 0.0000000000000000e+00  -2.5788482412965209e-02 2.2150880606830833e-02 0.0000000000000000e+00  -4.0578709470419229e-02 3.3306984712833020e-02 0.0000000000000000e+00  -2.5942254996915774e-02 2.1214328628137654e-02 0.0000000000000000e+00  1.8570763773755512e-02 -2.6102369610184903e-02 0.0000000000000000e+00  -3.8089683890694941e-02 2.1034038363189293e-02 0.0000000000000000e+00  -4.2156966749695539e-03 -8.2774034197638912e-03 0.0000000000000000e+00  -3.8005358156941715e-01 1.7998780499762770e-01 0.0000000000000000e+00  -5.3405194978148285e-01 3.1884000915997718e-01 0.0000000000000000e+00  -2.0277061490568793e-01 3.6116460956205861e-02 0.0000000000000000e+00  -1.8172325796979844e-01 4.3526831174290903e-02 0.0000000000000000e+00  1.3265127429981280e-01 1.2865327149912392e-01 0.0000000000000000e+00  -2.2070915988001574e-01 1.9307088854454993e-01 0.0000000000000000e+00  -6.0249116705051307e-02 -3.5089193072105347e-02 0.0000000000000000e+00  1.5182039066417618e-02 5.5965838987510090e-03 0.0000000000000000e+00  7.6627087061969523e-02 -5.3672698555652786e-02 0.0000000000000000e+00  -1.2516310769934819e-01 -2.0501264683468346e-02 0.0000000000000000e+00  -6.1700140790445235e-01 -5.8759960943790178e-02 0.0000000000000000e+00  -2.6517095468744221e-02 -1.4657287002923783e-01 0.0000000000000000e+00  -1.0255278467258651e-01 6.4991070721828357e-03 0.0000000000000000e+00  -5.4500742178183910e-02 -3.4016004997948296e-02 0.0000000000000000e+00  -6.8289901131630346e-02 5.1569385650653346e-02 0.0000000000000000e+00  -6.8089204592764838e-02 4.0987249417893605e-02 0.0000000000000000e+00  -1.2372435130718622e-01 2.0579911911378237e-01 0.0000000000000000e+00  3.7080944094215956e-01 -4.3852233627447633e-02 0.0000000000000000e+00  3.6024238257426067e-01 1.2950439580314464e-02 0.0000000000000000e+00  1.3820796665285426e-01 8.1407137035019294e-03 0.0000000000000000e+00  9.4616260898225141e-02 -5.2327438102114654e-03 0.0000000000000000e+00  1.2554050000708819e-01 -7.7496331138825647e-02 0.0000000000000000e+00  -3.6433423110375858e-03 -1.1881470786317138e-02 0.0000000000000000e+00  2.1976960851522349e-02 -1.1639532532516568e-01 0.0000000000000000e+00  -5.2759445847602093e-01 -1.1213525141104445e-01 0.0000000000000000e+00  -3.0050361187755481e-01 -2.1135864887056277e-01 0.0000000000000000e+00  5.6885481875185639e-03 -1.4169519404600209e-02 0.0000000000000000e+00  4.6581669163585655e-03 -3.0308267623989573e-03 0.0000000000000000e+00  6.6203432988166302e-03 -1.6081675669691500e-03 0.0000000000000000e+00  -1.9164631093592267e-02 3.2319653992590957e-03 0.0000000000000000e+00  -1.8219401858597725e-01 1.4403712449641179e-02 0.0000000000000000e+00  -3.0679015256010483e-01 -1.7744592820019611e-01 0.0000000000000000e+00  -6.9951566873879800e-01 -7.0733872911130335e-01 0.0000000000000000e+00  9.5547659829962883e-01 -6.2645769943271716e+00 0.0000000000000000e+00  -2.2024018889767714e+00 1.8574934470440277e-01 0.0000000000000000e+00  -3.4153294758924785e-01 2.6431015961959820e-01 0.0000000000000000e+00  4.0618987648182413e-02 1.1068972583482335e-01 0.0000000000000000e+00  1.3321111584913700e-01 4.9928992123617143e-02 0.0000000000000000e+00  3.7683132691173893e-01 2.6353101935050048e-02 0.0000000000000000e+00  -1.3123936668372407e-01 -6.6185323467264370e-02 0.0000000000000000e+00  -9.1480373642914825e-01 -5.4683571338018662e-02 0.0000000000000000e+00  -7.8630084627894947e-01 2.5638887418125189e-01 0.0000000000000000e+00  -2.2101142682569627e-01 3.2411810520461694e-02 0.0000000000000000e+00  -5.6733678525512954e-01 -1.0742105443576389e-01 0.0000000000000000e+00  -1.3953132574889633e+00 -5.4215131147827222e-01 0.0000000000000000e+00  -1.1398702728459360e+00 -3.7457569223759807e-01 0.0000000000000000e+00  -1.9029587362770335e+00 -1.2136084388815338e+00 0.0000000000000000e+00  -1.2328680496268967e+00 -3.8252874585294805e-01 0.0000000000000000e+00  -1.4389829112242103e+00 -1.9924696443751339e-01 0.0000000000000000e+00  -3.6550884074316387e-01 -4.7976197323109357e-02 0.0000000000000000e+00  -7.9764210542838920e-01 -4.1268236284518345e-01 0.0000000000000000e+00  -4.1272657672506208e-01 -2.0959021376513737e-01 0.0000000000000000e+00  -4.5359111004205821e-01 -4.5978400802627672e-01 0.0000000000000000e+00  -9.8902079105802865e-01 -3.9718300769187814e-01 0.0000000000000000e+00  -1.9053258261009818e-02 1.1834300312502111e-01 0.0000000000000000e+00  -8.1464482465134162e-03 1.2973021009551722e-02 0.0000000000000000e+00  -1.5966342391812519e-01 -1.4930430956671101e-01 0.0000000000000000e+00  -3.9670991387272383e-02 -4.1830155291293213e-02 0.0000000000000000e+00  -4.7714784902486068e-02 -5.9815311055582673e-02 0.0000000000000000e+00  -2.6711726200102703e-02 -3.7972166193875757e-02 0.0000000000000000e+00  -1.7304676942170052e-02 -2.7151456527765825e-02 0.0000000000000000e+00  -8.6357045243589028e-03 -1.6562983787665322e-02 0.0000000000000000e+00  -1.1241388604668809e-03 1.6138368544546455e-03 0.0000000000000000e+00  -8.8593046763141801e-04 -1.6167373358977743e-03 0.0000000000000000e+00  -2.7657658152541918e-04 -6.8768458428071142e-04 0.0000000000000000e+00  1.1438239699447035e-03 3.1192859576400834e-03 0.0000000000000000e+00  1.6932751412015218e-03 -9.0465316223510544e-03 0.0000000000000000e+00  4.4891804629540394e-03 -1.1856862946668587e-02 0.0000000000000000e+00  1.4474707875220537e-02 -5.0558218929425483e-02 0.0000000000000000e+00  2.4651578739285383e-02 -6.9300088270546858e-02 0.0000000000000000e+00  3.6466681529088232e-02 -8.0215521936567113e-02 0.0000000000000000e+00  5.4517400132321300e-02 -1.0066234729857536e-01 0.0000000000000000e+00  6.7135994972565463e-02 -1.0452189101799814e-01 0.0000000000000000e+00  8.7036963321560162e-02 -1.1550550042062674e-01 0.0000000000000000e+00  1.0299710374184964e-01 -1.2363452219547351e-01 0.0000000000000000e+00  5.9922975963682117e-02 -6.3782746731663703e-02 0.0000000000000000e+00  7.7474380071103868e-02 -7.0369415123079870e-02 0.0000000000000000e+00  1.2810176715006044e-01 -1.0653510274680741e-01 0.0000000000000000e+00  1.2050855514291145e-01 -9.0164049085298056e-02 0.0000000000000000e+00  1.3608682533600633e-01 -9.0737193243694642e-02 0.0000000000000000e+00  8.5675197503489425e-02 -5.1758396630441954e-02 0.0000000000000000e+00  -4.2493022792748419e-03 3.9240185806026395e-02 0.0000000000000000e+00  8.2091905765200712e-01 -4.0298919391023719e-01 0.0000000000000000e+00  1.4063474771557190e+00 -8.9877334793841901e-01 0.0000000000000000e+00  -5.4348792253747980e-01 4.0903574546881710e-01 0.0000000000000000e+00  -2.9381408233903117e-01 9.9905629152014924e-02 0.0000000000000000e+00  8.3954342727935630e-02 -9.5736314215618817e-03 0.0000000000000000e+00  3.1531966037339837e-01 8.1184070290926627e-02 0.0000000000000000e+00  2.8512178608441001e+00 -3.2485728252550705e-01 0.0000000000000000e+00  3.1699817126533416e+00 -1.4818503062790618e+00 0.0000000000000000e+00  5.0486039547994255e-01 -6.7238869521212907e-01 0.0000000000000000e+00  -5.9410358312625311e+00 6.3080445882435199e-01 0.0000000000000000e+00  2.3262673813757553e-01 -1.3874767335891640e+00 0.0000000000000000e+00  -7.1937884083848727e-02 -7.4704445922343501e-02 0.0000000000000000e+00  9.8273261283702718e-01 -1.6245240556018600e-01 0.0000000000000000e+00  -7.9567441775179937e-01 -6.5921984683243562e-02 0.0000000000000000e+00  1.1493234360697500e+00 -2.4098483658544739e-01 0.0000000000000000e+00  9.1965704675239668e-01 -8.7203339229208948e-02 0.0000000000000000e+00  7.3838984047329623e-03 5.2907471765336264e-03 0.0000000000000000e+00  3.1589653123577396e-03 1.7594800346710274e-03 0.0000000000000000e+00  1.9002496502336385e-02 1.7446686261361366e-03 0.0000000000000000e+00  -1.4291051972318072e-01 4.1870200235288824e-01 0.0000000000000000e+00  -3.8179293793009728e-01 6.0887365952900241e-01 0.0000000000000000e+00  -1.1073797686313762e-01 -3.8041050080520400e-01 0.0000000000000000e+00  -8.9272773271002259e-01 5.6685147758192800e-01 0.0000000000000000e+00  -3.6771605079535785e-01 7.8895669183099570e-01 0.0000000000000000e+00  -1.7475078301047149e+00 2.2133320291747838e+00 0.0000000000000000e+00  -6.4034455826070646e-01 6.1181864390392404e-01 0.0000000000000000e+00  4.4641649070101772e-05 6.1356702886203519e-06 0.0000000000000000e+00  1.5550423664221488e-05 1.8409804037556999e-05 0.0000000000000000e+00  -4.0464652039823458e-06 1.0581132474085046e-05 0.0000000000000000e+00  4.8426614942018239e-05 -2.1774158362058451e-06 0.0000000000000000e+00  -4.5012120219711365e-06 7.3004718568916006e-06 0.0000000000000000e+00  2.8187243571095442e-06 7.7977874197905209e-06 0.0000000000000000e+00  -5.9279011245269526e-07 -1.9421311623039956e-06 0.0000000000000000e+00  -1.0173670334694663e-06 7.5284588361404145e-06 0.0000000000000000e+00  1.8588638889108751e-06 2.1895984211149157e-05 0.0000000000000000e+00  -1.9286849724042930e-06 2.0733913779750942e-05 0.0000000000000000e+00  -1.4598211466826334e-07 6.6428844310596814e-06 0.0000000000000000e+00  1.8517226224672254e-05 -6.8991552655361433e-05 0.0000000000000000e+00  9.2683562701368120e-08 -4.1647053132252110e-06 0.0000000000000000e+00  -1.2027784943363534e-05 -3.2987169695320310e-06 0.0000000000000000e+00  -2.7833553928895713e-04 -6.9690165809490018e-05 0.0000000000000000e+00  -3.0650592153467800e-05 1.1762018047193284e-05 0.0000000000000000e+00  -6.3275967267744396e-05 1.0533101613522682e-04 0.0000000000000000e+00  5.2031770090981859e-07 1.0198337321811250e-05 0.0000000000000000e+00  5.0662485205698194e-05 -3.0667778948900163e-05 0.0000000000000000e+00  3.6105616361611476e-05 2.3057050047693183e-05 0.0000000000000000e+00  7.8778292881248412e-05 1.1040166706115443e-04 0.0000000000000000e+00  6.7866944509031164e-06 3.6923238815101265e-05 0.0000000000000000e+00  -3.8954938943665962e-07 -3.3357836515956289e-06 0.0000000000000000e+00  -2.6348749248300595e-05 -5.4965188794986128e-05 0.0000000000000000e+00  -3.1626957883048917e-04 -6.8872768959771279e-05 0.0000000000000000e+00  1.0253209241816471e-05 3.5695214197248740e-05 0.0000000000000000e+00  1.5464647959854771e-04 -1.5530706868345780e-04 0.0000000000000000e+00  1.0261166797746610e-06 7.9434444702488733e-06 0.0000000000000000e+00  2.9843149656938838e-06 2.0999196070823213e-05 0.0000000000000000e+00  1.5324860474208316e-05 3.7013550266290080e-05 0.0000000000000000e+00  3.0427636668696996e-06 2.3763975141564508e-05 0.0000000000000000e+00  2.5944730442062868e-06 8.1267241750418830e-06 0.0000000000000000e+00  -1.5650785123196790e-05 -2.9254279792537082e-05 0.0000000000000000e+00  -1.5511669626042828e-05 -2.5813843756912908e-05 0.0000000000000000e+00  2.8201936494458678e-06 1.7353543840446053e-05 0.0000000000000000e+00  1.2437458159695244e-06 1.0434477652201824e-05 0.0000000000000000e+00  3.7443032102868853e-08 -7.0382866192094889e-08 0.0000000000000000e+00  -3.9334827335256496e-08 3.8689393171225959e-07 0.0000000000000000e+00  -4.7363686294210826e-07 7.1322675714281172e-06 0.0000000000000000e+00  -1.7339623080346308e-06 1.4808919816951655e-05 0.0000000000000000e+00  -2.2460942607581668e-06 1.6949463335340394e-05 0.0000000000000000e+00  -1.3514285478392177e-05 2.6868198339582386e-05 0.0000000000000000e+00  -2.3140406550289041e-06 8.1301643160276948e-08 0.0000000000000000e+00  -3.1175813253522026e-06 3.4725558917898715e-09 0.0000000000000000e+00  5.7647584722038745e-08 -2.6948060717265431e-07 0.0000000000000000e+00  1.3576130170584540e-04 -2.5525059066498421e-05 0.0000000000000000e+00  1.2873338522150160e-04 -7.7932063048963659e-05 0.0000000000000000e+00  7.4916548498961784e-05 -2.0397863861235408e-05 0.0000000000000000e+00  2.6406270893080121e-05 -1.0437797775548040e-04 0.0000000000000000e+00  5.0939577316164500e-05 -5.9376956938885292e-05 0.0000000000000000e+00  -3.9641103802889253e-06 4.0486820706882572e-05 0.0000000000000000e+00  3.8790421947940061e-07 -2.2176807292694732e-06 0.0000000000000000e+00  -5.1711354316176937e-05 -3.9057596473143666e-05 0.0000000000000000e+00  -1.4912600433199063e-04 -1.6185490210088123e-04 0.0000000000000000e+00  -7.1154485291407459e-05 -2.4427102947688340e-05 0.0000000000000000e+00  -5.2133831451940511e-07 -5.8587979297065179e-06 0.0000000000000000e+00  1.7764461587747315e-07 3.1721429207145828e-06 0.0000000000000000e+00  -3.7442116503764615e-06 2.5058373977967141e-05 0.0000000000000000e+00  -8.9761633465230246e-06 3.6723509497937635e-05 0.0000000000000000e+00  1.0230004033405563e-05 6.4256705094821250e-06 0.0000000000000000e+00  3.0310437701259080e-05 2.9408726623696651e-05 0.0000000000000000e+00  -2.1663689290843179e-05 2.5474671709845986e-05 0.0000000000000000e+00  -2.0501933864731058e-06 1.9252146133137219e-05 0.0000000000000000e+00  3.0011654995816334e-07 -7.7488471478051923e-06 0.0000000000000000e+00  -1.8204205791780505e-05 -1.7478857237186602e-05 0.0000000000000000e+00  3.7961129627155104e-05 5.0350716002551483e-05 0.0000000000000000e+00  5.9608214140389126e-05 4.0290786809514828e-05 0.0000000000000000e+00  2.8866643183624231e-05 -1.9470675347789100e-05 0.0000000000000000e+00  1.1768663517216912e-05 -1.9606883687579463e-05 0.0000000000000000e+00  2.3613601379698839e-05 -1.2750062940420465e-07 0.0000000000000000e+00  8.8546484397730480e-06 6.0862640363762411e-07 0.0000000000000000e+00  1.6392847638433003e-05 1.8069069598941525e-06 0.0000000000000000e+00  2.5532375893611755e-05 1.1921229316399091e-06 0.0000000000000000e+00  -5.0487038987104472e-07 -1.4227510641628562e-06 0.0000000000000000e+00  -8.3832602814895758e-07 7.1358948697891408e-05 0.0000000000000000e+00  -4.4615842312239393e-06 1.8855828147046122e-05 0.0000000000000000e+00  -3.7545478655745005e-05 5.5769158665010507e-05 0.0000000000000000e+00  5.8248002630078151e-06 -1.5264849199899061e-05 0.0000000000000000e+00  5.1012751345791727e-06 -1.6767705791820804e-05 0.0000000000000000e+00  -1.4233638489974227e-06 7.6552685409222469e-06 0.0000000000000000e+00  3.8432424284190133e-04 -2.2802390417694344e-04 0.0000000000000000e+00  4.4792548881374453e-04 -6.6428196638421240e-03 0.0000000000000000e+00  -9.5376320664996911e-04 -1.9480997985352627e-03 0.0000000000000000e+00  6.6614316629197873e-06 2.6714758287583720e-05 0.0000000000000000e+00  6.9333630677053654e-07 -4.1628517397112289e-06 0.0000000000000000e+00  -3.4970537857868838e-06 2.0451270555550861e-05 0.0000000000000000e+00  -6.7245772789267403e-07 2.5860851954402872e-06 0.0000000000000000e+00  2.8770285542634524e-07 -1.5998277166882563e-06 0.0000000000000000e+00  1.5257927169785426e-07 3.8315614987524462e-06 0.0000000000000000e+00  -9.6583033607430065e-05 7.0969433400679187e-05 0.0000000000000000e+00  -2.1656459572111538e-05 1.6816291954143590e-05 0.0000000000000000e+00  -1.9310512921790466e-06 3.3969857651615755e-07 0.0000000000000000e+00  2.6288839957876449e-06 2.4056237922117881e-07 0.0000000000000000e+00  7.6897536824338080e-05 6.2342820144839148e-05 0.0000000000000000e+00  1.1715000613522741e-04 4.1127086198736924e-05 0.0000000000000000e+00  6.0046341606448628e-05 2.3477465893377472e-05 0.0000000000000000e+00  -3.4077236220793556e-05 -1.9879847327215061e-04 0.0000000000000000e+00  7.2408143161826945e-05 -7.5833257848178495e-06 0.0000000000000000e+00  5.6347578176463020e-05 2.1311306632815842e-05 0.0000000000000000e+00  4.7078693447704402e-05 1.0321805017263216e-05 0.0000000000000000e+00  2.8250257176565758e-05 -4.3580039012341649e-06 0.0000000000000000e+00  3.3087129958354452e-05 -1.3012617323359427e-05 0.0000000000000000e+00  7.7962606607917019e-04 -1.0873358422722479e-03 0.0000000000000000e+00  -7.6190985692111145e-05 2.0965009756122600e-05 0.0000000000000000e+00  5.5320158517500482e-07 -6.5717511237889284e-07 0.0000000000000000e+00  -2.3898598012533882e-05 2.0850868553565568e-06 0.0000000000000000e+00  -2.5240008439997252e-05 1.5202785456760716e-05 0.0000000000000000e+00  1.2349013400220928e-05 -1.5434819626598866e-05 0.0000000000000000e+00  -1.9201718174539770e-05 -1.3096366165518172e-05 0.0000000000000000e+00  -8.3332897771496665e-06 -1.5870171436972930e-06 0.0000000000000000e+00  8.4659379425909667e-06 1.1191017147408271e-05 0.0000000000000000e+00  2.1662468854478994e-06 1.7318844023781068e-05 0.0000000000000000e+00  5.3155596410107785e-06 1.