<?xml version="1.0"?>
<VTKFile type="UnstructuredGrid"  version="0.1"  >
<UnstructuredGrid>
<Piece  NumberOfPoints="2549" NumberOfCells="4928">
<Points>
<DataArray  type="Float64"  NumberOfComponents="3"  format="ascii">1.474981630914291 0.02405032311063162 0  1.471205968766328 0.04716125120725317 0  1.447806848376961 0.05652154755040627 0  1.435838551106787 0.07240231248502565 0  1.431030120853326 0.08360509371169902 0  1.430635256291346 0.1065505633163073 0  1.413064178608191 0.1137743518694476 0  1.399952269780098 0.105677159312654 0  1.388084492365024 0.1506311278509128 0  1.520143161918673 0.6657300107018793 0  1.386970170408843 0.1744621898062563 0  1.380949844552091 0.2155689447050182 0  1.346253318328638 0.232087935654538 0  1.3398012792962 0.2596481418191996 0  1.336670898399347 0.2905203958049665 0  1.318405227027051 0.323077307174958 0  1.310320995245954 0.3574579602385622 0  1.290469232883166 0.3683220566009552 0  1.276657763404878 0.4201186985923497 0  1.26415024450213 0.4604519851427831 0  1.244067118617274 0.5048244786201084 0  1.225754184746963 0.5504608392510247 0  1.202803181468192 0.5979253938673126 0  1.179938430658652 0.6493638181731676 0  1.155215431520763 0.706941332898822 0  1.112643191741634 0.737094214743253 0  1.086341843867472 0.7927530571627035 0  1.054126100311864 0.8506380384662298 0  1.012692623978643 0.9032910333851184 0  0.9696352272009969 0.9591369660177086 0  0.9223286167209074 1.013585639873083 0  0.8699289952534398 1.068563524192283 0  0.8141612455517608 1.121057688111751 0  0.755095579752699 1.170440107597596 0  0.6891089629778099 1.220794032360973 0  0.6203706421053835 1.267481041582101 0  0.5464806954644144 1.310540611796403 0  0.4686071400378147 1.349650093230481 0  0.3870836480970133 1.383493080397644 0  0.3016731375373319 1.412298985908782 0  0.2137947659052372 1.434905070705084 0  0.1244661610996838 1.450081858637479 0  0.03257985742896584 1.459782016542371 0  -0.05914273050746209 1.461516142767185 0  -0.1511300931081999 1.456235919613383 0  -0.2416471523152912 1.44311729960081 0  -0.3305583624577894 1.42380860731955 0  -0.4166039882333269 1.395577154282924 0  -0.4986760218518025 1.364352979877547 0  -0.5781434932805692 1.326408661725199 0  -0.6529595131024389 1.28159760469493 0  -0.7232785748309493 1.233944284705314 0  -0.7885873335229535 1.181882108061397 0  -0.84955715984624 1.127202141408334 0  -0.9042917332375106 1.070852028133237 0  -0.9578700621713163 1.010667921387988 0  -1.000397471185517 0.9578693139862088 0  -1.04574074318324 0.9048733067712449 0  -1.08511381767803 0.8431583506204576 0  -1.119903055724283 0.7856723799519049 0  -1.148624310868515 0.729333505983675 0  -1.17243183173888 0.6689523743188035 0  -1.205453058064194 0.6301136087843291 0  -1.220195923890369 0.5528853386988473 0  -1.221138342407934 0.5124590581117494 0  -1.264890807061046 0.5009039161757273 0  -1.279636758748613 0.4505122080622633 0  -1.289315125113229 0.4120064258538212 0  -1.2967715055841 0.3733561830531184 0  -1.322196432874708 0.3513489454069412 0  -1.331187317933931 0.3017499806740337 0  -1.311374499713946 0.3285504698061915 0  -1.377373860024569 0.2895326584517365 0  -1.372465231140134 0.1944656280525805 0  -1.370088146950372 0.1695019875538484 0  -1.374534263211374 0.1363625712876667 0  -1.388560207558563 0.1193788202495181 0  -1.399131724414073 0.08655217318748419 0  -1.398626402630593 0.111880920891165 0  -1.38894140376316 0.02266445071267978 0  -1.407996296976003 0.09630188044670962 0  -1.437967111322639 0.1585764092347831 0  -1.474081150318513 0.07866741087450084 0  -1.482059215417354 0.0489257848431251 0  -1.504793920802224 0.02117257341306441 0  -1.488589663603192 -0.005378962146709333 0  -1.472726940477753 -0.03871585225299201 0  -1.283545311031765 -0.5229182159461607 0  -1.395054265303971 -0.04279574689034002 0  -1.704992556497257 0.504174990662604 0  -1.441163362851201 -0.0623779853608942 0  -1.45048547300975 0.0135253166746201 0  -1.408693340956015 -0.1298279149619666 0  -1.394766309114029 -0.08756615726743415 0  -1.376023775239855 -0.1007833463792051 0  -1.381439931444656 -0.1226931462927091 0  -1.398348984180104 -0.2418843714068447 0  -1.316935586752197 -0.3426089758069263 0  -1.360928688790509 -0.2390279037560228 0  -1.358108896771147 -0.2963746792716748 0  -1.323125986171187 -0.3230738499211685 0  -1.32936103279098 -0.3607677155296583 0  -1.328360621066997 -0.4005298506028806 0  -1.347186092122838 -0.448250260830768 0  -1.239522669638587 -0.4666942176973805 0  -1.209714903219585 -0.4995603814278589 0  -1.248670225233331 -0.6155044834118953 0  -1.199005020858998 -0.6373481983399246 0  -1.187972786818256 -0.700694090605344 0  -1.163203988875346 -0.7653141374786828 0  -1.140757346371715 -0.8275669239079543 0  -1.098305220242871 -0.9091932095600657 0  -1.033044229727569 -0.9323506515732383 0  -1.007702152942484 -1.005199522765929 0  -0.9557456139821775 -1.088704425307281 0  -0.8983427647949482 -1.142128195278276 0  -0.8367162909583262 -1.210143268841154 0  -0.7703294711686072 -1.269209638128003 0  -0.6980451718453261 -1.326131343789196 0  -0.618688187851253 -1.378436704639123 0  -0.5368643295315707 -1.426587111386098 0  -0.4514232098411966 -1.46391897907051 0  -0.3587589921094443 -1.499299494470058 0  -0.2651125909838996 -1.52642315201448 0  -0.1674432376866282 -1.544851065778143 0  -0.06864616476896779 -1.554972814539625 0  0.03110120263054781 -1.556076945883237 0  0.1304463392021213 -1.548412834953524 0  0.2285000819602 -1.531849311420842 0  0.3240176755752887 -1.506990725263997 0  0.4165061935663587 -1.474792641820152 0  0.5050874165428658 -1.435365786651205 0  0.5890110219187344 -1.389833073808916 0  0.6682830254008735 -1.338779142624047 0  0.7410184925790497 -1.283819816020365 0  0.8115394796838112 -1.223740701047581 0  0.8714252260721563 -1.167423345447893 0  0.9286513868524561 -1.106457061668522 0  0.9829769464757572 -1.041771450734385 0  1.030325414944204 -0.9783864978923454 0  1.073144202923995 -0.9143792159581703 0  1.112736125936219 -0.8528784943793773 0  1.144416483872259 -0.7891858772398392 0  1.170415928590984 -0.72760527867687 0  1.208567465861329 -0.6871209286378201 0  1.231338301779364 -0.6252583179475129 0  1.252741381321232 -0.5691044134414561 0  1.272398331360218 -0.5152990454407912 0  1.281358696684832 -0.464885970850739 0  1.28707780417599 -0.4111929687362504 0  1.315211057743403 -0.383675249547902 0  1.324430094575693 -0.3085303232679483 0  1.289689406777372 -0.3142698389201714 0  1.350452336863799 -0.2756373894785144 0  1.365465657474387 -0.2283554548905844 0  1.363621122212965 -0.1971627709412221 0  1.366874835273866 -0.167570695691577 0  1.376432664245056 -0.1390151177627088 0  1.375262389386029 -0.1056673847582526 0  1.604764399285128 0.824369179880778 0  1.411703935721198 -0.08573721662325241 0  1.404756339887272 -0.09279247043005259 0  1.411764585676816 -0.06173501110220472 0  1.431647719091135 -0.04857156390414111 0  1.430915420773773 -0.02927077833067762 0  1.440572840084303 -0.01790156252813849 0  1.447605033604204 -0.003683283868228615 0  1.467651971714385 0.003966931271547841 0  -0.09650182176816637 0.8822137463077852 0  0.6906996194740168 -0.5053864720608893 0  -0.8072683905825545 -0.3852704083416349 0  -0.07653740980212176 -0.9415501958075452 0  0.6537806484022426 0.4967451171592644 0  1.093576725174979 0.1155417844460428 0  -0.7953288707990617 0.4037719726483488 0  -1.15808427897859 0.02868875923259953 0  1.102989340360645 -0.06468840384439448 0  -1.039778805930055 -0.1757855126658052 0  -0.7344112404404379 0.01422380094604057 0  -0.4392519431177933 -0.1390361560879382 0  -1.02956171053314 0.2093832823526292 0  0.3803933200263361 -0.8300828510295821 0  0.08532632897589182 -0.303118640078738 0  0.3074933336138266 0.7675108625085454 0  0.2210726638520172 0.1837207543136556 0  0.5651641645595707 0.01741735569767079 0  -0.4824057449841226 -0.6950283238523457 0  -0.5029714884096455 0.6889682616753448 0  -0.2387171693609698 0.3042972783078976 0  0.9204286961662717 -0.2128972555299816 0  0.900437226789746 0.2467569702018386 0  0.3550140726689468 -0.2134706696903655 0  -0.008726301988603614 0.2298133601433535 0  -0.4918020377245851 0.208792687406037 0  -0.1882932537874828 -0.2788068746098991 0  0.8658177396051651 0.02205156934375964 0  1.252631393747214 0.0305565872418389 0  0.806080545203847 -0.3399360533835934 0  0.7218246784269736 -0.1068991610975737 0  0.5879627324610224 -0.2071851868152994 0  0.4436792691159465 -0.07614342478949013 0  0.5155462088926686 -0.3699218216299296 0  0.8672218518245874 -0.08298677653654321 0  0.7177798869416444 0.0196038409487988 0  -0.8608581439242418 0.1223048236636341 0  -1.074675070497197 0.100519523399565 0  -0.9505785480554673 0.02265684495155025 0  -0.8679702280972174 -0.08916100688839002 0  -1.07797263225721 -0.05232123383262906 0  -1.241522349910223 -0.0808862507191927 0  -1.315226061602983 0.003830512052934187 0  -1.311728840907796 0.05897634849284126 0  -1.232109255257477 0.139996657972346 0  -0.1306945501616628 -0.6097084286054693 0  -0.3028931877885188 -0.5019721318110192 0  -0.2923136444332456 -0.8403638548065731 0  -0.3091426928048773 -0.2015207526087951 0  -0.4530767751980605 -0.4007499352201796 0  -1.231483525361598 -0.1988888610204474 0  -1.213764131414429 0.2450453521974846 0  0.3839765501540928 -0.5013358446819959 0  0.2181249342522675 -0.244923000659478 0  0.2439273879475345 -0.5594212161289609 0  -0.9129306432720007 0.2913305522733263 0  -0.7285630305479097 0.1901347940302016 0  1.272575415946692 -0.08056046769971957 0  1.209601598951099 -0.1787772470611343 0  1.191798720260432 0.2270341578649802 0  1.267338466978949 0.1398725912960044 0  -0.9133267888682979 -0.6526465479471375 0  -1.04766808194373 -0.4464908622746148 0  -1.022192488612511 0.475266796865638 0  -0.8863948602909705 0.6620471212968233 0  0.9419572915122461 -0.6057907597967809 0  0.7750692945310904 -0.8235645698346755 0  0.7336544586328639 0.7929557327481985 0  0.9027198401481765 0.6075808547576729 0  0.04339930344437255 
[...]
<PointData  Vectors="f_36497"> 
<DataArray  type="Float64"  Name="f_36497"  NumberOfComponents="3" format="ascii">-1.5482516011277112e-01 -9.4532926605471832e-03 0.0000000000000000e+00  -7.5017668019966649e-02 -6.8226291223726768e-02 0.0000000000000000e+00  2.1557014722894746e-01 3.1850250280557713e-01 0.0000000000000000e+00  2.9396729833715354e-02 9.3293046139383787e-02 0.0000000000000000e+00  6.1592357781749478e-02 -2.7396521918755384e-01 0.0000000000000000e+00  3.4064009319512623e-01 -1.2549382646431508e+00 0.0000000000000000e+00  4.7613101276895820e-01 -6.9482721569579438e+00 0.0000000000000000e+00  7.8408980933295486e-02 -5.1006004439342856e-01 0.0000000000000000e+00  -5.1711196169729346e-03 -1.1717101153774412e-02 0.0000000000000000e+00  -3.0114788946761107e-02 5.8919121041663882e-03 0.0000000000000000e+00  -4.9148833446624983e-02 4.0639591277779729e-03 0.0000000000000000e+00  1.9910906738751263e-01 8.7935987679646305e-02 0.0000000000000000e+00  4.8458885162842125e-01 4.5949778520291862e-01 0.0000000000000000e+00  -3.9603458335540953e-01 -1.3455377013250217e-01 0.0000000000000000e+00  -2.7327081615076837e-01 -1.2507174299411356e-01 0.0000000000000000e+00  -2.1419761407761864e-01 -6.4769248885824263e-02 0.0000000000000000e+00  3.7134122623065480e-01 2.8318800887815687e-01 0.0000000000000000e+00  7.9212981644044311e-01 5.6808236079281060e-01 0.0000000000000000e+00  3.5708846088393098e-01 -9.5834478022706025e-03 0.0000000000000000e+00  -9.0680689175395457e-02 -1.3302207368457838e-01 0.0000000000000000e+00  1.4386830725079326e-02 -8.6180667683630561e-03 0.0000000000000000e+00  8.9031627405972938e-02 5.4444867570769107e-02 0.0000000000000000e+00  7.5432727776556283e-02 9.2904212106054110e-02 0.0000000000000000e+00  -2.2463456456151049e-01 1.2410025894585683e-02 0.0000000000000000e+00  2.1535470683331026e-01 -4.3411704494490021e-02 0.0000000000000000e+00  8.9320879658114605e-01 9.6326673383015249e-01 0.0000000000000000e+00  7.9419808634329692e-01 3.5157159095098872e-01 0.0000000000000000e+00  -2.0969368496514932e-02 -1.4617066735367240e-01 0.0000000000000000e+00  4.1271310259189745e-02 1.5848757366488064e-02 0.0000000000000000e+00  1.1502509360577386e-01 8.7083134913211541e-02 0.0000000000000000e+00  3.8010241387505209e-02 3.3374653351076131e-02 0.0000000000000000e+00  7.5452758933082065e-02 7.1789451551755326e-02 0.0000000000000000e+00  3.7545296629616774e-02 3.7792930839429931e-02 0.0000000000000000e+00  3.5015615989526412e-02 4.1975039636791216e-02 0.0000000000000000e+00  6.5802417480671505e-02 8.8796090610084158e-02 0.0000000000000000e+00  5.5896931378490937e-02 8.2035200291456542e-02 0.0000000000000000e+00  4.6734732150375824e-02 8.2155082798925291e-02 0.0000000000000000e+00  4.6716269584368170e-02 9.3951896706812893e-02 0.0000000000000000e+00  3.0882312928421741e-02 7.6118816732356168e-02 0.0000000000000000e+00  3.4043516547255563e-02 1.0392813932302050e-01 0.0000000000000000e+00  1.2633858942604851e-02 3.8978763804546693e-02 0.0000000000000000e+00  5.1235073168921265e-03 3.3785641174678055e-02 0.0000000000000000e+00  6.0596082580861438e-03 4.7532815482627729e-02 0.0000000000000000e+00  9.8707316382599917e-05 2.4864524524426543e-02 0.0000000000000000e+00  1.1216938797640552e-03 9.9054091973477167e-03 0.0000000000000000e+00  -5.1552412282238154e-03 2.4048117803432321e-02 0.0000000000000000e+00  6.1125640669452462e-03 -1.1781547314216543e-02 0.0000000000000000e+00  -2.3115417764522947e-03 1.5638292516301780e-04 0.0000000000000000e+00  -1.3146534086850303e-02 3.2185680807310844e-02 0.0000000000000000e+00  1.2612763436325697e-02 -2.3685929634323540e-02 0.0000000000000000e+00  -4.0154896570272578e-03 1.9413913362118528e-03 0.0000000000000000e+00  -5.4947615194792581e-03 5.0908355558602460e-03 0.0000000000000000e+00  -1.1035692467027750e-02 9.6233734214548391e-03 0.0000000000000000e+00  -1.5624522188426474e-02 1.3347771835938561e-02 0.0000000000000000e+00  -1.6272603961748670e-02 1.3022728359666851e-02 0.0000000000000000e+00  -2.1129913318785731e-02 1.6804861883393266e-02 0.0000000000000000e+00  -1.5575077720412429e-02 1.2670933955015151e-02 0.0000000000000000e+00  8.5039357870362094e-03 -1.4198199299292207e-02 0.0000000000000000e+00  -2.6339449469923268e-02 1.3253243533631267e-02 0.0000000000000000e+00  -6.3144722631718504e-03 -5.3578040838544935e-03 0.0000000000000000e+00  -2.4273799689625425e-01 1.1536155346772033e-01 0.0000000000000000e+00  -3.4724447581040452e-01 2.1607112897445752e-01 0.0000000000000000e+00  -1.5473843780828475e-01 5.2562820351708249e-02 0.0000000000000000e+00  -8.3303815603824785e-02 5.7176589662652474e-02 0.0000000000000000e+00  2.0382687297511715e-01 7.9107366693856568e-02 0.0000000000000000e+00  -1.9839699934887106e-01 1.8026851437888480e-01 0.0000000000000000e+00  -7.0310143133976225e-02 -1.8144655972762689e-02 0.0000000000000000e+00  -4.1419421271714732e-02 1.4032065119456896e-03 0.0000000000000000e+00  -1.3567787628930452e-02 1.0379968565445541e-02 0.0000000000000000e+00  -6.6944946319813601e-03 2.5697562686427269e-02 0.0000000000000000e+00  2.5024869051100362e-01 -3.3317613905153108e-02 0.0000000000000000e+00  4.9633730037364446e-02 -1.4825030394895645e-02 0.0000000000000000e+00  -5.1502787669588636e-02 1.3090241091712704e-02 0.0000000000000000e+00  -3.4735534828031614e-02 1.4331749610399527e-02 0.0000000000000000e+00  6.0654409164168421e-02 -8.0520807109907989e-03 0.0000000000000000e+00  -5.6409436474635588e-02 2.1571064337415957e-02 0.0000000000000000e+00  1.1343052623022433e-01 -8.9744661915541701e-02 0.0000000000000000e+00  -3.8734382902903118e-02 -1.9165303683145032e-02 0.0000000000000000e+00  -4.1776992937571306e-01 -2.2901909982895239e-02 0.0000000000000000e+00  7.0151961661590295e-02 3.9648308095931537e-03 0.0000000000000000e+00  2.9545038641163982e-02 1.7358095456975836e-02 0.0000000000000000e+00  -1.2820875822610039e-01 8.7063716570890039e-03 0.0000000000000000e+00  -4.3487417245547173e-02 -1.8056785155444270e-03 0.0000000000000000e+00  -2.8018699363708283e-01 1.6286218537355843e-01 0.0000000000000000e+00  -3.8640523397908938e-01 1.0759995426079164e-01 0.0000000000000000e+00  4.3402750548440583e-03 1.1471584288716195e-01 0.0000000000000000e+00  -1.9060300996626246e-02 -2.2848405609140012e-03 0.0000000000000000e+00  -1.4265272512946989e-03 -5.1548478343711875e-04 0.0000000000000000e+00  1.3680952812440796e-03 1.3283902464532732e-03 0.0000000000000000e+00  -1.2419828346140801e-03 -7.2743691765144130e-04 0.0000000000000000e+00  9.8221254272119862e-02 3.4660320882082644e-02 0.0000000000000000e+00  2.1938477770642617e-02 -1.9239194872522968e-02 0.0000000000000000e+00  3.6412289637297077e-02 -1.1386087201577373e-01 0.0000000000000000e+00  7.0594568591739093e-01 -1.1944160313030103e+00 0.0000000000000000e+00  -1.0113022966775425e+00 1.1271676983947763e-02 0.0000000000000000e+00  -1.0960827536101486e-01 7.9468398090728934e-02 0.0000000000000000e+00  1.4204855563621378e-02 3.7848586246409334e-02 0.0000000000000000e+00  7.3321812272545195e-02 3.0482788713558275e-02 0.0000000000000000e+00  2.3847533689455944e-01 3.8245398288643304e-02 0.0000000000000000e+00  -1.3563312599078833e-01 -7.4342252707737727e-02 0.0000000000000000e+00  -5.5715560986273338e-01 -4.3853721919728632e-02 0.0000000000000000e+00  -5.1041107797525387e-01 1.5970996618267091e-01 0.0000000000000000e+00  -2.5184812799267675e-01 4.0432709987858445e-02 0.0000000000000000e+00  -5.5755636823583810e-01 -8.2220562513134199e-02 0.0000000000000000e+00  -9.8842174312581199e-01 -2.6865910174870561e-01 0.0000000000000000e+00  -9.2030780075357022e-01 -3.0862301039425438e-01 0.0000000000000000e+00  -1.6387386203810070e+00 -1.0668028309275448e+00 0.0000000000000000e+00  -1.4140567408447153e+00 -7.3004250238955060e-01 0.0000000000000000e+00  -1.2035207807124988e+00 -2.0899498250553417e-01 0.0000000000000000e+00  -3.2524534506306640e-01 -5.1154471806893052e-02 0.0000000000000000e+00  -6.2812242158804810e-01 -3.8166384716286406e-01 0.0000000000000000e+00  -5.1538366946258829e-01 -3.5318563749639087e-01 0.0000000000000000e+00  -3.9882143156713984e-01 -4.3138250112532828e-01 0.0000000000000000e+00  -8.4338498013749119e-01 -3.3835710304948807e-01 0.0000000000000000e+00  -9.2360922004086368e-02 7.0254885880609449e-02 0.0000000000000000e+00  -5.6777723742280226e-02 -3.1147049245835345e-02 0.0000000000000000e+00  -1.8802697368245719e-01 -1.7930499950710288e-01 0.0000000000000000e+00  -4.6848432932523304e-02 -5.0750981646139615e-02 0.0000000000000000e+00  -5.4949905419443501e-02 -6.9421563126096944e-02 0.0000000000000000e+00  -3.2731315376669130e-02 -4.8158345214728976e-02 0.0000000000000000e+00  -2.3766636086959881e-02 -3.7320923980310949e-02 0.0000000000000000e+00  -9.3046717543569090e-03 -1.8793375666436810e-02 0.0000000000000000e+00  -5.6183279321912541e-03 -1.1402605627461756e-02 0.0000000000000000e+00  -2.2533245749640561e-03 -5.8813339925573426e-03 0.0000000000000000e+00  -8.9470925265644052e-04 -3.9567811423935565e-03 0.0000000000000000e+00  7.7291747204872479e-04 7.9184920325909203e-04 0.0000000000000000e+00  1.3586372053935672e-03 -7.7889400023808042e-03 0.0000000000000000e+00  3.8911912019030334e-03 -9.2138578986452717e-03 0.0000000000000000e+00  1.2374031189252220e-02 -4.3146883723226455e-02 0.0000000000000000e+00  2.0346400762287400e-02 -5.6766936292181575e-02 0.0000000000000000e+00  3.0499877738818688e-02 -6.6600948880034871e-02 0.0000000000000000e+00  4.5843190026654802e-02 -8.4554082948009562e-02 0.0000000000000000e+00  5.5261580902171280e-02 -8.5814489651282244e-02 0.0000000000000000e+00  7.3697935036839954e-02 -9.7937070887681874e-02 0.0000000000000000e+00  8.1099670389068138e-02 -9.7742843758520728e-02 0.0000000000000000e+00  4.9523223952003564e-02 -5.2110805096638221e-02 0.0000000000000000e+00  6.8718205553738393e-02 -6.2744881274181652e-02 0.0000000000000000e+00  1.0362189991819920e-01 -8.6441484795056381e-02 0.0000000000000000e+00  8.9598662782486974e-02 -6.6996472159539591e-02 0.0000000000000000e+00  1.2349055240894154e-01 -8.2029111746008951e-02 0.0000000000000000e+00  5.5149171902714234e-02 -2.9104235223365069e-02 0.0000000000000000e+00  1.4308595861953719e-02 5.0739687741043468e-02 0.0000000000000000e+00  7.3043845854790612e-01 -3.3419085023246770e-01 0.0000000000000000e+00  1.1395548589549593e+00 -8.4450370674383524e-01 0.0000000000000000e+00  -3.3007908200577712e-01 3.1931409258785814e-01 0.0000000000000000e+00  -2.0576920896496309e-01 5.1495957777510933e-02 0.0000000000000000e+00  7.1735354371631435e-02 -2.4214567719558634e-02 0.0000000000000000e+00  3.2360560076663847e-01 6.8598611152492911e-03 0.0000000000000000e+00  5.8965261475609099e-01 -3.3249749256770780e-02 0.0000000000000000e+00  1.3259375683092287e+00 -7.2689177706680608e-01 0.0000000000000000e+00  3.1165853762821749e-01 -2.1820845160539429e-01 0.0000000000000000e+00  -1.3661421934287904e-01 -1.1617237848617214e-01 0.0000000000000000e+00  -2.1906416950712840e-01 3.5193282490407618e-01 0.0000000000000000e+00  -6.8859937837277785e-02 7.5618534166024653e-02 0.0000000000000000e+00  -4.6165213989141737e-02 3.1802003764986563e-02 0.0000000000000000e+00  -2.8115378947365793e-02 -2.8149538249158548e-04 0.0000000000000000e+00  8.1769328588594078e-02 -7.9981324874097825e-03 0.0000000000000000e+00  5.7981584629506033e-02 -7.6382127839105338e-03 0.0000000000000000e+00  1.1271532995980322e-04 3.8551337399336813e-06 0.0000000000000000e+00  -5.9090103165494116e-04 1.1617471170078776e-04 0.0000000000000000e+00  -1.2509274635645084e-03 1.1466069725535132e-04 0.0000000000000000e+00  -4.5556961325406653e-01 -2.3698900017491704e-02 0.0000000000000000e+00  -3.7893567574047785e-02 -1.1349240332373001e-01 0.0000000000000000e+00  4.8047979057995620e-02 1.1958862454698295e-01 0.0000000000000000e+00  1.9199063394011023e-01 -9.5956890245097098e-02 0.0000000000000000e+00  7.1279188993033912e-02 -1.6302213140017940e-01 0.0000000000000000e+00  4.4216094295476938e-01 -5.7312939290656895e-01 0.0000000000000000e+00  -1.6516749268622059e-02 -7.6402431931240225e-03 0.0000000000000000e+00  5.4507129583956452e-05 6.6283413246613567e-06 0.0000000000000000e+00  6.4412731493380563e-06 7.0549778212186795e-06 0.0000000000000000e+00  -2.0908949915343498e-06 6.1107841701180484e-06 0.0000000000000000e+00  5.3674617616830306e-05 -1.7296509115644044e-06 0.0000000000000000e+00  5.2183476981574309e-06 -7.9237828801855316e-06 0.0000000000000000e+00  -4.2977324372424718e-07 -4.5188657857995524e-06 0.0000000000000000e+00  -1.2754783657799616e-06 -3.7253370357820506e-06 0.0000000000000000e+00  -5.5718841004810007e-07 -3.1605113905250889e-06 0.0000000000000000e+00  -6.2282867755474638e-07 6.5480028792464178e-06 0.0000000000000000e+00  3.7342470065579061e-07 9.8603871657017884e-06 0.0000000000000000e+00  3.9490088248841004e-07 3.3033392539510141e-06 0.0000000000000000e+00  1.9939545539129211e-05 -7.3022614511374898e-05 0.0000000000000000e+00  -8.8466609605668939e-07 -1.1837770450688364e-05 0.0000000000000000e+00  -8.8281695089065899e-06 -1.9811331623632909e-06 0.0000000000000000e+00  -4.8835056866589153e-04 -1.1886561094763147e-04 0.0000000000000000e+00  -1.7250005326007287e-05 6.6856606170549470e-06 0.0000000000000000e+00  -6.0283868078660934e-05 6.5716216833207780e-05 0.0000000000000000e+00  4.5206972323167944e-08 -1.4855574500167944e-06 0.0000000000000000e+00  5.6024136793323865e-05 -3.3657986343395089e-05 0.0000000000000000e+00  4.1674962376279302e-05 2.4406710610274816e-05 0.0000000000000000e+00  8.3760631106403761e-05 1.2435811944176586e-04 0.0000000000000000e+00  -4.0478281634649942e-07 1.8434619284614522e-05 0.0000000000000000e+00  1.7821416676510540e-06 -1.6696331923943928e-05 0.0000000000000000e+00  -6.2775814190056678e-06 -3.2130238065040723e-05 0.0000000000000000e+00  -1.6666725280544302e-03 7.7023739293935250e-04 0.0000000000000000e+00  8.9482698942604065e-06 3.8180408518213076e-05 0.0000000000000000e+00  4.4082848039534079e-05 -1.8285781809145363e-04 0.0000000000000000e+00  7.9125526587703928e-08 6.3075184317678919e-07 0.0000000000000000e+00  -1.0298594196241095e-07 1.8108991073974221e-06 0.0000000000000000e+00  4.9584531605464772e-06 1.7111375710938529e-05 0.0000000000000000e+00  -7.0713829805887576e-07 1.2833590160797399e-05 0.0000000000000000e+00  -1.9562140858205295e-06 -1.0799733432839638e-06 0.0000000000000000e+00  -9.7208267619549671e-06 -1.2547676892759807e-05 0.0000000000000000e+00  -1.5051970341252419e-05 -3.3393287664203856e-05 0.0000000000000000e+00  2.4003357322738679e-07 6.7268625358794879e-06 0.0000000000000000e+00  1.6628759228403756e-07 1.4705869448989688e-06 0.0000000000000000e+00  -5.0721295386561502e-07 -5.9024495592879475e-06 0.0000000000000000e+00  -8.5261165330194599e-07 -8.9482113661595531e-06 0.0000000000000000e+00  -1.2510650411447710e-09 1.9149285480863642e-07 0.0000000000000000e+00  -2.2649302945540418e-07 7.3614997393053839e-06 0.0000000000000000e+00  4.5411222594283937e-07 5.2932037930047579e-06 0.0000000000000000e+00  1.0777522868138420e-06 3.4475912148895950e-06 0.0000000000000000e+00  -1.0653922829594604e-05 -6.3613437178084223e-06 0.0000000000000000e+00  -1.0882566033219646e-05 -2.1513461820445776e-05 0.0000000000000000e+00  -1.5091543011063365e-06 -1.3089075404961215e-05 0.0000000000000000e+00  1.5126121264418094e-04 -2.1985155331345497e-05 0.0000000000000000e+00  1.3329836136948572e-04 -8.3631863668368186e-05 0.0000000000000000e+00  8.1457497443097621e-05 -2.1093727783033054e-05 0.0000000000000000e+00  4.0644247815668755e-06 -1.0748036536708706e-04 0.0000000000000000e+00  4.7458681045952162e-05 -6.0628541174947848e-05 0.0000000000000000e+00  -6.3052137597268972e-07 1.2741567927956098e-05 0.0000000000000000e+00  -3.5504590942350247e-08 -1.5685973734519374e-05 0.0000000000000000e+00  -4.6662848346284139e-05 -3.8054118965930001e-05 0.0000000000000000e+00  -1.1087268317614465e-04 -1.3751579877629229e-04 0.0000000000000000e+00  -5.0177165134529278e-05 -1.0808786096615870e-05 0.0000000000000000e+00  -1.8030525353975778e-06 -1.1287858957769308e-05 0.0000000000000000e+00  3.7601703239816757e-07 7.7044663983993455e-07 0.0000000000000000e+00  -9.1107378543906433e-07 4.6319945081630113e-06 0.0000000000000000e+00  1.5097449711535949e-06 4.3695327202235502e-07 0.0000000000000000e+00  -2.5679319670777543e-06 -4.7508009218543104e-06 0.0000000000000000e+00  5.4960102224040250e-06 2.0357481523298457e-06 0.0000000000000000e+00  -1.9015434984873133e-05 2.1610550873242284e-05 0.0000000000000000e+00  -1.5232317601025317e-06 1.3809959068981675e-05 0.0000000000000000e+00  -8.3371100135608815e-07 -1.0534471455140170e-05 0.0000000000000000e+00  -1.9007368657350039e-05 -1.8602893578621032e-05 0.0000000000000000e+00  2.6871402844148353e-05 3.4150779958013624e-05 0.0000000000000000e+00  5.2655186022378616e-05 3.2206117573895169e-05 0.0000000000000000e+00  3.1967906524121923e-05 -2.5746284237863864e-05 0.0000000000000000e+00  1.4071286716845305e-05 -2.9230615542278450e-05 0.0000000000000000e+00  2.5650751246853347e-05 8.6434115036742332e-07 0.0000000000000000e+00  1.0927654402666772e-05 1.2271000629289784e-07 0.0000000000000000e+00  2.1314385668131280e-05 1.5076746786901377e-06 0.0000000000000000e+00  2.9260782636352679e-05 1.8544272757844553e-06 0.0000000000000000e+00  -2.4781557735221592e-06 -3.0912506555613175e-06 0.0000000000000000e+00  4.6876976836176295e-06 3.9123444569780347e-05 0.0000000000000000e+00  6.7025328035801298e-07 2.0929860927229893e-06 0.0000000000000000e+00  -2.1115615645835506e-05 2.6001707495894515e-05 0.0000000000000000e+00  5.7485096327103679e-06 -1.3525252904822576e-05 0.0000000000000000e+00  1.7103538255735720e-06 -2.0778981768015256e-05 0.0000000000000000e+00  -1.0351197141881571e-06 3.6289222709472545e-06 0.0000000000000000e+00  6.3291805911993996e-04 -5.4574632448587052e-04 0.0000000000000000e+00  -1.6781641094732621e-02 1.3511049481675717e-02 0.0000000000000000e+00  -1.4656543731234641e-05 -6.0081839854589391e-04 0.0000000000000000e+00  3.6021419579079772e-06 1.1852133462890348e-05 0.0000000000000000e+00  1.9649454301100019e-06 -1.2777901454425950e-05 0.0000000000000000e+00  -1.3117232679694592e-06 1.2678727271475054e-05 0.0000000000000000e+00  1.1186504517816919e-06 -9.2256935321020178e-06 0.0000000000000000e+00  5.6647871817682338e-06 -1.8111129288422433e-05 0.0000000000000000e+00  2.5896083852199677e-07 -5.2547098974148705e-06 0.0000000000000000e+00  -6.8649451240337643e-05 5.3027590783625463e-05 0.0000000000000000e+00  -9.9238644121711820e-06 8.2539733848078002e-06 0.0000000000000000e+00  1.6065110656770154e-05 2.3918301889791103e-07 0.0000000000000000e+00  6.5209509773918504e-06 8.8297876348238102e-08 0.0000000000000000e+00  9.3347897686163846e-05 6.4628738191055082e-05 0.0000000000000000e+00  1.3398655396191342e-04 4.4784675602958828e-05 0.0000000000000000e+00  6.7594510023197873e-05 2.5742590911449287e-05 0.0000000000000000e+00  -1.8943139414863874e-05 -1.3803180062645570e-04 0.0000000000000000e+00  1.7286836505321407e-04 -9.9166018346681195e-05 0.0000000000000000e+00  5.5083689385234405e-05 2.1410126260883330e-05 0.0000000000000000e+00  4.6196681409685516e-05 9.5892985512942865e-06 0.0000000000000000e+00  3.2364830909399334e-05 -8.4157287869945181e-06 0.0000000000000000e+00  3.7837957338785554e-05 -1.6121168938306283e-05 0.0000000000000000e+00  -3.0664989635125709e-05 -1.5870151188566704e-03 0.0000000000000000e+00  -4.8235098930254710e-05 1.4671620265630926e-05 0.0000000000000000e+00  1.1927073527140047e-05 -1.8192153878185060e-06 0.0000000000000000e+00  -1.9236001287031317e-05 1.5379170631951944e-06 0.0000000000000000e+00  -2.1155885524889571e-05 1.2416478111465774e-05 0.0000000000000000e+00  1.4851015718379747e-05 -1.8423582223684218e-05 0.0000000000000000e+00  -1.7157950999476053e-05 -1.2146640634379586e-05 0.0000000000000000e+00  -6.7434870339440442e-06 4.6069987568115103e-07 0.0000000000000000e+00  9.4757552287497772e-06 1.2100474561313189e-05 0.0000000000000000e+00  5.3544725826407957e-06 1.8754688334748118e-05 0.0000000000000000e+00  5.9427768