<?xml version="1.0"?>
<VTKFile type="UnstructuredGrid"  version="0.1"  >
<UnstructuredGrid>
<Piece  NumberOfPoints="2549" NumberOfCells="4928">
<Points>
<DataArray  type="Float64"  NumberOfComponents="3"  format="ascii">1.474982489104603 0.02405063314213723 0  1.471206875415728 0.04716155967089977 0  1.447807798851305 0.05652176813188693 0  1.435839644055828 0.07240265435785669 0  1.431031282928838 0.08360537907610514 0  1.430636576708461 0.1065508608295325 0  1.413065885605834 0.1137763222755274 0  1.399955424168137 0.105677145539949 0  1.388086582677857 0.1506314829938341 0  1.519408158620386 0.6659331548884887 0  1.386972769686774 0.174463228683128 0  1.380951320142675 0.2155693247245838 0  1.346254487405496 0.2320884163864658 0  1.339803229653517 0.2596487420542134 0  1.336672633308927 0.2905212414967402 0  1.318407044366854 0.3230782794269484 0  1.310323398617604 0.357459245359554 0  1.290470528130737 0.3683231671158645 0  1.276658948506006 0.4201194942148487 0  1.264151879851834 0.4604534946553375 0  1.244067960344448 0.5048257268087991 0  1.225755114070616 0.5504623297236583 0  1.202803289031356 0.5979268716380524 0  1.17993939596172 0.6493653904719785 0  1.155215704956755 0.7069441206387254 0  1.112641762197088 0.737094367393913 0  1.086340999419369 0.7927534663238096 0  1.054126004771384 0.8506395722693834 0  1.012691852031187 0.9032918486058563 0  0.9696343012193929 0.9591379911901616 0  0.9223274950933895 1.013586473793177 0  0.8699275994789274 1.068564196671731 0  0.8141597089574621 1.121058201977666 0  0.7550939146442266 1.170440459760413 0  0.6891071019880075 1.220794116291398 0  0.6203686608392683 1.267480899573751 0  0.5464786707325466 1.310540233099903 0  0.4686050465457164 1.349649463267295 0  0.3870815837108407 1.383492250337286 0  0.3016710748554126 1.412297857579459 0  0.213792788429716 1.434903825638155 0  0.1244643126910856 1.450080453715319 0  0.03257806522587332 1.459780390841769 0  -0.05914433787938279 1.461514398955327 0  -0.151131595480163 1.456234070125329 0  -0.2416484335021998 1.443115336525133 0  -0.330559559195773 1.423806650399298 0  -0.416604947655834 1.395575138026407 0  -0.4986768495261778 1.36435093987406 0  -0.5781442156458529 1.326406733331148 0  -0.652960061655022 1.28159569337513 0  -0.7232790572215736 1.233942484447097 0  -0.7885877290959175 1.181880407284964 0  -0.8495575282985712 1.127200574862856 0  -0.9042921011662827 1.07085058988142 0  -0.9578704793759476 1.010666639745322 0  -1.000397887859353 0.9578680704335296 0  -1.045741210242229 0.9048722603176782 0  -1.085114358883654 0.8431573740477329 0  -1.119903790968245 0.7856715758009627 0  -1.148624953714218 0.7293326724036749 0  -1.172432465345449 0.6689515189094108 0  -1.205454005279488 0.6301131937843529 0  -1.220197337216157 0.5528849670305354 0  -1.221140185497868 0.5124584369249509 0  -1.264892014077601 0.5009023187583621 0  -1.279637729287214 0.4505109268102234 0  -1.289316116416458 0.412005276881459 0  -1.296772541764115 0.3733550337634722 0  -1.322197293441363 0.3513476797476801 0  -1.331188272370332 0.3017488561379134 0  -1.311375470196143 0.3285494641558483 0  -1.377374535012197 0.2895313737782054 0  -1.372466047212541 0.1944643923205176 0  -1.370088992690122 0.1695007110339631 0  -1.374535038747588 0.1363612885082907 0  -1.388560962045343 0.1193775460703809 0  -1.399132746948819 0.08655084489000459 0  -1.398626879354806 0.1118795921986551 0  -1.388946383650048 0.02266273902014647 0  -1.407993680980931 0.09630096734665777 0  -1.437955913860505 0.1585780866235303 0  -1.474079730290372 0.07867126631759494 0  -1.482058862153047 0.04892955732912512 0  -1.50479441432338 0.02117750994499807 0  -1.488591735486798 -0.005374760564841366 0  -1.472730905602875 -0.0387116026160199 0  -1.283752632934689 -0.5229792986539007 0  -1.395058474643212 -0.04279777462423261 0  -1.704686806842516 0.5043443099133794 0  -1.441167842696677 -0.06237640321053951 0  -1.450482413320562 0.01352838919972444 0  -1.408694910361102 -0.1298298729617463 0  -1.394770797612703 -0.087567808500705 0  -1.376027018222902 -0.1007847754971773 0  -1.381442573461755 -0.1226945664576738 0  -1.398350342814101 -0.2418865845765545 0  -1.316937099731301 -0.3426107354823708 0  -1.3609303643572 -0.2390293434742233 0  -1.35811033093225 -0.2963759059198512 0  -1.323126959216191 -0.3230749552561756 0  -1.329361973945022 -0.3607688196842639 0  -1.328361695453701 -0.4005309133106686 0  -1.347186037537874 -0.4482515831408564 0  -1.239524052732361 -0.4666956679211284 0  -1.209716081082979 -0.4995616981622232 0  -1.248667760884269 -0.6155053374690722 0  -1.199003931982994 -0.6373492287736493 0  -1.187972089100835 -0.7006945879775103 0  -1.163204090841686 -0.7653153677739859 0  -1.140756209630241 -0.8275671199080479 0  -1.098304475331609 -0.9091939385513028 0  -1.033043795083095 -0.932350857129483 0  -1.007700449625937 -1.00519937144153 0  -0.9557451446119273 -1.088705023742172 0  -0.8983420450961085 -1.142128216060521 0  -0.8367151363676889 -1.210142902985355 0  -0.7703285968227851 -1.269209193904665 0  -0.6980442056683904 -1.326130637381639 0  -0.6186873173264664 -1.378435755336932 0  -0.5368635291863373 -1.426585979177101 0  -0.4514225637943236 -1.463917680193463 0  -0.3587584977624799 -1.499298072493925 0  -0.2651122659455227 -1.526421605723431 0  -0.1674431051242098 -1.544849432274777 0  -0.06864624049372499 -1.554971167400942 0  0.03110093143319174 -1.556075280210769 0  0.1304458650792628 -1.548411244284549 0  0.2284994266182131 -1.531847754700753 0  0.3240168541450701 -1.506989278082891 0  0.4165052365934087 -1.474791361722182 0  0.5050863625265466 -1.435364673579713 0  0.5890099167954602 -1.389832167893175 0  0.6682818979370145 -1.338778460892537 0  0.7410174229289448 -1.283819359549655 0  0.811538567094679 -1.22374053232946 0  0.8714243638988288 -1.167423309758059 0  0.9286506088605284 -1.1064571879302 0  0.9829763909526036 -1.041771775096333 0  1.030325093412955 -0.9783870338325465 0  1.073144091335186 -0.9143797135630547 0  1.112736651956491 -0.8528794938997022 0  1.144416373101254 -0.7891860323993155 0  1.170414794608177 -0.7276050868633221 0  1.208569360833069 -0.6871234300998669 0  1.231339989181375 -0.6252594771562173 0  1.252742259053112 -0.5691053116162071 0  1.272399865770506 -0.5153002494459281 0  1.28136052830129 -0.4648867456293223 0  1.287078942966613 -0.4111934977860529 0  1.315213742026064 -0.3836762600053316 0  1.324432484108713 -0.308530917593542 0  1.28969244372356 -0.3142719826588591 0  1.350453840462775 -0.2756374330953678 0  1.365466934593204 -0.2283554432535509 0  1.363622608055318 -0.1971628272102116 0  1.366876376147478 -0.1675706906099694 0  1.376434304457278 -0.1390151070455148 0  1.375264093861972 -0.1056672341219016 0  1.604780603933833 0.8243659676633178 0  1.411705569951234 -0.08573689867837087 0  1.40475814247909 -0.09279219958547304 0  1.411766035139004 -0.06173455922849707 0  1.431648931250613 -0.04857114748003925 0  1.430916487706692 -0.02927018149050718 0  1.440573838072629 -0.01790112300127504 0  1.447605837282189 -0.003682697773242069 0  1.467652822263301 0.003967230508487224 0  -0.09650291452130691 0.8822120202023394 0  0.6907007969153077 -0.5053861371337086 0  -0.8072691939969696 -0.3852707370803785 0  -0.07653749991771641 -0.9415486507059739 0  0.6537811638596642 0.4967453549165095 0  1.093578267246567 0.1155423208494837 0  -0.7953299407664377 0.4037707114032212 0  -1.158085614817778 0.02868750895373881 0  1.102990945296709 -0.06468826955786587 0  -1.039780157128256 -0.1757864974153557 0  -0.7344121683420767 0.01422289342747316 0  -0.4392520723573221 -0.1390364748861214 0  -1.029562800301022 0.2093822423553422 0  0.3803935389354859 -0.8300817881949615 0  0.08532820665780932 -0.3031177165709392 0  0.3074927329034314 0.7675100921384894 0  0.2210732465214625 0.1837208631209225 0  0.565165622290038 0.01741780387003148 0  -0.482405967949468 -0.6950274569550176 0  -0.5029724891738294 0.6889664306329734 0  -0.2387177559619495 0.3042957047367921 0  0.920430379100706 -0.2128972361295844 0  0.9004385667557891 0.2467575604133909 0  0.3550156301526046 -0.2134697794194937 0  -0.00872631078421761 0.2298128593100534 0  -0.4918027128873926 0.2087912719646563 0  -0.1882924268033822 -0.2788067194017311 0  0.8658193340941872 0.02205191756298569 0  1.252632857009132 0.03055697747014408 0  0.8060820887574689 -0.339935930960869 0  0.7218263058700906 -0.106898824107564 0  0.5879643089379455 -0.2071846714365703 0  0.4436807426491782 -0.07614278276677165 0  0.5155476192886066 -0.3699211425158689 0  0.8672235070056776 -0.08298655405106367 0  0.7177814369924461 0.01960422540188199 0  -0.8608592293016857 0.1223037799781053 0  -1.074676238676523 0.1005183994887323 0  -0.9505797379378171 0.02265581401128169 0  -0.867971338050698 -0.08916187016742398 0  -1.077974031915823 -0.05232235769848395 0  -1.241524261631967 -0.08088750364472484 0  -1.31522770418022 0.00382902040853815 0  -1.311729838743223 0.05897496132155038 0  -1.232110215624804 0.139995462421258 0  -0.1306945313867023 -0.6097071799793757 0  -0.3028933031305034 -0.5019711827200016 0  -0.2923137608076268 -0.8403625250619841 0  -0.3091423467773843 -0.2015208272726356 0  -0.4530770414779867 -0.4007494418027766 0  -1.23148517710557 -0.1988899424213473 0  -1.213765053700404 0.245044263979679 0  0.3839776726605234 -0.5013349142289675 0  0.2181266108585888 -0.2449219550824091 0  0.2439282742609864 -0.5594201080369782 0  -0.9129317431832421 0.2913294838726985 0  -0.7285640069436338 0.1901336335650258 0  1.272576947633976 -0.08056036044857394 0  1.209603213655056 -0.1787773931224314 0  1.191800270247633 0.2270349324437605 0  1.267340075810898 0.1398732012842745 0  -0.9133271145052034 -0.6526468696715063 0  -1.04766915807249 -0.4464916909713423 0  -1.022193681771345 0.475265844532075 0  -0.8863957964891501 0.6620458611311483 0  0.9419583013490372 -0.6057909655193199 0  0.7750695615001874 -0.8235644284718647 0  0.7336540665130138 0.7929560918553004 0  0.902720176432527 0.607581550280207 0  0.0433990
[...]
<PointData  Vectors="f_45"> 
<DataArray  type="Float64"  Name="f_45"  NumberOfComponents="3" format="ascii">3.0656704623603614e-01 -4.0488670916631435e-02 0.0000000000000000e+00  -1.5426284939542038e-02 1.3374109632480485e-01 0.0000000000000000e+00  -1.2017221513310543e-01 1.8262124260027768e-01 0.0000000000000000e+00  1.3373651710180121e-01 2.3356711758825216e-01 0.0000000000000000e+00  2.5588175163809596e-01 1.1131311007532303e-02 0.0000000000000000e+00  6.1237183269937351e-02 1.2322414169302322e-01 0.0000000000000000e+00  -2.4643404622564113e-01 -5.7809057830912079e-02 0.0000000000000000e+00  1.3699772740640839e-01 8.8141364918890575e-02 0.0000000000000000e+00  2.0075214237382630e-01 -8.3240350203498473e-02 0.0000000000000000e+00  1.9142142673172069e-01 -1.1877517254602966e-01 0.0000000000000000e+00  2.0279963830893794e-01 -9.9783487755547490e-02 0.0000000000000000e+00  2.8440116408257506e-02 1.6270660180648092e-01 0.0000000000000000e+00  -6.5775099943890664e-02 1.5938603874168872e-01 0.0000000000000000e+00  2.9850850617739971e-01 3.2239649614930657e-02 0.0000000000000000e+00  1.2389519437102699e-01 1.3756494613924142e-01 0.0000000000000000e+00  1.9399184492015509e-01 1.5381462532888418e-01 0.0000000000000000e+00  4.1056800000988936e-02 1.2585656927435784e-01 0.0000000000000000e+00  6.2557817375436447e-02 1.4690276454377976e-01 0.0000000000000000e+00  2.3381247553542961e-01 1.0154927904940100e-01 0.0000000000000000e+00  1.5097830511150800e-01 1.5612411807863169e-01 0.0000000000000000e+00  1.5579373291301876e-01 1.6204734461262782e-01 0.0000000000000000e+00  1.5348059804136754e-01 1.6316546102468610e-01 0.0000000000000000e+00  1.3011256353013004e-01 1.7646420765831203e-01 0.0000000000000000e+00  1.9192997573542273e-01 1.5413526518961684e-01 0.0000000000000000e+00  2.0169207675898054e-02 1.9001746083263368e-01 0.0000000000000000e+00  1.2861543191721453e-02 1.9536860833038469e-01 0.0000000000000000e+00  1.7259255168973051e-01 1.7159883911136933e-01 0.0000000000000000e+00  7.1448808666445054e-02 2.0801192682827488e-01 0.0000000000000000e+00  5.2461209735244256e-02 2.1865337972519541e-01 0.0000000000000000e+00  4.7986891122117785e-02 2.1781300219217037e-01 0.0000000000000000e+00  1.9422848024007476e-02 2.2321978663248035e-01 0.0000000000000000e+00  -1.3216801792079489e-04 2.2359986592147205e-01 0.0000000000000000e+00  -2.7347138646501741e-02 2.2202605171292025e-01 0.0000000000000000e+00  -4.9938670618583599e-02 2.1808843440207090e-01 0.0000000000000000e+00  -6.9439529634491237e-02 2.1270776684342232e-01 0.0000000000000000e+00  -9.6690996621411437e-02 2.0167773013675214e-01 0.0000000000000000e+00  -1.2223350973618799e-01 1.8758276896292361e-01 0.0000000000000000e+00  -1.4586530604065370e-01 1.6958071880958070e-01 0.0000000000000000e+00  -1.6866591085705468e-01 1.4710970016862152e-01 0.0000000000000000e+00  -1.8707068024355439e-01 1.2310051805554889e-01 0.0000000000000000e+00  -2.0446196561729665e-01 9.0379086999135771e-02 0.0000000000000000e+00  -2.1579958063881027e-01 6.0662855573374287e-02 0.0000000000000000e+00  -2.2161001761446292e-01 2.8393581139789396e-02 0.0000000000000000e+00  -2.2411407411300568e-01 -8.6514475864379672e-03 0.0000000000000000e+00  -2.1868666090283201e-01 -4.5256140578022734e-02 0.0000000000000000e+00  -2.1080864270139896e-01 -7.7364991931733351e-02 0.0000000000000000e+00  -1.9170850569422632e-01 -1.1391884052367668e-01 0.0000000000000000e+00  -1.7325841336165268e-01 -1.4248407426323781e-01 0.0000000000000000e+00  -1.5693912733028395e-01 -1.5939787165297128e-01 0.0000000000000000e+00  -1.2185882651458872e-01 -1.8752922728303290e-01 0.0000000000000000e+00  -9.4155710727213307e-02 -2.0344602746457610e-01 0.0000000000000000e+00  -6.6873451181494861e-02 -2.1307807844039275e-01 0.0000000000000000e+00  -3.6808586506407982e-02 -2.2113520558915023e-01 0.0000000000000000e+00  -8.3397835991938923e-03 -2.2316274199219588e-01 0.0000000000000000e+00  1.6100601562611314e-02 -2.2358859229717876e-01 0.0000000000000000e+00  4.1193018287346506e-02 -2.1932692563982120e-01 0.0000000000000000e+00  3.5737005524983913e-02 -2.2160650563454748e-01 0.0000000000000000e+00  6.1687664841494724e-02 -2.1261429552427119e-01 0.0000000000000000e+00  1.0661140269498412e-01 -1.9826746504801174e-01 0.0000000000000000e+00  1.0644461701594245e-01 -1.9686497952241147e-01 0.0000000000000000e+00  1.7232688209293748e-01 -1.5157187406777423e-01 0.0000000000000000e+00  9.0089803687066136e-02 -1.9643672933639722e-01 0.0000000000000000e+00  1.0316103573588803e-01 -1.5892144471837799e-01 0.0000000000000000e+00  2.9508710479779604e-01 -2.5115655806826436e-02 0.0000000000000000e+00  -5.5585284575237051e-02 -5.4863876112074307e-02 0.0000000000000000e+00  -3.7708803730939058e-02 -1.2897812012272497e-01 0.0000000000000000e+00  2.5057141167861269e-01 -1.1956338321849008e-01 0.0000000000000000e+00  2.2426529762749092e-01 -6.9493284143217995e-02 0.0000000000000000e+00  6.5208442639479003e-02 -1.6969564709404530e-01 0.0000000000000000e+00  8.7133948297729732e-02 -1.3797610871879779e-01 0.0000000000000000e+00  2.2996374933327599e-01 -1.0510510364450869e-01 0.0000000000000000e+00  -1.4060431396446060e-01 -2.6064431407317973e-01 0.0000000000000000e+00  6.5643610178615822e-02 -7.2950672732770158e-02 0.0000000000000000e+00  2.8304026454032877e-01 6.9048364010687327e-02 0.0000000000000000e+00  2.2755722345090709e-01 3.4683585228152823e-03 0.0000000000000000e+00  1.3244354235064076e-01 -1.4578811646273132e-01 0.0000000000000000e+00  9.6694199364922753e-02 -1.9820517752288558e-01 0.0000000000000000e+00  2.2424949089591370e-01 -6.9485556540894375e-02 0.0000000000000000e+00  2.2117987623721350e-01 3.8273889244544688e-02 0.0000000000000000e+00  2.1388658558642740e-01 5.7778304565977642e-02 0.0000000000000000e+00  1.6629389734790687e-01 1.9797201866305059e-01 0.0000000000000000e+00  1.3031346790340712e-01 -1.3166773899041457e-02 0.0000000000000000e+00  1.7600604720785784e-01 -1.9945245781128565e-01 0.0000000000000000e+00  1.1718104007052925e-01 -1.9751677437712986e-01 0.0000000000000000e+00  4.3876819449117282e-02 -4.0606422744829250e-02 0.0000000000000000e+00  1.3492113318839696e-01 2.4067323956950840e-01 0.0000000000000000e+00  1.4750082645839599e-01 1.7043668155423211e-01 0.0000000000000000e+00  1.9803136964201834e-01 1.0915444628182260e-01 0.0000000000000000e+00  1.5356037266306038e-01 1.4602658333115517e-01 0.0000000000000000e+00  1.1451923621884057e-01 1.9985230370693782e-01 0.0000000000000000e+00  1.6583718831693220e-01 1.4275222859832920e-01 0.0000000000000000e+00  2.0575850021875916e-01 1.0213827895135044e-01 0.0000000000000000e+00  1.9191006856829024e-01 6.1512807381037531e-02 0.0000000000000000e+00  7.5670122305148968e-02 -6.7776783706052099e-02 0.0000000000000000e+00  4.0337657197276099e-03 1.3745082729443997e-01 0.0000000000000000e+00  2.7148971299063607e-01 -1.5580053769844837e-01 0.0000000000000000e+00  1.1010506746780975e-01 9.9097140850700621e-02 0.0000000000000000e+00  6.2352538688424337e-02 2.4489188006054621e-01 0.0000000000000000e+00  2.3273710718359319e-01 7.0095193531653111e-02 0.0000000000000000e+00  8.0514056303478465e-02 1.1704327589076488e-01 0.0000000000000000e+00  1.9219368545871356e-02 1.0197192775869753e-01 0.0000000000000000e+00  2.5575968723238190e-01 -4.4382789094905457e-02 0.0000000000000000e+00  2.5868766788888953e-01 -9.7684182487704718e-02 0.0000000000000000e+00  -1.0719825502609376e-01 -5.0562293453498504e-02 0.0000000000000000e+00  -2.0877000484917971e-01 2.0269960584409630e-01 0.0000000000000000e+00  2.1739187294764714e-01 -6.1610177821731844e-02 0.0000000000000000e+00  4.1671763474246011e-02 -6.8436911817433888e-02 0.0000000000000000e+00  -9.1254236947241937e-03 1.6571997789124313e-01 0.0000000000000000e+00  2.4728177563545042e-01 9.0627223000309315e-02 0.0000000000000000e+00  1.3995473446898313e-01 1.5542680616736207e-01 0.0000000000000000e+00  2.0701878972584065e-01 1.6629617969359969e-01 0.0000000000000000e+00  -5.5851750101516176e-02 1.7353120969896907e-01 0.0000000000000000e+00  -2.3931144999769741e-02 1.2338916926823701e-01 0.0000000000000000e+00  1.9939417981607091e-01 1.7183545922471555e-01 0.0000000000000000e+00  1.6130169821122021e-02 2.1834733951833452e-01 0.0000000000000000e+00  8.2946625459169717e-04 2.2393770926905823e-01 0.0000000000000000e+00  7.9773783193121880e-03 2.2214742988820169e-01 0.0000000000000000e+00  -4.3196135072486944e-02 2.2128976658507699e-01 0.0000000000000000e+00  -7.0527321958616537e-02 2.1102553040248573e-01 0.0000000000000000e+00  -9.7349963513867335e-02 2.0292112664942361e-01 0.0000000000000000e+00  -1.3029263942830294e-01 1.8019733431229282e-01 0.0000000000000000e+00  -1.6236984985178785e-01 1.5537386881006421e-01 0.0000000000000000e+00  -1.7605356811029957e-01 1.3754246899113753e-01 0.0000000000000000e+00  -2.0026632914959902e-01 1.0034009241467819e-01 0.0000000000000000e+00  -2.1474688878887147e-01 6.3658336154215442e-02 0.0000000000000000e+00  -2.2232851065656578e-01 2.5497060439089458e-02 0.0000000000000000e+00  -2.2349099726287910e-01 -1.4868385424809376e-02 0.0000000000000000e+00  -2.1724796678567201e-01 -5.4042378699553723e-02 0.0000000000000000e+00  -2.0400863606335090e-01 -9.2158015830995768e-02 0.0000000000000000e+00  -1.8609387850228010e-01 -1.2455025499315625e-01 0.0000000000000000e+00  -1.6320255666106712e-01 -1.5312136163397383e-01 0.0000000000000000e+00  -1.3600765841065929e-01 -1.7781307120789624e-01 0.0000000000000000e+00  -1.0767061966206204e-01 -1.9624672732621171e-01 0.0000000000000000e+00  -7.6685690577126125e-02 -2.1020560573039374e-01 0.0000000000000000e+00  -4.6854742045416287e-02 -2.1878130823556333e-01 0.0000000000000000e+00  -2.5501825982073227e-02 -2.2232033745061108e-01 0.0000000000000000e+00  -8.1311311003190584e-07 -2.2364862130567975e-01 0.0000000000000000e+00  2.7016483137495211e-02 -2.2212094396743012e-01 0.0000000000000000e+00  5.0370941239432691e-02 -2.1806082921335349e-01 0.0000000000000000e+00  7.6906853091269600e-02 -2.0979668383717653e-01 0.0000000000000000e+00  8.7955989924045630e-02 -2.0620537463843272e-01 0.0000000000000000e+00  1.0517588127217865e-01 -1.9594465031197658e-01 0.0000000000000000e+00  1.7320526152779356e-01 -1.5597072360326369e-01 0.0000000000000000e+00  7.1600413750979822e-02 -1.9760524536384036e-01 0.0000000000000000e+00  7.8460912461717464e-02 -1.8978410572565738e-01 0.0000000000000000e+00  1.9445460578897150e-01 -1.3337085543768931e-01 0.0000000000000000e+00  1.5931765517380694e-01 -1.5602772861019418e-01 0.0000000000000000e+00  1.8114075875709468e-01 -1.2150140759447500e-01 0.0000000000000000e+00  2.5763771750662856e-01 -2.5542874825843633e-02 0.0000000000000000e+00  7.7263717872195339e-02 -1.4574577239813369e-01 0.0000000000000000e+00  1.6483384225411493e-01 -1.3802238718467411e-01 0.0000000000000000e+00  1.0199412160604780e-01 -1.5468814163098327e-02 0.0000000000000000e+00  -2.3257794287545952e-01 -1.7024374748549903e-01 0.0000000000000000e+00  4.7582054395921350e-02 -1.9845715615650752e-01 0.0000000000000000e+00  2.3919725237216038e-01 -4.8585245126475426e-02 0.0000000000000000e+00  2.2262752521954574e-01 3.1181216795708292e-02 0.0000000000000000e+00  1.9032495609200947e-01 -1.3960754440693232e-01 0.0000000000000000e+00  2.0593654174389028e-01 -2.3493037525752394e-02 0.0000000000000000e+00  1.9724711203979570e-01 -1.0202730309661427e-01 0.0000000000000000e+00  2.0170266831257383e-01 -9.8468725277770355e-02 0.0000000000000000e+00  2.0258051453663878e-01 -8.8940479755124605e-02 0.0000000000000000e+00  1.8539184447972207e-01 -1.1856639722699691e-01 0.0000000000000000e+00  5.9936355234225733e-02 -1.5812169401213313e-01 0.0000000000000000e+00  1.9459354901893169e-02 -1.0537288128388912e-01 0.0000000000000000e+00  1.8450838961576144e-01 -4.5431593142946508e-02 0.0000000000000000e+00  1.0256880631255659e-01 -2.5120700470133261e-01 0.0000000000000000e+00  -6.2380185764286923e-02 -1.3805775196610240e-01 0.0000000000000000e+00  -5.8130308279448213e-02 -1.7507268567642287e-01 0.0000000000000000e+00  -2.1832412024405248e-01 -4.9491149590232625e-02 0.0000000000000000e+00  8.3314133684580433e-02 -2.0771910760905990e-01 0.0000000000000000e+00  1.3314513470683068e-01 1.7983259793875467e-01 0.0000000000000000e+00  -2.2186337207872114e-01 3.0030525488729976e-02 0.0000000000000000e+00  7.5496007131231030e-02 2.1070616771806630e-01 0.0000000000000000e+00  2.1680907508534167e-01 5.4875778625092561e-02 0.0000000000000000e+00  1.3840366816442851e-01 -1.7581925312284280e-01 0.0000000000000000e+00  2.2336316860084329e-01 1.1078755972579436e-02 0.0000000000000000e+00  2.1834706416474028e-01 -4.8433822269396541e-02 0.0000000000000000e+00  2.0009684660418739e-01 9.9964758631496051e-02 0.0000000000000000e+00  2.2373312060982339e-01 2.8561732548861509e-03 0.0000000000000000e+00  1.8362667975400007e-01 1.2874077389874278e-01 0.0000000000000000e+00  2.0553452810851566e-01 -8.8245210313518604e-02 0.0000000000000000e+00  -1.2232742736197710e-01 -1.8747368600149797e-01 0.0000000000000000e+00  -1.3791169623908411e-01 -1.7747378468001551e-01 0.0000000000000000e+00  -1.4717501073153841e-01 1.6868541956402550e-01 0.0000000000000000e+00  1.1925190435342396e-01 1.9058330073784688e-01 0.0000000000000000e+00  2.2387042201706261e-01 4.7196349266419692e-03 0.0000000000000000e+00  -7.0881055178882546e-02 2.1235278279378575e-01 0.0000000000000000e+00  -4.9871470851165070e-02 -2.1822602237537905e-01 0.0000000000000000e+00  -9.8966372159388256e-03 -2.2472009779551697e-01 0.0000000000000000e+00  1.9422529724705362e-01 -1.1100716785869541e-01 0.0000000000000000e+00  1.9177876874159186e-01 1.1515968600605883e-01 0.0000000000000000e+00  1.2848472581875631e-01 -1.8372374145575068e-01 0.0000000000000000e+00  -2.2691796654517588e-01 4.5722346338306352e-03 0.0000000000000000e+00  1.6959804598460898e-01 -1.4631018867747053e-01 0.0000000000000000e+00  -6.9427817647280246e-02 2.1473948139851962e-01 0.0000000000000000e+00  2.2359450394362637e-01 4.8384744881139734e-03 0.0000000000000000e+00  2.2343767806851123e-01 9.2273492229503155e-03 0.0000000000000000e+00  1.5639360705098085e-01 -1.6003631950693320e-01 0.0000000000000000e+00  2.1299459236778717e-01 -6.8626058143767044e-02 0.0000000000000000e+00  1.7866542102594268e-01 -1.3505452175375554e-01 0.0000000000000000e+00  2.1102994992359750e-01 -7.5479561544057425e-02 0.0000000000000000e+00  9.0984120607095459e-02 -2.0466660381641233e-01 0.0000000000000000e+00  2.1765938486089678e-01 -5.1471845164544110e-02 0.0000000000000000e+00  2.2364128482423462e-01 5.2917667258565570e-03 0.0000000000000000e+00  2.1726668238551927e-01 -5.3231654311174208e-02 0.0000000000000000e+00  2.2142986573660381e-01 -3.1518163838568036e-02 0.0000000000000000e+00  2.2361925279237282e-01 3.4000560224269906e-03 0.0000000000000000e+00  2.1533310832969357e-01 6.0600351531933085e-02 0.0000000000000000e+00  2.1899177667000491e-01 4.5484622301763332e-02 0.0000000000000000e+00  2.1342392936810958e-01 6.6578709161707245e-02 0.0000000000000000e+00  2.1568868080591050e-01 5.9813131592929565e-02 0.0000000000000000e+00  2.2306025064986526e-01 2.0715166859554268e-02 0.0000000000000000e+00  2.1952986362652058e-01 -4.2655833867197360e-02 0.0000000000000000e+00  -2.0862578267119353e-01 8.1550345619320883e-02 0.0000000000000000e+00  -1.0358103880659283e-01 1.9870424470022729e-01 0.0000000000000000e+00  -1.7268466519846415e-01 1.4246937882343083e-01 0.0000000000000000e+00  1.0635566048912984e-01 1.9837331995276672e-01 0.0000000000000000e+00  3.1097945846795635e-02 2.2186788840425670e-01 0.0000000000000000e+00  1.9450718323475266e-01 1.1016929625716558e-01 0.0000000000000000e+00  1.9909709383963636e-01 -1.0188367573359049e-01 0.0000000000000000e+00  -2.8293684868330438e-02 -2.2215057088830356e-01 0.0000000000000000e+00  3.4892071916830768e-02 -2.2177661307726471e-01 0.0000000000000000e+00  -1.2694294868912193e-01 -1.8456707597166949e-01 0.0000000000000000e+00  1.8299465360811282e-01 -1.2868335326573299e-01 0.0000000000000000e+00  2.0046650925052104e-01 -9.9485114338208211e-02 0.0000000000000000e+00  2.1206540129713017e-01 -7.1129880273064827e-02 0.0000000000000000e+00  1.8596781020779318e-01 -1.2445637930721881e-01 0.0000000000000000e+00  1.8916204190498481e-01 1.1946392932402949e-01 0.0000000000000000e+00  2.0727013351420723e-01 8.4602237110182596e-02 0.0000000000000000e+00  7.6309813077523297e-02 2.1026544965856492e-01 0.0000000000000000e+00  1.3503243148490948e-01 1.7823054004101047e-01 0.0000000000000000e+00  1.3358421465072348e-01 -1.7929611741614673e-01 0.0000000000000000e+00  7.9127395247709731e-02 -2.0923885549827945e-01 0.0000000000000000e+00  1.0492548471515259e-01 -1.9753947687245987e-01 0.0000000000000000e+00  2.3172663642060689e-02 -2.2255453323603819e-01 0.0000000000000000e+00  5.6282750195153393e-03 2.2368426201216141e-01 0.0000000000000000e+00  8.7726857900956134e-02 2.0577277156207829e-01 0.0000000000000000e+00  -2.2255978066264140e-01 -2.4608893676356956e-02 0.0000000000000000e+00  -1.9520113344694570e-01 1.0967269999688196e-01 0.0000000000000000e+00  -1.9516315967487335e-01 -1.0969543529226884e-01 0.0000000000000000e+00  -2.2309566908105255e-01 1.8641243213236357e-02 0.0000000000000000e+00  -1.5466938350897116e-02 -2.2328852721417353e-01 0.0000000000000000e+00  2.1212009119065564e-01 7.2937837640871417e-02 0.0000000000000000e+00  1.7446755981182061e-01 1.4042696640685773e-01 0.0000000000000000e+00  7.1290858656901962e-02 2.1241837310404799e-01 0.0000000000000000e+00  1.4174182178085190e-01 1.7337090465403529e-01 0.0000000000000000e+00  2.1973322459154263e-01 4.3128348676942811e-02 0.0000000000000000e+00  1.9851634960945697e-01 1.0333238614055125e-01 0.0000000000000000e+00  -1.2629014183175993e-02 2.2808476072715994e-01 0.0000000000000000e+00  -2.6485628574462544e-01 1.8032420861887249e-02 0.0000000000000000e+00  1.8391185692507947e-01 -1.3546765320450424e-01 0.0000000000000000e+00  1.5678688556058232e-01 1.5935363010471648e-01 0.0000000000000000e+00  1.6357183623374857e-01 -1.5269762495594541e-01 0.0000000000000000e+00  1.7814854281991677e-01 1.3530721122960188e-01 0.0000000000000000e+00  2.0994324761513464e-01 7.7422556866501083e-02 0.0000000000000000e+00  1.5128900100489778e-01 1.6487714700636738e-01 0.0000000000000000e+00  2.1556260867716426e-01 5.9621686001655919e-02 0.0000000000000000e+00  -6.9258548419357926e-02 2.1303941100983304e-01 0.0000000000000000e+00  -3.4224919259452591e-02 2.2123081707088724e-01 0.0000000000000000e+00  -2.1399429061085293e-01 -6.6266055787812250e-02 0.0000000000000000e+00  -2.0289158708134516e-01 -9.4668193466472789e-02 0.0000000000000000e+00  -6.0017211334909226e-02 -2.1581653129502792e-01 0.0000000000000000e+00  -1.8045027496591431e-01 -1.3271884471917800e-01 0.0000000000000000e+00  -1.5793709471862322e-01 -1.5868058696739498e-01 0.0000000000000000e+00  2.2176177239103298e-01 -3.7136494917231457e-02 0.0000000000000000e+00  -2.2348053852198255e-01 2.0995981469892212e-02 0.0000000000000000e+00  -7.0785710206114127e-02 -2.1233411446602737e-01 0.0000000000000000e+00  -1.7473838868167671e-01 -1.3997797643799756e-01 0.0000000000000000e+00  -1.8489504866236231e-01 1.2619941040488764e-01 0.0000000000000000e+00  -9.2259649394230162e-02 2.0392364548621389e-01 0.0000000000000000e+00  2.2397028190212240e-01 5.4411254645989900e-02 0.0000000000000000e+00  -1.8206191739667713e-01 1.3040328821166583e-01 0.0000000000000000e+00  -2.1278230673969412e-01 6.9500040721768949e-02 0.0000000000000000e+00  -1.1545577907145431e-01 1.9179822048730971e-01 0.0000000000000000e+00  -7.1573875728880142e-03 2.2366139758777676e-01 0.0000000000000000e+00  4.7428098752188771e-02 2.1874067732654112e-01 0.0000000000000000e+00  -1.6727395119536502e-03 -2.2376730094082911e-01 0.0000000000000000e+00  -1.1288793935824951e-01 -1.9330300103812534e-01 0.0000000000000000e+00  5.9377120428723604e-02 -2.1578010408714896e-01 0.0000000000000000e+00  2.1687778816136194e-01 -5.5484652504004278e-02 0.0000000000000000e+00  1.4497827609584210e-01 -1.7057811514398757e-01 0.00000