<?xml version="1.0"?>
<VTKFile type="UnstructuredGrid"  version="0.1"  >
<UnstructuredGrid>
<Piece  NumberOfPoints="2549" NumberOfCells="4928">
<Points>
<DataArray  type="Float64"  NumberOfComponents="3"  format="ascii">1.474981630914291 0.02405032311063162 0  1.471205968766328 0.04716125120725317 0  1.447806848376961 0.05652154755040627 0  1.435838551106787 0.07240231248502565 0  1.431030120853326 0.08360509371169902 0  1.430635256291346 0.1065505633163073 0  1.413064178608191 0.1137743518694476 0  1.399952269780098 0.105677159312654 0  1.388084492365024 0.1506311278509128 0  1.520143161918673 0.6657300107018793 0  1.386970170408843 0.1744621898062563 0  1.380949844552091 0.2155689447050182 0  1.346253318328638 0.232087935654538 0  1.3398012792962 0.2596481418191996 0  1.336670898399347 0.2905203958049665 0  1.318405227027051 0.323077307174958 0  1.310320995245954 0.3574579602385622 0  1.290469232883166 0.3683220566009552 0  1.276657763404878 0.4201186985923497 0  1.26415024450213 0.4604519851427831 0  1.244067118617274 0.5048244786201084 0  1.225754184746963 0.5504608392510247 0  1.202803181468192 0.5979253938673126 0  1.179938430658652 0.6493638181731676 0  1.155215431520763 0.706941332898822 0  1.112643191741634 0.737094214743253 0  1.086341843867472 0.7927530571627035 0  1.054126100311864 0.8506380384662298 0  1.012692623978643 0.9032910333851184 0  0.9696352272009969 0.9591369660177086 0  0.9223286167209074 1.013585639873083 0  0.8699289952534398 1.068563524192283 0  0.8141612455517608 1.121057688111751 0  0.755095579752699 1.170440107597596 0  0.6891089629778099 1.220794032360973 0  0.6203706421053835 1.267481041582101 0  0.5464806954644144 1.310540611796403 0  0.4686071400378147 1.349650093230481 0  0.3870836480970133 1.383493080397644 0  0.3016731375373319 1.412298985908782 0  0.2137947659052372 1.434905070705084 0  0.1244661610996838 1.450081858637479 0  0.03257985742896584 1.459782016542371 0  -0.05914273050746209 1.461516142767185 0  -0.1511300931081999 1.456235919613383 0  -0.2416471523152912 1.44311729960081 0  -0.3305583624577894 1.42380860731955 0  -0.4166039882333269 1.395577154282924 0  -0.4986760218518025 1.364352979877547 0  -0.5781434932805692 1.326408661725199 0  -0.6529595131024389 1.28159760469493 0  -0.7232785748309493 1.233944284705314 0  -0.7885873335229535 1.181882108061397 0  -0.84955715984624 1.127202141408334 0  -0.9042917332375106 1.070852028133237 0  -0.9578700621713163 1.010667921387988 0  -1.000397471185517 0.9578693139862088 0  -1.04574074318324 0.9048733067712449 0  -1.08511381767803 0.8431583506204576 0  -1.119903055724283 0.7856723799519049 0  -1.148624310868515 0.729333505983675 0  -1.17243183173888 0.6689523743188035 0  -1.205453058064194 0.6301136087843291 0  -1.220195923890369 0.5528853386988473 0  -1.221138342407934 0.5124590581117494 0  -1.264890807061046 0.5009039161757273 0  -1.279636758748613 0.4505122080622633 0  -1.289315125113229 0.4120064258538212 0  -1.2967715055841 0.3733561830531184 0  -1.322196432874708 0.3513489454069412 0  -1.331187317933931 0.3017499806740337 0  -1.311374499713946 0.3285504698061915 0  -1.377373860024569 0.2895326584517365 0  -1.372465231140134 0.1944656280525805 0  -1.370088146950372 0.1695019875538484 0  -1.374534263211374 0.1363625712876667 0  -1.388560207558563 0.1193788202495181 0  -1.399131724414073 0.08655217318748419 0  -1.398626402630593 0.111880920891165 0  -1.38894140376316 0.02266445071267978 0  -1.407996296976003 0.09630188044670962 0  -1.437967111322639 0.1585764092347831 0  -1.474081150318513 0.07866741087450084 0  -1.482059215417354 0.0489257848431251 0  -1.504793920802224 0.02117257341306441 0  -1.488589663603192 -0.005378962146709333 0  -1.472726940477753 -0.03871585225299201 0  -1.283545311031765 -0.5229182159461607 0  -1.395054265303971 -0.04279574689034002 0  -1.704992556497257 0.504174990662604 0  -1.441163362851201 -0.0623779853608942 0  -1.45048547300975 0.0135253166746201 0  -1.408693340956015 -0.1298279149619666 0  -1.394766309114029 -0.08756615726743415 0  -1.376023775239855 -0.1007833463792051 0  -1.381439931444656 -0.1226931462927091 0  -1.398348984180104 -0.2418843714068447 0  -1.316935586752197 -0.3426089758069263 0  -1.360928688790509 -0.2390279037560228 0  -1.358108896771147 -0.2963746792716748 0  -1.323125986171187 -0.3230738499211685 0  -1.32936103279098 -0.3607677155296583 0  -1.328360621066997 -0.4005298506028806 0  -1.347186092122838 -0.448250260830768 0  -1.239522669638587 -0.4666942176973805 0  -1.209714903219585 -0.4995603814278589 0  -1.248670225233331 -0.6155044834118953 0  -1.199005020858998 -0.6373481983399246 0  -1.187972786818256 -0.700694090605344 0  -1.163203988875346 -0.7653141374786828 0  -1.140757346371715 -0.8275669239079543 0  -1.098305220242871 -0.9091932095600657 0  -1.033044229727569 -0.9323506515732383 0  -1.007702152942484 -1.005199522765929 0  -0.9557456139821775 -1.088704425307281 0  -0.8983427647949482 -1.142128195278276 0  -0.8367162909583262 -1.210143268841154 0  -0.7703294711686072 -1.269209638128003 0  -0.6980451718453261 -1.326131343789196 0  -0.618688187851253 -1.378436704639123 0  -0.5368643295315707 -1.426587111386098 0  -0.4514232098411966 -1.46391897907051 0  -0.3587589921094443 -1.499299494470058 0  -0.2651125909838996 -1.52642315201448 0  -0.1674432376866282 -1.544851065778143 0  -0.06864616476896779 -1.554972814539625 0  0.03110120263054781 -1.556076945883237 0  0.1304463392021213 -1.548412834953524 0  0.2285000819602 -1.531849311420842 0  0.3240176755752887 -1.506990725263997 0  0.4165061935663587 -1.474792641820152 0  0.5050874165428658 -1.435365786651205 0  0.5890110219187344 -1.389833073808916 0  0.6682830254008735 -1.338779142624047 0  0.7410184925790497 -1.283819816020365 0  0.8115394796838112 -1.223740701047581 0  0.8714252260721563 -1.167423345447893 0  0.9286513868524561 -1.106457061668522 0  0.9829769464757572 -1.041771450734385 0  1.030325414944204 -0.9783864978923454 0  1.073144202923995 -0.9143792159581703 0  1.112736125936219 -0.8528784943793773 0  1.144416483872259 -0.7891858772398392 0  1.170415928590984 -0.72760527867687 0  1.208567465861329 -0.6871209286378201 0  1.231338301779364 -0.6252583179475129 0  1.252741381321232 -0.5691044134414561 0  1.272398331360218 -0.5152990454407912 0  1.281358696684832 -0.464885970850739 0  1.28707780417599 -0.4111929687362504 0  1.315211057743403 -0.383675249547902 0  1.324430094575693 -0.3085303232679483 0  1.289689406777372 -0.3142698389201714 0  1.350452336863799 -0.2756373894785144 0  1.365465657474387 -0.2283554548905844 0  1.363621122212965 -0.1971627709412221 0  1.366874835273866 -0.167570695691577 0  1.376432664245056 -0.1390151177627088 0  1.375262389386029 -0.1056673847582526 0  1.604764399285128 0.824369179880778 0  1.411703935721198 -0.08573721662325241 0  1.404756339887272 -0.09279247043005259 0  1.411764585676816 -0.06173501110220472 0  1.431647719091135 -0.04857156390414111 0  1.430915420773773 -0.02927077833067762 0  1.440572840084303 -0.01790156252813849 0  1.447605033604204 -0.003683283868228615 0  1.467651971714385 0.003966931271547841 0  -0.09650182176816637 0.8822137463077852 0  0.6906996194740168 -0.5053864720608893 0  -0.8072683905825545 -0.3852704083416349 0  -0.07653740980212176 -0.9415501958075452 0  0.6537806484022426 0.4967451171592644 0  1.093576725174979 0.1155417844460428 0  -0.7953288707990617 0.4037719726483488 0  -1.15808427897859 0.02868875923259953 0  1.102989340360645 -0.06468840384439448 0  -1.039778805930055 -0.1757855126658052 0  -0.7344112404404379 0.01422380094604057 0  -0.4392519431177933 -0.1390361560879382 0  -1.02956171053314 0.2093832823526292 0  0.3803933200263361 -0.8300828510295821 0  0.08532632897589182 -0.303118640078738 0  0.3074933336138266 0.7675108625085454 0  0.2210726638520172 0.1837207543136556 0  0.5651641645595707 0.01741735569767079 0  -0.4824057449841226 -0.6950283238523457 0  -0.5029714884096455 0.6889682616753448 0  -0.2387171693609698 0.3042972783078976 0  0.9204286961662717 -0.2128972555299816 0  0.900437226789746 0.2467569702018386 0  0.3550140726689468 -0.2134706696903655 0  -0.008726301988603614 0.2298133601433535 0  -0.4918020377245851 0.208792687406037 0  -0.1882932537874828 -0.2788068746098991 0  0.8658177396051651 0.02205156934375964 0  1.252631393747214 0.0305565872418389 0  0.806080545203847 -0.3399360533835934 0  0.7218246784269736 -0.1068991610975737 0  0.5879627324610224 -0.2071851868152994 0  0.4436792691159465 -0.07614342478949013 0  0.5155462088926686 -0.3699218216299296 0  0.8672218518245874 -0.08298677653654321 0  0.7177798869416444 0.0196038409487988 0  -0.8608581439242418 0.1223048236636341 0  -1.074675070497197 0.100519523399565 0  -0.9505785480554673 0.02265684495155025 0  -0.8679702280972174 -0.08916100688839002 0  -1.07797263225721 -0.05232123383262906 0  -1.241522349910223 -0.0808862507191927 0  -1.315226061602983 0.003830512052934187 0  -1.311728840907796 0.05897634849284126 0  -1.232109255257477 0.139996657972346 0  -0.1306945501616628 -0.6097084286054693 0  -0.3028931877885188 -0.5019721318110192 0  -0.2923136444332456 -0.8403638548065731 0  -0.3091426928048773 -0.2015207526087951 0  -0.4530767751980605 -0.4007499352201796 0  -1.231483525361598 -0.1988888610204474 0  -1.213764131414429 0.2450453521974846 0  0.3839765501540928 -0.5013358446819959 0  0.2181249342522675 -0.244923000659478 0  0.2439273879475345 -0.5594212161289609 0  -0.9129306432720007 0.2913305522733263 0  -0.7285630305479097 0.1901347940302016 0  1.272575415946692 -0.08056046769971957 0  1.209601598951099 -0.1787772470611343 0  1.191798720260432 0.2270341578649802 0  1.267338466978949 0.1398725912960044 0  -0.9133267888682979 -0.6526465479471375 0  -1.04766808194373 -0.4464908622746148 0  -1.022192488612511 0.475266796865638 0  -0.8863948602909705 0.6620471212968233 0  0.9419572915122461 -0.6057907597967809 0  0.7750692945310904 -0.8235645698346755 0  0.7336544586328639 0.7929557327481985 0  0.9027198401481765 0.6075808547576729 0  0.04339930344437255 
[...]
<PointData  Vectors="f_45"> 
<DataArray  type="Float64"  Name="f_45"  NumberOfComponents="3" format="ascii">3.0656587175274802e-01 -4.0487591022789406e-02 0.0000000000000000e+00  -1.5425381713295308e-02 1.3374180053955656e-01 0.0000000000000000e+00  -1.2017385668079839e-01 1.8262247236097270e-01 0.0000000000000000e+00  1.3373273087574533e-01 2.3356715227981506e-01 0.0000000000000000e+00  2.5588087243236918e-01 1.1137968946002073e-02 0.0000000000000000e+00  6.1239148024346032e-02 1.2321550204137595e-01 0.0000000000000000e+00  -2.4652117660549727e-01 -5.7856838510009362e-02 0.0000000000000000e+00  1.3709151065926206e-01 8.8340586138935792e-02 0.0000000000000000e+00  2.0047861593776947e-01 -8.3752974515745135e-02 0.0000000000000000e+00  1.9108392119014617e-01 -1.1937121584553467e-01 0.0000000000000000e+00  2.0248321408051514e-01 -1.0031942353410346e-01 0.0000000000000000e+00  2.8534761127719237e-02 1.6284479753925152e-01 0.0000000000000000e+00  -6.5805425585581917e-02 1.5935004056274668e-01 0.0000000000000000e+00  2.9851249435918575e-01 3.2255899349366200e-02 0.0000000000000000e+00  1.2389481375653279e-01 1.3755886068579484e-01 0.0000000000000000e+00  1.9398657031547015e-01 1.5382019837967090e-01 0.0000000000000000e+00  4.1063188693116814e-02 1.2586495559990940e-01 0.0000000000000000e+00  6.2568008285163471e-02 1.4690136433319551e-01 0.0000000000000000e+00  2.3380746457519389e-01 1.0155217028484627e-01 0.0000000000000000e+00  1.5098073568262169e-01 1.5612404135820057e-01 0.0000000000000000e+00  1.5579602932165451e-01 1.6204492356016600e-01 0.0000000000000000e+00  1.5348280244102472e-01 1.6316364722668228e-01 0.0000000000000000e+00  1.3011380484318430e-01 1.7646479161664527e-01 0.0000000000000000e+00  1.9192245056133542e-01 1.5413669884281428e-01 0.0000000000000000e+00  2.0184465352120061e-02 1.9002130446485205e-01 0.0000000000000000e+00  1.2875547065879050e-02 1.9537537656297216e-01 0.0000000000000000e+00  1.7258105563301035e-01 1.7160218608247266e-01 0.0000000000000000e+00  7.1450092908686952e-02 2.0801357496077866e-01 0.0000000000000000e+00  5.2465586077196452e-02 2.1865179742603083e-01 0.0000000000000000e+00  4.7986431006985776e-02 2.1781330908501481e-01 0.0000000000000000e+00  1.9425223235072793e-02 2.2321946057774891e-01 0.0000000000000000e+00  -1.3074099313521568e-04 2.2359990926579737e-01 0.0000000000000000e+00  -2.7346063200321083e-02 2.2202616671294459e-01 0.0000000000000000e+00  -4.9937151264514944e-02 2.1808879326136216e-01 0.0000000000000000e+00  -6.9437922737690422e-02 2.1270828489635582e-01 0.0000000000000000e+00  -9.6689950428370489e-02 2.0167822972570559e-01 0.0000000000000000e+00  -1.2223240481327409e-01 1.8758351356870520e-01 0.0000000000000000e+00  -1.4586452114648626e-01 1.6958134658731100e-01 0.0000000000000000e+00  -1.6866514595472626e-01 1.4711064494428694e-01 0.0000000000000000e+00  -1.8707010252830047e-01 1.2310133021753791e-01 0.0000000000000000e+00  -2.0446184884988072e-01 9.0379416714704952e-02 0.0000000000000000e+00  -2.1579930947171616e-01 6.0663804474884786e-02 0.0000000000000000e+00  -2.2160990402126379e-01 2.8394404768699248e-02 0.0000000000000000e+00  -2.2411409099485419e-01 -8.6510060683477608e-03 0.0000000000000000e+00  -2.1868682984777826e-01 -4.5255428498299458e-02 0.0000000000000000e+00  -2.1080872918293056e-01 -7.7364668918120022e-02 0.0000000000000000e+00  -1.9170866905144060e-01 -1.1391864163392235e-01 0.0000000000000000e+00  -1.7325886668724655e-01 -1.4248351673170279e-01 0.0000000000000000e+00  -1.5693900056247179e-01 -1.5939794754697997e-01 0.0000000000000000e+00  -1.2185891985606077e-01 -1.8752922916142770e-01 0.0000000000000000e+00  -9.4155810178897334e-02 -2.0344593881872861e-01 0.0000000000000000e+00  -6.6873190513624919e-02 -2.1307819881949086e-01 0.0000000000000000e+00  -3.6808344552833279e-02 -2.2113522240676325e-01 0.0000000000000000e+00  -8.3393182647025308e-03 -2.2316278279331780e-01 0.0000000000000000e+00  1.6101353838391314e-02 -2.2358851533966581e-01 0.0000000000000000e+00  4.1193405047337400e-02 -2.1932687515757221e-01 0.0000000000000000e+00  3.5737627947414398e-02 -2.2160639919200611e-01 0.0000000000000000e+00  6.1688401756084157e-02 -2.1261418150120412e-01 0.0000000000000000e+00  1.0661253379552010e-01 -1.9826678832044756e-01 0.0000000000000000e+00  1.0644541158446075e-01 -1.9686472548729134e-01 0.0000000000000000e+00  1.7232555372809591e-01 -1.5157232238940155e-01 0.0000000000000000e+00  9.0092411572958220e-02 -1.9643664061263566e-01 0.0000000000000000e+00  1.0316368705524516e-01 -1.5891969281134508e-01 0.0000000000000000e+00  2.9508804356789070e-01 -2.5112961550128338e-02 0.0000000000000000e+00  -5.5590409229827137e-02 -5.4855159988647026e-02 0.0000000000000000e+00  -3.7712143264238683e-02 -1.2897380531865971e-01 0.0000000000000000e+00  2.5057199775437139e-01 -1.1956537061980703e-01 0.0000000000000000e+00  2.2426584098318833e-01 -6.9492097820997065e-02 0.0000000000000000e+00  6.5206708302610203e-02 -1.6969563966641726e-01 0.0000000000000000e+00  8.7132883467127789e-02 -1.3797509515885858e-01 0.0000000000000000e+00  2.2996437505237050e-01 -1.0510467689370211e-01 0.0000000000000000e+00  -1.4060678961646556e-01 -2.6064369435113294e-01 0.0000000000000000e+00  6.5642619241679898e-02 -7.2949744616250700e-02 0.0000000000000000e+00  2.8304059130626008e-01 6.9048979001836125e-02 0.0000000000000000e+00  2.2755703386388076e-01 3.4680862124814118e-03 0.0000000000000000e+00  1.3244305850241894e-01 -1.4578909469512108e-01 0.0000000000000000e+00  9.6694958589411489e-02 -1.9820423662813957e-01 0.0000000000000000e+00  2.2425170824301469e-01 -6.9480914385121828e-02 0.0000000000000000e+00  2.2117689892258213e-01 3.8290077395141175e-02 0.0000000000000000e+00  2.1387942780541705e-01 5.7809620346388778e-02 0.0000000000000000e+00  1.6624680074585169e-01 1.9801091536819912e-01 0.0000000000000000e+00  1.3031351266025995e-01 -1.3128396177849517e-02 0.0000000000000000e+00  1.7604946513184391e-01 -1.9942464046897246e-01 0.0000000000000000e+00  1.1719082381803597e-01 -1.9751673058746955e-01 0.0000000000000000e+00  4.3869961060745838e-02 -4.0592372678921740e-02 0.0000000000000000e+00  1.3493159058339863e-01 2.4065693185977249e-01 0.0000000000000000e+00  1.4736462578767690e-01 1.7055018404441594e-01 0.0000000000000000e+00  1.9794615011019948e-01 1.0931987001980195e-01 0.0000000000000000e+00  1.5340527158216896e-01 1.4617336424916927e-01 0.0000000000000000e+00  1.1429062913733722e-01 1.9999475547679424e-01 0.0000000000000000e+00  1.6567876996561753e-01 1.4291200910638008e-01 0.0000000000000000e+00  2.0577871865901376e-01 1.0214487012534799e-01 0.0000000000000000e+00  1.9188575839315958e-01 6.1520663633891026e-02 0.0000000000000000e+00  7.5670835667711198e-02 -6.7805177990674995e-02 0.0000000000000000e+00  4.0466287965260405e-03 1.3745203134228792e-01 0.0000000000000000e+00  2.7148568719849209e-01 -1.5580883480129903e-01 0.0000000000000000e+00  1.1010501817483262e-01 9.9095787776102187e-02 0.0000000000000000e+00  6.2352955098501452e-02 2.4489251191002520e-01 0.0000000000000000e+00  2.3273678627605351e-01 7.0093929991344950e-02 0.0000000000000000e+00  8.0516942294429308e-02 1.1704198971461473e-01 0.0000000000000000e+00  1.9221928078041971e-02 1.0197173918258658e-01 0.0000000000000000e+00  2.5576006232853882e-01 -4.4380612994468618e-02 0.0000000000000000e+00  2.5868307854378081e-01 -9.7688869661358202e-02 0.0000000000000000e+00  -1.0720269776952566e-01 -5.0566251265441509e-02 0.0000000000000000e+00  -2.0876787417021994e-01 2.0270003309776857e-01 0.0000000000000000e+00  2.1738799502199477e-01 -6.1619042572306909e-02 0.0000000000000000e+00  4.1663121524146175e-02 -6.8445040283028960e-02 0.0000000000000000e+00  -9.1274746907971036e-03 1.6571987408194097e-01 0.0000000000000000e+00  2.4727845459816267e-01 9.0632627897796331e-02 0.0000000000000000e+00  1.3995648100074790e-01 1.5542429038358779e-01 0.0000000000000000e+00  2.0702147640557386e-01 1.6629168121347501e-01 0.0000000000000000e+00  -5.5855532743852299e-02 1.7353594001795308e-01 0.0000000000000000e+00  -2.3925578138916846e-02 1.2338510547807029e-01 0.0000000000000000e+00  1.9939200416974645e-01 1.7183397319919058e-01 0.0000000000000000e+00  1.6126895849582976e-02 2.1835050826034244e-01 0.0000000000000000e+00  8.3471644754856971e-04 2.2393695099002098e-01 0.0000000000000000e+00  7.9776658989326142e-03 2.2214732746803426e-01 0.0000000000000000e+00  -4.3196052116221191e-02 2.2128988021605364e-01 0.0000000000000000e+00  -7.0526049801762344e-02 2.1102586744114793e-01 0.0000000000000000e+00  -9.7349529953941125e-02 2.0292138490558284e-01 0.0000000000000000e+00  -1.3029218984235363e-01 1.8019763718922610e-01 0.0000000000000000e+00  -1.6236963085430456e-01 1.5537411054622086e-01 0.0000000000000000e+00  -1.7605338911502333e-01 1.3754269656244270e-01 0.0000000000000000e+00  -2.0026618614067540e-01 1.0034039139968812e-01 0.0000000000000000e+00  -2.1474686372992732e-01 6.3658381168222394e-02 0.0000000000000000e+00  -2.2232852902709327e-01 2.5497108328633316e-02 0.0000000000000000e+00  -2.2349096456807044e-01 -1.4868499247955979e-02 0.0000000000000000e+00  -2.1724795199227845e-01 -5.4042540487655097e-02 0.0000000000000000e+00  -2.0400859217837106e-01 -9.2158080081274601e-02 0.0000000000000000e+00  -1.8609362919870023e-01 -1.2455063893424816e-01 0.0000000000000000e+00  -1.6320221049154809e-01 -1.5312173805168294e-01 0.0000000000000000e+00  -1.3600716916065589e-01 -1.7781344237277710e-01 0.0000000000000000e+00  -1.0766990595415810e-01 -1.9624711988475521e-01 0.0000000000000000e+00  -7.6684892925302395e-02 -2.1020591111652578e-01 0.0000000000000000e+00  -4.6853332995599371e-02 -2.1878159288636631e-01 0.0000000000000000e+00  -2.5500627966010762e-02 -2.2232049393243966e-01 0.0000000000000000e+00  -1.8610242393156311e-07 -2.2364859856262448e-01 0.0000000000000000e+00  2.7017682174301394e-02 -2.2212083504840957e-01 0.0000000000000000e+00  5.0372929463251837e-02 -2.1806029608164515e-01 0.0000000000000000e+00  7.6907434995303808e-02 -2.0979662067900029e-01 0.0000000000000000e+00  8.7959268771137911e-02 -2.0620362082550009e-01 0.0000000000000000e+00  1.0517788163510630e-01 -1.9594471765741814e-01 0.0000000000000000e+00  1.7319325029404362e-01 -1.5597681244915515e-01 0.0000000000000000e+00  7.1617616873142387e-02 -1.9760635400322524e-01 0.0000000000000000e+00  7.8479109879953962e-02 -1.8978397045458426e-01 0.0000000000000000e+00  1.9444407036813263e-01 -1.3337698101593456e-01 0.0000000000000000e+00  1.5931883111382761e-01 -1.5602797891840886e-01 0.0000000000000000e+00  1.8114465004952685e-01 -1.2149588185297396e-01 0.0000000000000000e+00  2.5763396603593158e-01 -2.5546589354116484e-02 0.0000000000000000e+00  7.7273152197300465e-02 -1.4574849194102105e-01 0.0000000000000000e+00  1.6484312654746280e-01 -1.3802534802691893e-01 0.0000000000000000e+00  1.0198795770759964e-01 -1.5462981187811227e-02 0.0000000000000000e+00  -2.3259193690198759e-01 -1.7022809528598176e-01 0.0000000000000000e+00  4.7572013594310091e-02 -1.9845668478905859e-01 0.0000000000000000e+00  2.3919918595555881e-01 -4.8585756909252008e-02 0.0000000000000000e+00  2.2262658618757350e-01 3.1183998448191325e-02 0.0000000000000000e+00  1.9032606805239413e-01 -1.3960682347423481e-01 0.0000000000000000e+00  2.0593593850332290e-01 -2.3493383541194100e-02 0.0000000000000000e+00  1.9725027168314896e-01 -1.0202146564382336e-01 0.0000000000000000e+00  2.0170583137645220e-01 -9.8462283461441161e-02 0.0000000000000000e+00  2.0258318531026023e-01 -8.8933881860166167e-02 0.0000000000000000e+00  1.8538639693634715e-01 -1.1857244276222634e-01 0.0000000000000000e+00  5.9934367392572997e-02 -1.5812386758097835e-01 0.0000000000000000e+00  1.9456467270170554e-02 -1.0537435183776946e-01 0.0000000000000000e+00  1.8450964320981711e-01 -4.5434916318004663e-02 0.0000000000000000e+00  1.0256461245765423e-01 -2.5120813841511336e-01 0.0000000000000000e+00  -6.2380720116574015e-02 -1.3806331924738946e-01 0.0000000000000000e+00  -5.8127143527126654e-02 -1.7507480997316530e-01 0.0000000000000000e+00  -2.1873932392009127e-01 -4.7620822616044542e-02 0.0000000000000000e+00  8.1381417138642817e-02 -2.0848178742648632e-01 0.0000000000000000e+00  1.3464237201035231e-01 1.7871597013558432e-01 0.0000000000000000e+00  -2.2158667905233012e-01 3.2001652087477454e-02 0.0000000000000000e+00  7.7446833964901554e-02 2.0999896846273253e-01 0.0000000000000000e+00  2.1703340197811499e-01 5.3983744723592977e-02 0.0000000000000000e+00  1.3699078831470590e-01 -1.7692074356830881e-01 0.0000000000000000e+00  2.2342071488371743e-01 9.9270527258896787e-03 0.0000000000000000e+00  2.1815092735494993e-01 -4.9307259746422215e-02 0.0000000000000000e+00  2.0066427052478419e-01 9.8824439595050828e-02 0.0000000000000000e+00  2.2375142286781680e-01 2.6367954564386723e-04 0.0000000000000000e+00  1.8601943869098939e-01 1.2526246943223934e-01 0.0000000000000000e+00  2.0502972145086421e-01 -8.9411598005132417e-02 0.0000000000000000e+00  -1.2402535655731643e-01 -1.8635275781169258e-01 0.0000000000000000e+00  -1.4260663513492219e-01 -1.7372539217992855e-01 0.0000000000000000e+00  -1.4554626746311014e-01 1.7009383034687395e-01 0.0000000000000000e+00  1.2387899286592316e-01 1.8761961387758133e-01 0.0000000000000000e+00  2.2391605365546338e-01 1.2873270936020309e-03 0.0000000000000000e+00  -6.8706886227187888e-02 2.1306678095985182e-01 0.0000000000000000e+00  -5.1815132036474740e-02 -2.1777153015162215e-01 0.0000000000000000e+00  -1.4675242905868309e-02 -2.2444806086526559e-01 0.0000000000000000e+00  1.9345901712468749e-01 -1.1233454049799158e-01 0.0000000000000000e+00  1.9256480912211885e-01 1.1384260939764769e-01 0.0000000000000000e+00  1.2466330708112659e-01 -1.8633162239334713e-01 0.0000000000000000e+00  -2.2668379596928628e-01 1.0880645290565285e-02 0.0000000000000000e+00  1.6720112910608381e-01 -1.4904124387629789e-01 0.0000000000000000e+00  -6.4069800143173358e-02 2.1641147367945973e-01 0.0000000000000000e+00  2.2362681880277327e-01 2.9891298539765120e-03 0.0000000000000000e+00  2.2345618555044114e-01 8.7680653801743072e-03 0.0000000000000000e+00  1.5503239860897541e-01 -1.6135274614338263e-01 0.0000000000000000e+00  2.1220212244107453e-01 -7.1034307071511524e-02 0.0000000000000000e+00  1.7672875317924569e-01 -1.3757383728838957e-01 0.0000000000000000e+00  2.0957254320386404e-01 -7.9430189566581461e-02 0.0000000000000000e+00  8.7994463324503946e-02 -2.0596487983171838e-01 0.0000000000000000e+00  2.1722798668620055e-01 -5.3260511864093772e-02 0.0000000000000000e+00  2.2368717712183372e-01 2.7254783074800110e-03 0.0000000000000000e+00  2.1678666523708323e-01 -5.5154737282184507e-02 0.0000000000000000e+00  2.2124596362666027e-01 -3.2792508301572057e-02 0.0000000000000000e+00  2.2363960765688018e-01 1.6916669186128335e-03 0.0000000000000000e+00  2.1586554870095373e-01 5.8678622230697315e-02 0.0000000000000000e+00  2.1925455547796788e-01 4.4211228034441399e-02 0.0000000000000000e+00  2.1366498366179440e-01 6.5813981473413746e-02 0.0000000000000000e+00  2.1593507100751955e-01 5.8984829801565809e-02 0.0000000000000000e+00  2.2315787921388400e-01 1.9824966432412213e-02 0.0000000000000000e+00  2.1937955104492315e-01 -4.3428710299571370e-02 0.0000000000000000e+00  -2.0724422057279884e-01 8.5003511648888655e-02 0.0000000000000000e+00  -1.0018411948743579e-01 2.0044300822629893e-01 0.0000000000000000e+00  -1.7128317923824077e-01 1.4415163829912536e-01 0.0000000000000000e+00  1.1075006193661328e-01 1.9596109599068479e-01 0.0000000000000000e+00  3.4578488148769078e-02 2.2135492857508540e-01 0.0000000000000000e+00  1.9479080743464275e-01 1.0967083221089853e-01 0.0000000000000000e+00  1.9883516280849808e-01 -1.0239079011875461e-01 0.0000000000000000e+00  -3.1691851856430926e-02 -2.2168640778041498e-01 0.0000000000000000e+00  2.9477966095543866e-02 -2.2254970165935284e-01 0.0000000000000000e+00  -1.2996011145118519e-01 -1.8244737141992967e-01 0.0000000000000000e+00  1.8209569349786631e-01 -1.2995073938770069e-01 0.0000000000000000e+00  1.9935739907229991e-01 -1.0168728887594233e-01 0.0000000000000000e+00  2.1195794168017756e-01 -7.1447037927286669e-02 0.0000000000000000e+00  1.8571503676918202e-01 -1.2482895858231496e-01 0.0000000000000000e+00  1.8944233893661552e-01 1.1902240685170268e-01 0.0000000000000000e+00  2.0743345192499535e-01 8.4203446676989438e-02 0.0000000000000000e+00  7.7156776101373295e-02 2.0995652712966587e-01 0.0000000000000000e+00  1.3564886331167139e-01 1.7776266484231151e-01 0.0000000000000000e+00  1.3292819611452006e-01 -1.7978101347383602e-01 0.0000000000000000e+00  7.8284909292566832e-02 -2.0955538386574279e-01 0.0000000000000000e+00  1.0411569773870666e-01 -1.9796714803322016e-01 0.0000000000000000e+00  2.2190698744602392e-02 -2.2265498696359617e-01 0.0000000000000000e+00  6.6107198646715905e-03 2.2365739203280061e-01 0.0000000000000000e+00  8.8553663846103012e-02 2.0541979962132423e-01 0.0000000000000000e+00  -2.2264873738666124e-01 -2.3786580620581865e-02 0.0000000000000000e+00  -1.9477800582616608e-01 1.1042091351385909e-01 0.0000000000000000e+00  -1.9556280294082631e-01 -1.0898123526907809e-01 0.0000000000000000e+00  -2.2302592247664116e-01 1.9456536623280542e-02 0.0000000000000000e+00  -1.7635484644106802e-02 -2.2312594499351768e-01 0.0000000000000000e+00  2.1355392486958871e-01 6.8629381872913578e-02 0.0000000000000000e+00  1.7645207121279238e-01 1.3792942834364680e-01 0.0000000000000000e+00  7.4629220718420347e-02 2.1127296481688784e-01 0.0000000000000000e+00  1.4408019951566228e-01 1.7143467813107130e-01 0.0000000000000000e+00  2.2036457448697336e-01 3.9778127203053841e-02 0.0000000000000000e+00  1.9966385513708268e-01 1.0110013775446960e-01 0.0000000000000000e+00  -6.1326358581978383e-03 2.2838288624032529e-01 0.0000000000000000e+00  -2.6416594609491367e-01 2.6259582119377074e-02 0.0000000000000000e+00  1.7971702489003130e-01 -1.4099126505483456e-01 0.0000000000000000e+00  1.5722185308152625e-01 1.5892947272423447e-01 0.0000000000000000e+00  1.6311579596130088e-01 -1.5318126956115277e-01 0.0000000000000000e+00  1.7910118660382393e-01 1.3404633446605771e-01 0.0000000000000000e+00  2.1080722826007961e-01 7.5041698293286482e-02 0.0000000000000000e+00  1.5267101499805286e-01 1.6360081410541386e-01 0.0000000000000000e+00  2.1604636699766575e-01 5.7845969237222961e-02 0.0000000000000000e+00  -6.5600290277384760e-02 2.1419830476982868e-01 0.0000000000000000e+00  -3.1997865885589706e-02 2.2156510824109665e-01 0.0000000000000000e+00  -2.1505096760388839e-01 -6.2737894175805609e-02 0.0000000000000000e+00  -2.0373180900034016e-01 -9.2841807403282697e-02 0.0000000000000000e+00  -6.3126397275664992e-02 -2.1492393414961644e-01 0.0000000000000000e+00  -1.8240937272249363e-01 -1.3000708248905932e-01 0.0000000000000000e+00  -1.5934664334533338e-01 -1.5726333849523663e-01 0.0000000000000000e+00  2.2073596466014825e-01 -4.2805526883430901e-02 0.0000000000000000e+00  -2.2285046055472785e-01 2.6955540618254153e-02 0.0000000000000000e+00  -7.1666306218192838e-02 -2.1203871814029951e-01 0.0000000000000000e+00  -1.7526848956266186e-01 -1.3931355367465903e-01 0.0000000000000000e+00  -1.8439152284026505e-01 1.2693334994197225e-01 0.0000000000000000e+00  -9.1381121446803770e-02 2.0431847943008996e-01 0.0000000000000000e+00  2.2543546202552436e-01 4.7948005145999131e-02 0.0000000000000000e+00  -1.7980738121842121e-01 1.3349882501182431e-01 0.0000000000000000e+00  -2.1213647013990355e-01 7.1448157041889546e-02 0.0000000000000000e+00  -1.1461596098274610e-01 1.9229979063817182e-01 0.0000000000000000e+00  -6.1247108571494341e-03 2.2369102866631022e-01 0.0000000000000000e+00  4.9566427294408140e-02 2.1826681042047774e-01 0.0000000000000000e+00  -2.5828959126353609e-03 -2.2375873156356180e-01 0.0000000000000000e+00  -1.1364778425016123e-01 -1.9285738391206866e-01 0.0000000000000000e+00  5.7461840811522676e-02 -2.1629685274094271e-01 0.0000000000000000e+00  2.1606407424638208e-01 -5.8572358078844117e-02 0.0000000000000000e+00  1.4292431568832137e-01 -1.7230075884170643e-01 0.00000