<?xml version="1.0"?>
<VTKFile type="UnstructuredGrid"  version="0.1"  >
<UnstructuredGrid>
<Piece  NumberOfPoints="2549" NumberOfCells="4928">
<Points>
<DataArray  type="Float64"  NumberOfComponents="3"  format="ascii">1.472048563464113 0.03275017633872893 0  1.467566951039106 0.05577278130275784 0  1.443784240974115 0.06476106259206252 0  1.431463593663947 0.08087416782349582 0  1.426198377913818 0.09292960300610419 0  1.421565923199456 0.1164090519565248 0  1.401875667178485 0.1208519682201372 0  1.370467013386172 0.1255141313763416 0  1.39234255929955 0.1534031918676487 0  1.412635445351124 0.3596556003412359 0  1.383747337550984 0.1761595477206727 0  1.376270013932423 0.214890342196215 0  1.338326814123688 0.2321336723850538 0  1.335554769552484 0.2595773469887553 0  1.332181328987288 0.2909090332488011 0  1.313709665086112 0.3233839312107532 0  1.304781977590613 0.3575233962144381 0  1.285673359889233 0.3684745641249056 0  1.271796218130758 0.4201579111092752 0  1.259408104120724 0.4599193898584925 0  1.240123298612477 0.5044976688459996 0  1.221981173481383 0.5498431348810151 0  1.200098836203384 0.5973740028290567 0  1.176204886092784 0.6485487975455383 0  1.151570812798027 0.7039865246002168 0  1.113168992627849 0.7386885078703646 0  1.085226185108959 0.7935365921105321 0  1.052026435640158 0.8497801703319522 0  1.01172542664914 0.9034079016693686 0  0.9690087058988437 0.9590663466282198 0  0.9220523624623943 1.013817537707025 0  0.870103690030525 1.069079892384587 0  0.814504445328932 1.121794498558198 0  0.7556115290572852 1.17142100019283 0  0.6899263942970583 1.222212139671678 0  0.6213064869799699 1.26922456562419 0  0.5474169573982498 1.312643556784535 0  0.4695736887891641 1.352098163775894 0  0.3879005685234481 1.386212725956736 0  0.3024076324012029 1.415432668243453 0  0.214259342263567 1.438106703489198 0  0.1246330686098655 1.453438008862296 0  0.0325499406745538 1.463363980848159 0  -0.05956403007772101 1.465146794504337 0  -0.1518236120235212 1.459874995207235 0  -0.2427486629570773 1.446759855071284 0  -0.3319046140425284 1.4272437790671 0  -0.4183217171707582 1.398888039506273 0  -0.5006353483171708 1.367448442715258 0  -0.5803501845269865 1.329195075100426 0  -0.6553474376415778 1.284059718006167 0  -0.7257550124347382 1.235966616016604 0  -0.7910764196913381 1.183508215448355 0  -0.8520298345387414 1.128364503818537 0  -0.9065223342903649 1.071541379755385 0  -0.9598713223108103 1.010868409095616 0  -1.002319429056727 0.9579808109955789 0  -1.047201566849959 0.9040926345731261 0  -1.086244338912424 0.8423319076695879 0  -1.120286091148635 0.784365417097217 0  -1.149782730883576 0.728416387757076 0  -1.174065787123357 0.6683566042384437 0  -1.204549665552641 0.6269624483722112 0  -1.219518104997136 0.5511020020301158 0  -1.220695235740454 0.5115774578191942 0  -1.26353987281759 0.4994531804495767 0  -1.278433686426327 0.4491307901406759 0  -1.288043523566963 0.4104438314126233 0  -1.295840917460638 0.3721463570303502 0  -1.320911389945501 0.3498329451576956 0  -1.328806669767714 0.3002138207683918 0  -1.309539739593945 0.3260513453527564 0  -1.376239655426981 0.2886936535066679 0  -1.370584195063741 0.1935930840362559 0  -1.368204397304642 0.16869998786463 0  -1.372188631634007 0.1356277117250669 0  -1.385839559098686 0.1185376183598244 0  -1.395410342329506 0.08594473979117018 0  -1.396519414160039 0.1109842757440357 0  -1.379227723547378 0.02439888301117088 0  -1.406262215784344 0.09474723015399333 0  -1.43889738943289 0.1533709006931681 0  -1.471187178817731 0.07634510510782175 0  -1.479458759699163 0.04708710543972715 0  -1.502893805324544 0.01914657045982246 0  -1.485342258484032 -0.007019484526100126 0  -1.468609172862622 -0.03960022434060941 0  -1.291110810552025 -0.4231579402372234 0  -1.392210805012454 -0.04208130011551527 0  -1.590436428168992 0.3328860051021528 0  -1.436943379857057 -0.06385108469407853 0  -1.455550770325037 0.009223343532330038 0  -1.413709304869855 -0.1253557243563313 0  -1.388929034046302 -0.08846538783423856 0  -1.372487581542555 -0.1013292254467671 0  -1.379384728171935 -0.1238484958854315 0  -1.397384488370476 -0.2405238976625657 0  -1.326420325400511 -0.347135292785445 0  -1.359107983561819 -0.2401960117429024 0  -1.356320612485829 -0.2982156903794564 0  -1.321639024374408 -0.3248368987348378 0  -1.32792161544938 -0.3627486737429889 0  -1.326671536351501 -0.4028937085691069 0  -1.346987794553424 -0.4508101259531877 0  -1.236216903085796 -0.4669463784084237 0  -1.206691422306663 -0.5000037601839519 0  -1.251837051551724 -0.6186775107156276 0  -1.198437630161285 -0.6373543139441621 0  -1.188401324741859 -0.7024708868701359 0  -1.161516075942626 -0.765856182322853 0  -1.141576469790448 -0.8297435329537474 0  -1.095989692601954 -0.909313028696322 0  -1.03163340499167 -0.9341435595335594 0  -1.009102168930642 -1.007625756118455 0  -0.9543379645157463 -1.090052136183365 0  -0.8973178134585452 -1.144093905180333 0  -0.8364060813011103 -1.212929592044339 0  -0.7694987930491671 -1.272106377987055 0  -0.6971463341161241 -1.329365854326679 0  -0.6175310915611423 -1.381984308753766 0  -0.5353513734704117 -1.430314625082521 0  -0.4495885594062994 -1.467824765889774 0  -0.3564550457061787 -1.503217053098179 0  -0.2623967049903533 -1.530425904500531 0  -0.1642689574655215 -1.548811966355138 0  -0.06498695306823686 -1.558750762509726 0  0.03520060734210145 -1.55967964052731 0  0.1349789227575746 -1.551640006875229 0  0.2334197975090026 -1.534805173627042 0  0.3292766981382794 -1.50952577935704 0  0.4220248656474026 -1.476767252726506 0  0.5107766997406393 -1.436795064840766 0  0.5947738398503946 -1.390651325079373 0  0.674031502645675 -1.338935185541676 0  0.7466432449817074 -1.283365715748327 0  0.8167021018717864 -1.222468830418192 0  0.8764539452251321 -1.165732734161735 0  0.9335460513102054 -1.104347686496132 0  0.9873555383783253 -1.039061395294927 0  1.034143975911855 -0.975125530668661 0  1.076493095017545 -0.9109116663328488 0  1.114760303573021 -0.8484856102967431 0  1.147558778190581 -0.7860437538238385 0  1.175930056303225 -0.7250715666999867 0  1.207475230060769 -0.6795462357603103 0  1.230568025931615 -0.620105040236804 0  1.253624494715595 -0.5640939453881674 0  1.27001865257943 -0.5099056261342053 0  1.285772800078312 -0.4619386748189881 0  1.289382442111213 -0.4067504887160147 0  1.313867079652327 -0.3792889146552035 0  1.313151112259878 -0.2989127898257987 0  1.295373677005409 -0.3166320106398443 0  1.346239503191152 -0.2722882553246493 0  1.36489928153398 -0.2239702526552328 0  1.359296528241839 -0.1927211566489522 0  1.364643835959046 -0.1632008313087556 0  1.374234160680262 -0.1349551375003251 0  1.372242731991422 -0.100658604265603 0  1.829427426308471 0.4325632722641041 0  1.407613811969032 -0.07946615866502649 0  1.401687134940594 -0.08696231106658289 0  1.40980377397698 -0.05606643729712521 0  1.429005175483785 -0.04256605500220149 0  1.428563424524426 -0.02256200897748329 0  1.438271362815609 -0.011286841162113 0  1.445142602955162 0.004116511587690629 0  1.464924674504674 0.01237122444884892 0  -0.09701111525364763 0.8856829364647099 0  0.6902146121855957 -0.504697919750144 0  -0.8051667605273101 -0.3870271159743044 0  -0.07405388527982484 -0.9453199069281413 0  0.6507990765967899 0.4978618396763803 0  1.089089402300209 0.1171601017132022 0  -0.7944935583970618 0.4038601140133679 0  -1.156008016615982 0.02762010228837999 0  1.099551865296733 -0.06209198559421431 0  -1.037750775225488 -0.1768412054558573 0  -0.7329879309207967 0.01328803582565106 0  -0.4385671726593721 -0.140687469988111 0  -1.027876149326172 0.2083917347970107 0  0.3823440651469591 -0.8318006906148572 0  0.08378613820971739 -0.3049730095520121 0  0.3062960604120147 0.7700415204728775 0  0.2186371069301473 0.1849475690001499 0  0.5618191145404089 0.01777742862782286 0  -0.4802862597621635 -0.6983865150244088 0  -0.503268790888546 0.6913147356770269 0  -0.2399358465417775 0.306575239795051 0  0.9178161690582858 -0.2108400391746577 0  0.8961855595257304 0.2476885337991966 0  0.3527501268389224 -0.2146251622857934 0  -0.01110113726675679 0.2325641862106422 0  -0.4917009237214912 0.2094632852840267 0  -0.1879905695031222 -0.2805733388842447 0  0.8619975979593797 0.02333279728952086 0  1.248701754315201 0.03330431579287897 0  0.8043454986094405 -0.3384499643869419 0  0.7186833649253067 -0.1060518908510914 0  0.5854408986791108 -0.2071001478839773 0  0.4408282086747304 -0.07644663045142909 0  0.5140311572567966 -0.3704668562817253 0  0.8638611970355132 -0.08148170411280495 0  0.7141603458645729 0.02041251168513782 0  -0.8593087956446972 0.1215018328562598 0  -1.072772616382758 0.09946276050287575 0  -0.9487461806527462 0.0216400235673669 0  -0.8661241969569038 -0.09030774557152006 0  -1.075967142862125 -0.0533875694098293 0  -1.239346547394051 -0.08203933305375583 0  -1.312714667227227 0.002931258497138071 0  -1.309368654989152 0.05813332945178848 0  -1.230085519849227 0.1389566996229968 0  -0.1288423089054997 -0.6131020250163337 0  -0.3009425509617115 -0.5052925809151702 0  -0.2900473587446388 -0.8441895032721077 0  -0.3088106366341611 -0.2033466832152651 0  -0.4512844202698856 -0.4036681515370171 0  -1.229577879533568 -0.2001346531308423 0  -1.211980087085512 0.2438743071900235 0  0.3834168846585685 -0.502840697821924 0  0.216119564531865 -0.2466215060134331 0  0.243939039297225 -0.5616949264130094 0  -0.9115804045957655 0.2906956910832802 0  -0.7274721039751686 0.1898252520321916 0  1.269763187932095 -0.07670201655931912 0  1.206773900841353 -0.1748108374941421 0  1.186808973659838 0.2282968295197223 0  1.26222213720625 0.1419072763557319 0  -0.9114954407155195 -0.6543622559876768 0  -1.045165974352322 -0.4475099461430778 0  -1.021074091649555 0.4744407817438452 0  -0.8863817058096051 0.6622161880010056 0  0.9423902787518045 -0.6031389071754135 0  0.7772574379375556 -0.8222216911112192 0  0.7320948026572031 0.7939192765570269 0  0.8998849813481054 0.608135160369761 0  0.04677
[...]
<PointData  Vectors="f_45"> 
<DataArray  type="Float64"  Name="f_45"  NumberOfComponents="3" format="ascii">3.0602661936728565e-01 -2.6063685871345069e-02 0.0000000000000000e+00  -2.2893649462625679e-02 1.3484060923414687e-01 0.0000000000000000e+00  -1.2376877315361821e-01 1.8138973011531215e-01 0.0000000000000000e+00  1.3166965555876245e-01 2.1697800587505006e-01 0.0000000000000000e+00  2.4844922196189334e-01 1.0751655390706351e-01 0.0000000000000000e+00  2.8739160952694388e-02 7.2779314840505926e-02 0.0000000000000000e+00  -2.9027569511936785e-01 1.4453118477364385e-01 0.0000000000000000e+00  -9.5679741440686070e-02 -1.4111014173459727e-01 0.0000000000000000e+00  2.0758065464062647e-01 -7.1387258807164705e-02 0.0000000000000000e+00  2.1548458332228340e-01 -5.0835877557715424e-02 0.0000000000000000e+00  2.2905626147251412e-01 -5.7217591617094193e-02 0.0000000000000000e+00  -1.3783546021552092e-03 1.7183496591102035e-01 0.0000000000000000e+00  -6.3317449548660032e-02 1.2689739931089219e-01 0.0000000000000000e+00  3.1074030859671237e-01 7.9896875673409276e-04 0.0000000000000000e+00  1.2071398929784477e-01 1.4614755796433809e-01 0.0000000000000000e+00  1.8854598268254164e-01 1.5751432021456263e-01 0.0000000000000000e+00  4.3805268027872754e-02 1.3554670545302711e-01 0.0000000000000000e+00  6.8019451311644552e-02 1.4713125297164648e-01 0.0000000000000000e+00  2.3097920877278502e-01 1.0306422634269509e-01 0.0000000000000000e+00  1.5519972853767250e-01 1.5272425164960360e-01 0.0000000000000000e+00  1.5812027304781978e-01 1.5987964814932021e-01 0.0000000000000000e+00  1.5740108362282379e-01 1.5927810435191719e-01 0.0000000000000000e+00  1.3331002057870420e-01 1.7640981761658300e-01 0.0000000000000000e+00  1.7534050267022436e-01 1.5921290991614495e-01 0.0000000000000000e+00  4.9286551516204175e-02 1.9756059680346599e-01 0.0000000000000000e+00  3.9607226781048596e-02 2.0608208653599702e-01 0.0000000000000000e+00  1.5014530104333812e-01 1.7898811478129684e-01 0.0000000000000000e+00  7.5176231069605276e-02 2.0916899537847192e-01 0.0000000000000000e+00  5.9262635402699826e-02 2.1625641312047561e-01 0.0000000000000000e+00  4.8178890257543475e-02 2.1803029265678944e-01 0.0000000000000000e+00  2.3253406689480755e-02 2.2272244925968634e-01 0.0000000000000000e+00  2.0887279013279449e-03 2.2362988204675305e-01 0.0000000000000000e+00  -2.6026775145670953e-02 2.2217188537912091e-01 0.0000000000000000e+00  -4.7493482778505902e-02 2.1865108578912840e-01 0.0000000000000000e+00  -6.7057286590373535e-02 2.1345010398462352e-01 0.0000000000000000e+00  -9.5342920371724510e-02 2.0233151075884639e-01 0.0000000000000000e+00  -1.2073371518890519e-01 1.8858145874369334e-01 0.0000000000000000e+00  -1.4497508740240908e-01 1.7026965905170438e-01 0.0000000000000000e+00  -1.6768534884811492e-01 1.4834441396824202e-01 0.0000000000000000e+00  -1.8646912822416700e-01 1.2388148278384052e-01 0.0000000000000000e+00  -2.0456155664023251e-01 9.0297269675652506e-02 0.0000000000000000e+00  -2.1551496497724981e-01 6.1610610199221982e-02 0.0000000000000000e+00  -2.2152083157742150e-01 2.9021267880528671e-02 0.0000000000000000e+00  -2.2411345384449158e-01 -8.6567509006560718e-03 0.0000000000000000e+00  -2.1879571836195630e-01 -4.4893410433720159e-02 0.0000000000000000e+00  -2.1066163976165514e-01 -7.7627945491092823e-02 0.0000000000000000e+00  -1.9152882982576261e-01 -1.1435505078213827e-01 0.0000000000000000e+00  -1.7316198145966005e-01 -1.4255202950773413e-01 0.0000000000000000e+00  -1.5632977966835812e-01 -1.6000736607866806e-01 0.0000000000000000e+00  -1.2117734918223326e-01 -1.8798354889480881e-01 0.0000000000000000e+00  -9.2957783664573371e-02 -2.0398926082253901e-01 0.0000000000000000e+00  -6.5255990554692195e-02 -2.1359527340216811e-01 0.0000000000000000e+00  -3.5167449220325844e-02 -2.2140031238872365e-01 0.0000000000000000e+00  -6.0184461632628436e-03 -2.2325262816940350e-01 0.0000000000000000e+00  1.9478311661176567e-02 -2.2327156434362810e-01 0.0000000000000000e+00  4.2130651778244939e-02 -2.1919016721194923e-01 0.0000000000000000e+00  3.9566721441943072e-02 -2.2089865506569864e-01 0.0000000000000000e+00  6.5309620390371012e-02 -2.1209694140523677e-01 0.0000000000000000e+00  1.1023106706122079e-01 -1.9585301897686480e-01 0.0000000000000000e+00  1.0845675961632531e-01 -1.9650121700206191e-01 0.0000000000000000e+00  1.6170973252017473e-01 -1.5728669491807803e-01 0.0000000000000000e+00  1.0729447593794521e-01 -1.9306004692978729e-01 0.0000000000000000e+00  1.1807283515153220e-01 -1.5722870222127039e-01 0.0000000000000000e+00  2.8840742617807674e-01 -2.8831024137255100e-02 0.0000000000000000e+00  -5.2561393543053871e-02 -6.0312530132575724e-02 0.0000000000000000e+00  -3.4327880891372176e-02 -1.3361545838789773e-01 0.0000000000000000e+00  2.4950150586357939e-01 -1.1820624898346614e-01 0.0000000000000000e+00  2.2297994971576687e-01 -7.0996220221744941e-02 0.0000000000000000e+00  6.6799773295791398e-02 -1.7506150239458276e-01 0.0000000000000000e+00  9.2347574387015546e-02 -1.3120932313267281e-01 0.0000000000000000e+00  2.3302897305840264e-01 -9.8634096235122232e-02 0.0000000000000000e+00  -1.5107888290819863e-01 -2.5818512133624727e-01 0.0000000000000000e+00  6.1535749503270558e-02 -6.7407478024328712e-02 0.0000000000000000e+00  2.8427290040567343e-01 7.0678593346895940e-02 0.0000000000000000e+00  2.2731577464171998e-01 6.9026404048231011e-03 0.0000000000000000e+00  1.3676426750780851e-01 -1.4112956743108418e-01 0.0000000000000000e+00  1.0434964476207947e-01 -1.9525158029580886e-01 0.0000000000000000e+00  2.2862524480724530e-01 -5.1135060393894899e-02 0.0000000000000000e+00  2.1462466968287028e-01 7.3252139423304732e-02 0.0000000000000000e+00  1.9304406379402922e-01 1.0091794854200145e-01 0.0000000000000000e+00  1.3394320705689147e-01 2.2698460383263927e-01 0.0000000000000000e+00  1.2736205036199724e-01 -2.4582798351170366e-03 0.0000000000000000e+00  1.8723896881937202e-01 -1.9379287129992523e-01 0.0000000000000000e+00  1.1037497005204797e-01 -2.0624161912633390e-01 0.0000000000000000e+00  3.2358255603459354e-02 -3.5449089914286476e-02 0.0000000000000000e+00  1.2225698724435619e-01 2.4776845978036260e-01 0.0000000000000000e+00  1.2702497188424425e-01 1.8783821179735088e-01 0.0000000000000000e+00  1.8138525774900699e-01 1.2890462577429201e-01 0.0000000000000000e+00  1.6020955613335386e-01 1.4516536937060084e-01 0.0000000000000000e+00  1.3245567214830550e-01 1.8341113631066522e-01 0.0000000000000000e+00  1.8402510112685966e-01 1.2688692047172367e-01 0.0000000000000000e+00  1.9647835018785023e-01 1.4773047543918522e-01 0.0000000000000000e+00  1.6610577962866985e-01 3.0578904614751445e-02 0.0000000000000000e+00  -2.8253986564510752e-03 -1.3838629922004445e-01 0.0000000000000000e+00  4.2708679596094028e-02 1.2998608853671015e-01 0.0000000000000000e+00  2.5408815812023450e-01 -1.6628005006126700e-01 0.0000000000000000e+00  1.3242798727930158e-01 9.5860871395251512e-02 0.0000000000000000e+00  1.0528815159121103e-01 2.1731691550737520e-01 0.0000000000000000e+00  2.4927266746954060e-01 4.1609020967137818e-02 0.0000000000000000e+00  7.7447056831925903e-02 1.2454202795349190e-01 0.0000000000000000e+00  2.1865463706313492e-02 9.8162581258140258e-02 0.0000000000000000e+00  2.5607866435497378e-01 -4.0510209711774679e-02 0.0000000000000000e+00  2.5393987209802293e-01 -1.0068189036728879e-01 0.0000000000000000e+00  -1.1437470460775134e-01 -6.1935874750803512e-02 0.0000000000000000e+00  -2.0906332627854329e-01 1.9547526702794291e-01 0.0000000000000000e+00  2.1468073792278167e-01 -7.1994743764335151e-02 0.0000000000000000e+00  2.1290841713230518e-02 -8.7159401203687675e-02 0.0000000000000000e+00  -1.9650109782351398e-02 1.4455045193299793e-01 0.0000000000000000e+00  2.4402536800245966e-01 9.8487612818682471e-02 0.0000000000000000e+00  1.4211036046110975e-01 1.5179239312188791e-01 0.0000000000000000e+00  2.0373372933185227e-01 1.6051125168089139e-01 0.0000000000000000e+00  -6.6622852492634541e-02 1.9108218172623204e-01 0.0000000000000000e+00  -6.4066493743807629e-03 1.1629758526939399e-01 0.0000000000000000e+00  1.9359641105134676e-01 1.6756482713597215e-01 0.0000000000000000e+00  8.4694468172952300e-03 2.2471301826121273e-01 0.0000000000000000e+00  9.3549216077421348e-03 2.2221240018384353e-01 0.0000000000000000e+00  8.9630640784745651e-03 2.2202414654224467e-01 0.0000000000000000e+00  -4.3947395623417679e-02 2.2130937035115358e-01 0.0000000000000000e+00  -6.9168588513753584e-02 2.1136846234568846e-01 0.0000000000000000e+00  -9.7400615525210260e-02 2.0293220554934319e-01 0.0000000000000000e+00  -1.3021582470916843e-01 1.8029757775721120e-01 0.0000000000000000e+00  -1.6257218128506282e-01 1.5512519178162670e-01 0.0000000000000000e+00  -1.7639863506648287e-01 1.3715742428786171e-01 0.0000000000000000e+00  -2.0033024407862968e-01 1.0017145444105169e-01 0.0000000000000000e+00  -2.1500674397053765e-01 6.2751069285610805e-02 0.0000000000000000e+00  -2.2246553133146832e-01 2.4664255885756031e-02 0.0000000000000000e+00  -2.2335497094040785e-01 -1.6081872730297719e-02 0.0000000000000000e+00  -2.1698725304514993e-01 -5.5286338121311437e-02 0.0000000000000000e+00  -2.0357113323198761e-01 -9.3054167551008177e-02 0.0000000000000000e+00  -1.8506852813972532e-01 -1.2609096401634853e-01 0.0000000000000000e+00  -1.6182618452559761e-01 -1.5458715012163571e-01 0.0000000000000000e+00  -1.3435237202461828e-01 -1.7907274110191362e-01 0.0000000000000000e+00  -1.0535118055292091e-01 -1.9747909334144867e-01 0.0000000000000000e+00  -7.4403097251206113e-02 -2.1108638348407424e-01 0.0000000000000000e+00  -4.3053275549028096e-02 -2.1950079812198064e-01 0.0000000000000000e+00  -2.1848510591647996e-02 -2.2275064093949043e-01 0.0000000000000000e+00  1.4872487857961860e-03 -2.2361311820568250e-01 0.0000000000000000e+00  3.0009762033517164e-02 -2.2178083419288303e-01 0.0000000000000000e+00  5.5240950089417359e-02 -2.1678350860781639e-01 0.0000000000000000e+00  7.9192759685864367e-02 -2.0917020508361375e-01 0.0000000000000000e+00  9.4733591431669470e-02 -2.0268051229424464e-01 0.0000000000000000e+00  1.1017674540936538e-01 -1.9462696812330801e-01 0.0000000000000000e+00  1.4922582698296716e-01 -1.6915625711260679e-01 0.0000000000000000e+00  1.0429237292556795e-01 -1.9519575959358657e-01 0.0000000000000000e+00  1.1714879526448904e-01 -1.8138339220528352e-01 0.0000000000000000e+00  1.7114322482373218e-01 -1.5100700855749605e-01 0.0000000000000000e+00  1.7145217963439963e-01 -1.3810142430327776e-01 0.0000000000000000e+00  1.7515685145720672e-01 -1.4385127264250158e-01 0.0000000000000000e+00  2.3085953871715251e-01 -4.9552518920998379e-02 0.0000000000000000e+00  1.1512135641133794e-01 -1.2957195397065699e-01 0.0000000000000000e+00  1.5305380583277167e-01 -7.4594147501091015e-02 0.0000000000000000e+00  2.0687644757469245e-01 -1.6308002069019854e-02 0.0000000000000000e+00  -8.3203876505263522e-02 -2.5660614683961624e-01 0.0000000000000000e+00  5.9060654751282415e-02 -2.0389775279812641e-01 0.0000000000000000e+00  2.1390628275631046e-01 -4.3282800387223090e-02 0.0000000000000000e+00  2.1724937577015790e-01 5.7901430849849590e-02 0.0000000000000000e+00  1.7320108892079780e-01 -1.8122496778953781e-01 0.0000000000000000e+00  2.5065489746597452e-01 2.3648177755963319e-02 0.0000000000000000e+00  4.1383939614839181e-02 -2.0801404199919130e-01 0.0000000000000000e+00  3.5913245937653555e-02 -2.2394157807926024e-01 0.0000000000000000e+00  4.5140431142209128e-02 -2.1800818099669042e-01 0.0000000000000000e+00  2.1854942363478855e-01 -1.0957706991870939e-01 0.0000000000000000e+00  4.9138930155403160e-02 -1.7503760621994385e-01 0.0000000000000000e+00  3.8607326364168949e-02 -1.0432591802837340e-01 0.0000000000000000e+00  1.7844051186958579e-01 -5.2144953506159920e-02 0.0000000000000000e+00  1.1216014571741793e-01 -2.3871489173198923e-01 0.0000000000000000e+00  -4.3554456968437336e-02 -1.3976260742104152e-01 0.0000000000000000e+00  -5.1824925640538207e-02 -1.8227850635734694e-01 0.0000000000000000e+00  -2.1819885968071984e-01 -5.0138043933235607e-02 0.0000000000000000e+00  7.7714478961553424e-02 -2.0986982668453882e-01 0.0000000000000000e+00  1.2139063435364351e-01 1.8794825865369377e-01 0.0000000000000000e+00  -2.2157388446962845e-01 3.1965702556928086e-02 0.0000000000000000e+00  8.7704871951214014e-02 2.0593776222877513e-01 0.0000000000000000e+00  2.1799188451978274e-01 4.9964144471913302e-02 0.0000000000000000e+00  1.5227580623561565e-01 -1.6397682844735853e-01 0.0000000000000000e+00  2.2327733194455343e-01 1.2544566755729143e-02 0.0000000000000000e+00  2.1893269131710102e-01 -4.5657946380531840e-02 0.0000000000000000e+00  1.9758532719845301e-01 1.0482609713243374e-01 0.0000000000000000e+00  2.2165924039589160e-01 3.0526537160346940e-02 0.0000000000000000e+00  1.4726180498309718e-01 1.6896778531603218e-01 0.0000000000000000e+00  2.0966250757411808e-01 -7.7941012864931408e-02 0.0000000000000000e+00  -1.2881364237541512e-01 -1.8306036029572872e-01 0.0000000000000000e+00  -1.8586580171150988e-01 -1.2651821022078377e-01 0.0000000000000000e+00  -1.4057406518309368e-01 1.7424934362483904e-01 0.0000000000000000e+00  1.4792216269593289e-01 1.6938787973831923e-01 0.0000000000000000e+00  2.2318334931434822e-01 -1.8170189564098348e-02 0.0000000000000000e+00  -7.9657220891436897e-02 2.0918872504571978e-01 0.0000000000000000e+00  -3.7251270903590442e-02 -2.2076480930097081e-01 0.0000000000000000e+00  4.0185548103106310e-02 -2.2217155449290996e-01 0.0000000000000000e+00  1.9672291678875906e-01 -1.0645428944372690e-01 0.0000000000000000e+00  1.9640443350136041e-01 1.0708287395065241e-01 0.0000000000000000e+00  9.2283795829736323e-02 -2.0425359368521215e-01 0.0000000000000000e+00  -1.7987891875569118e-01 1.3911672070002323e-01 0.0000000000000000e+00  1.9540070883884375e-01 -1.0961851495512311e-01 0.0000000000000000e+00  -1.0644359997982780e-01 1.9785844412213799e-01 0.0000000000000000e+00  2.2363258286928056e-01 -2.1668395333876655e-03 0.0000000000000000e+00  2.2358903047759157e-01 -4.4351011872613639e-03 0.0000000000000000e+00  1.5577169375139951e-01 -1.6061564167058026e-01 0.0000000000000000e+00  2.0903954327353280e-01 -7.9809105219671994e-02 0.0000000000000000e+00  1.6605975494734321e-01 -1.5022860175529029e-01 0.0000000000000000e+00  1.9761008676899577e-01 -1.0573368669479662e-01 0.0000000000000000e+00  7.1275409995390893e-02 -2.1228244937354188e-01 0.0000000000000000e+00  2.1676607833712483e-01 -5.5064605776124584e-02 0.0000000000000000e+00  2.2353446511224662e-01 -8.6152682907727918e-03 0.0000000000000000e+00  2.2102794273065066e-01 -3.4441200200129356e-02 0.0000000000000000e+00  2.2239858857612660e-01 -2.3717282781050803e-02 0.0000000000000000e+00  2.2302017647959482e-01 1.6699077833942751e-02 0.0000000000000000e+00  2.1001765226653935e-01 7.7016307282461269e-02 0.0000000000000000e+00  2.1813273182791360e-01 4.9392944931433716e-02 0.0000000000000000e+00  2.1718712809005328e-01 5.2864355425847435e-02 0.0000000000000000e+00  2.1777736862740932e-01 5.1750686764440536e-02 0.0000000000000000e+00  2.2273537745830041e-01 2.4613497333086903e-02 0.0000000000000000e+00  2.2037202999761549e-01 -3.8018288284253070e-02 0.0000000000000000e+00  -2.0824427243118643e-01 8.2321883903018311e-02 0.0000000000000000e+00  -1.1793186821897284e-01 1.9039404609553673e-01 0.0000000000000000e+00  -1.7443999919799882e-01 1.4027798004662070e-01 0.0000000000000000e+00  4.7223133812378741e-02 2.1953345225936916e-01 0.0000000000000000e+00  3.5592746970425381e-03 2.2391210445864859e-01 0.0000000000000000e+00  1.9910015647619161e-01 1.0163875175773009e-01 0.0000000000000000e+00  2.0173611394048471e-01 -9.6575496803625580e-02 0.0000000000000000e+00  -5.0615675145587923e-02 -2.1808925399940859e-01 0.0000000000000000e+00  -2.4767273132003251e-02 -2.2291833558716875e-01 0.0000000000000000e+00  -1.4498537865796479e-01 -1.7064181494331274e-01 0.0000000000000000e+00  1.9155185265341251e-01 -1.1558146361926157e-01 0.0000000000000000e+00  2.1089224885597213e-01 -7.4946603740008888e-02 0.0000000000000000e+00  2.0232903836429922e-01 -9.6031269198832550e-02 0.0000000000000000e+00  1.9950864745083446e-01 -1.0092882378771882e-01 0.0000000000000000e+00  1.9090881033403884e-01 1.1668710719350465e-01 0.0000000000000000e+00  2.0855235626914409e-01 8.1194504747433782e-02 0.0000000000000000e+00  7.2814641725576598e-02 2.1150717389564169e-01 0.0000000000000000e+00  1.3206162492052320e-01 1.8047268342185030e-01 0.0000000000000000e+00  1.4200783531998534e-01 -1.7274717557860800e-01 0.0000000000000000e+00  8.8443024339933160e-02 -2.0548434259980741e-01 0.0000000000000000e+00  1.1261411774534671e-01 -1.9329500616324802e-01 0.0000000000000000e+00  2.3925876164371033e-02 -2.2249096717282710e-01 0.0000000000000000e+00  1.3451635299435390e-02 2.2335934296721663e-01 0.0000000000000000e+00  9.6906023434416538e-02 2.0162712173117447e-01 0.0000000000000000e+00  -2.2262212460693620e-01 -2.4002965635670552e-02 0.0000000000000000e+00  -1.9529830308819482e-01 1.0949138711593509e-01 0.0000000000000000e+00  -1.9432456815492261e-01 -1.1119778673615703e-01 0.0000000000000000e+00  -2.2303380822952928e-01 1.9477595949517618e-02 0.0000000000000000e+00  -2.4522248990194090e-02 -2.2246670350945214e-01 0.0000000000000000e+00  2.2060344611338029e-01 4.0912550473526460e-02 0.0000000000000000e+00  1.8645720425402482e-01 1.2411339888038754e-01 0.0000000000000000e+00  9.1221893640622095e-02 2.0470205893808782e-01 0.0000000000000000e+00  1.1774893377324476e-01 1.9042518841755898e-01 0.0000000000000000e+00  2.0801249329102017e-01 8.2870332563025090e-02 0.0000000000000000e+00  1.8591721380316018e-01 1.2454764220920332e-01 0.0000000000000000e+00  2.9998012821891552e-02 2.2506363173608288e-01 0.0000000000000000e+00  -1.7340159606168912e-01 1.4463590318242886e-01 0.0000000000000000e+00  9.2663132496020095e-02 -2.0920029561484926e-01 0.0000000000000000e+00  1.5509120342237459e-01 1.6103835626320048e-01 0.0000000000000000e+00  1.6915755597884971e-01 -1.4650715198498312e-01 0.0000000000000000e+00  1.7106970859891407e-01 1.4413425544856659e-01 0.0000000000000000e+00  2.1464955785840908e-01 6.3236402974196429e-02 0.0000000000000000e+00  1.6007768027939673e-01 1.5636750991105941e-01 0.0000000000000000e+00  2.1785451132210473e-01 5.0611874915489671e-02 0.0000000000000000e+00  -4.8752582700339706e-02 2.1870239054178681e-01 0.0000000000000000e+00  -2.2134297929075987e-02 2.2278294358432565e-01 0.0000000000000000e+00  -2.1763067108897050e-01 -5.2778063297875814e-02 0.0000000000000000e+00  -2.0516476358677752e-01 -8.9584055241302696e-02 0.0000000000000000e+00  -3.9219122123469938e-02 -2.2065879970130212e-01 0.0000000000000000e+00  -1.7594782087015887e-01 -1.3877263174801535e-01 0.0000000000000000e+00  -1.5319902510687974e-01 -1.6330433909971048e-01 0.0000000000000000e+00  2.0675704372117903e-01 -8.8899827616881713e-02 0.0000000000000000e+00  -2.1871103448416027e-01 5.0207369869035817e-02 0.0000000000000000e+00  -7.1818067096060326e-02 -2.1199233574755633e-01 0.0000000000000000e+00  -1.7540277442543439e-01 -1.3914390115974304e-01 0.0000000000000000e+00  -1.8315534360800198e-01 1.2872575012290818e-01 0.0000000000000000e+00  -8.7227265864326692e-02 2.0613407064981151e-01 0.0000000000000000e+00  7.0053279826068737e-02 2.1449833960939590e-01 0.0000000000000000e+00  -1.7162024160698980e-01 1.4395423232122379e-01 0.0000000000000000e+00  -2.1141679832155724e-01 7.3606916544686707e-02 0.0000000000000000e+00  -1.1661063973492110e-01 1.9109813593941041e-01 0.0000000000000000e+00  -1.0297721292470009e-02 2.2355450291094869e-01 0.0000000000000000e+00  3.3193129572544812e-02 2.2132612565542203e-01 0.0000000000000000e+00  6.0952382873247285e-03 -2.2370025373682959e-01 0.0000000000000000e+00  -1.0889788607709450e-01 -1.9559247576053929e-01 0.0000000000000000e+00  7.6263566549656492e-02 -2.1043449525834645e-01 0.0000000000000000e+00  2.2318575722346984e-01 -1.7536541494681472e-02 0.0000000000000000e+00  1.6548853416507786e-01 -1.5081991188927341e-01 0.000