<?xml version="1.0"?>
<VTKFile type="UnstructuredGrid"  version="0.1"  >
<UnstructuredGrid>
<Piece  NumberOfPoints="2549" NumberOfCells="4928">
<Points>
<DataArray  type="Float64"  NumberOfComponents="3"  format="ascii">1.474982489929837 0.02405063287832745 0  1.47120687628869 0.0471615594034779 0  1.447807799772099 0.05652176779452414 0  1.435839645074158 0.07240265414594754 0  1.431031284005287 0.08360537881002 0  1.430636577865288 0.1065508606072167 0  1.413065887206935 0.1137763240410725 0  1.399955427486386 0.1056771447394037 0  1.388086584508167 0.1506314825662887 0  1.519407452882165 0.6659333481436714 0  1.386972772270527 0.1744632288998534 0  1.380951321654805 0.2155693244172767 0  1.346254488860528 0.2320884162733434 0  1.33980323160602 0.2596487421516592 0  1.336672635071368 0.2905212417499488 0  1.318407046202527 0.3230782798075839 0  1.31032340093855 0.3574592459965628 0  1.290470529595585 0.3683231676398135 0  1.276658949893485 0.4201194945564679 0  1.264151881546161 0.4604534955624751 0  1.244067961398385 0.5048257275199538 0  1.225755115176608 0.5504623306397499 0  1.202803289450459 0.5979268725519922 0  1.179939397071925 0.6493653914673847 0  1.155215705527726 0.7069441226646255 0  1.112641761326473 0.737094367218334 0  1.086340999053392 0.7927534664068565 0  1.054126004997214 0.850639573290038 0  1.012691851693546 0.9032918490257755 0  0.9696343007392544 0.9591379917895199 0  0.9223274944454781 1.013586474232237 0  0.8699275985957583 1.068564196975694 0  0.8141597079568894 1.121058202149662 0  0.7550939135387779 1.170440459800496 0  0.689107100718742 1.220794116106148 0  0.6203686594729825 1.267480899198876 0  0.5464786693381076 1.31054023252905 0  0.4686050451024433 1.349649462488778 0  0.387081582304006 1.383492249396754 0  0.3016710734624115 1.412297856394605 0  0.2137927871236858 1.434903824366137 0  0.1244643115083589 1.450080452323067 0  0.03257806410539991 1.459780389278134 0  -0.0591443388294872 1.461514397309662 0  -0.1511315963267569 1.456234068412387 0  -0.2416484341517649 1.443115334739708 0  -0.3305595597593337 1.423806648646821 0  -0.4166049480172588 1.395575136255117 0  -0.4986768497715018 1.364350938116831 0  -0.5781442157913588 1.326406731689609 0  -0.6529600616655808 1.281595691790024 0  -0.7232790571794402 1.233942482993689 0  -0.7885877289977751 1.181880405950653 0  -0.8495575281875662 1.12720057367791 0  -0.9042921010892638 1.070850588843774 0  -0.9578704793607287 1.01066663887257 0  -1.000397887854495 0.957868069594671 0  -1.045741210332605 0.904872259729453 0  -1.08511435906919 0.8431573735058201 0  -1.11990379139188 0.7856715754494277 0  -1.148624953956566 0.7293326719536498 0  -1.172432465477169 0.6689515183892922 0  -1.205454006000642 0.6301131939420712 0  -1.220197338206343 0.5528849670094159 0  -1.22114018668913 0.512458436622903 0  -1.264892014958112 0.500902317893773 0  -1.279637730015886 0.450510926147646 0  -1.289316117141014 0.4120052763242139 0  -1.296772542464995 0.3733550331670971 0  -1.322197294088284 0.3513476791031175 0  -1.331188273254522 0.3017488556431598 0  -1.311375470421036 0.3285494633260911 0  -1.377374535546926 0.2895313730574796 0  -1.372466047890589 0.194464391656718 0  -1.370088993338191 0.1695007103413676 0  -1.374535039401699 0.1363612878452537 0  -1.38856096280483 0.1193775455066306 0  -1.399132748119163 0.0865508442922974 0  -1.398626879769214 0.1118795916195497 0  -1.388946388565747 0.0226627379521499 0  -1.407993678279466 0.09630096701264394 0  -1.437955902265878 0.1585780889324278 0  -1.474079728814586 0.07867127083848933 0  -1.482058861765713 0.04892956174224749 0  -1.504794414797934 0.0211775155084239 0  -1.488591737521023 -0.005374755740810426 0  -1.472730909491707 -0.03871159774692466 0  -1.283752831809897 -0.5229793564523986 0  -1.395058478774423 -0.0427977759574267 0  -1.70468651523201 0.5043444718414742 0  -1.441167847085639 -0.06237640097021678 0  -1.450482410778098 0.01352839271469814 0  -1.408694912534688 -0.1298298738605075 0  -1.394770801493335 -0.08756780923851147 0  -1.376027021330045 -0.1007847762467121 0  -1.3814425760472 -0.1226945673063484 0  -1.398350344171038 -0.2418865860680878 0  -1.316937102876488 -0.3426107374936196 0  -1.360930365965898 -0.2390293442835785 0  -1.358110332355279 -0.2963759065332592 0  -1.323126960390161 -0.3230749558263935 0  -1.329361975014203 -0.3607688202501779 0  -1.328361696534785 -0.4005309137476482 0  -1.347186037706042 -0.4482515836464464 0  -1.239524054264446 -0.4666956688764101 0  -1.209716082453498 -0.4995616990157271 0  -1.248667759092458 -0.6155053378551122 0  -1.199003931407302 -0.6373492293883816 0  -1.187972088810474 -0.7006945881288722 0  -1.163204091183704 -0.7653153684881415 0  -1.140756208939612 -0.8275671197709811 0  -1.098304475221677 -0.9091939389473793 0  -1.033043795103897 -0.9323508570336472 0  -1.007700448648058 -1.005199371142578 0  -0.9557451445075447 -1.088705023910012 0  -0.8983420448329829 -1.142128215777708 0  -0.8367151357709391 -1.210142902376929 0  -0.7703285964398324 -1.26920919320092 0  -0.6980442052501853 -1.326130636462943 0  -0.6186873169993421 -1.378435754217934 0  -0.536863528965783 -1.426585977917382 0  -0.4514225637073315 -1.463917678798141 0  -0.3587584978491223 -1.499298071027248 0  -0.2651122661963335 -1.52642160416168 0  -0.1674431055634628 -1.544849430669178 0  -0.06864624113689718 -1.554971165817043 0  0.03110093060522257 -1.556075278643242 0  0.1304458640591418 -1.548411242827459 0  0.2284994254308234 -1.531847753304447 0  0.3240168528064702 -1.506989276824259 0  0.4165052351356082 -1.474791360659087 0  0.5050863609891543 -1.435364672707387 0  0.5890099152250035 -1.389832167250798 0  0.6682818963616846 -1.338778460494722 0  0.7410174214285515 -1.283819359393971 0  0.811538565771181 -1.223740532481414 0  0.8714243626404955 -1.16742331005745 0  0.9286506077013992 -1.10645718840411 0  0.9829763900328106 -1.041771775781266 0  1.03032509274233 -0.978387034741958 0  1.073144090879964 -0.914379714432785 0  1.112736652185333 -0.8528794953063198 0  1.14441637263007 -0.7891860329057886 0  1.170414793062879 -0.7276050870298505 0  1.208569362480543 -0.6871234331217657 0  1.231339990643607 -0.6252594787624453 0  1.252742259618272 -0.5691053129426014 0  1.272399867068616 -0.5153002511091423 0  1.281360529825318 -0.4648867468038355 0  1.287078943721941 -0.4111934987667084 0  1.315213744427025 -0.3836762612983402 0  1.324432486912656 -0.3085309192027089 0  1.289692445574472 -0.3142719837415936 0  1.350453841924327 -0.2756374334925124 0  1.365466935689134 -0.228355443779917 0  1.363622609480725 -0.1971628278102211 0  1.366876377552106 -0.1675706911393895 0  1.376434305965966 -0.139015107525867 0  1.375264095442976 -0.1056672345261707 0  1.60478061599025 0.8243659648004251 0  1.411705571576124 -0.08573689911891576 0  1.40475814416615 -0.09279219997391887 0  1.411766036506868 -0.06173455939417512 0  1.43164893244624 -0.04857114764184536 0  1.43091648875956 -0.02927018152844954 0  1.440573839058132 -0.01790112313126744 0  1.447605838078641 -0.003682697803324908 0  1.467652823106703 0.00396723023459669 0  -0.09650291514209139 0.8822120185933263 0  0.6907007978103382 -0.5053861371305669 0  -0.8072691949276964 -0.3852707370600957 0  -0.07653750040367077 -0.9415486492101073 0  0.6537811646126163 0.496745354842235 0  1.093578268778759 0.1155423209099811 0  -0.7953299415734725 0.4037707105289575 0  -1.158085616080695 0.02868750822107524 0  1.102990946803699 -0.06468826988805158 0  -1.039780158480865 -0.1757864979374927 0  -0.7344121692040483 0.01422289289826308 0  -0.4392520725557387 -0.1390364749242625 0  -1.02956280123396 0.2093822417677572 0  0.3803935387856446 -0.8300817873545048 0  0.08532820817939327 -0.3031177157829263 0  0.3074927327169226 0.7675100912582361 0  0.2210732472630778 0.1837208630185078 0  0.5651656237064049 0.01741780397417254 0  -0.4824059684738907 -0.695027455926101 0  -0.5029724897899024 0.6889664291030599 0  -0.2387177562682116 0.304295703410876 0  0.9204303806110851 -0.2128972365083754 0  0.9004385681667619 0.2467575605860244 0  0.3550156315007583 -0.213469778825486 0  -0.00872631050876563 0.2298128588286955 0  -0.4918027133849787 0.2087912708868348 0  -0.1882924262432498 -0.2788067191047769 0  0.8658193356363552 0.02205191750676884 0  1.252632858410286 0.03055697731497661 0  0.806082090075813 -0.3399359312065054 0  0.7218263073777373 -0.1068988241409072 0  0.5879643103373819 -0.2071846712644116 0  0.443680744019379 -0.07614278244892535 0  0.5155476204395317 -0.3699211421499835 0  0.8672235085527324 -0.08298655422706841 0  0.7177814384943011 0.01960422541341144 0  -0.8608592302638859 0.1223037793446384 0  -1.074676239740708 0.1005183988438078 0  -0.9505797390522177 0.02265581341821751 0  -0.8679713391385068 -0.08916187062265007 0  -1.0779740332685 -0.05232235833767615 0  -1.241524263497569 -0.08088750434369797 0  -1.315227705762171 0.003829019516214959 0  -1.311729839683029 0.05897496052820735 0  -1.232110216474506 0.1399954617726863 0  -0.1306945317072934 -0.6097071787296872 0  -0.3028933035242418 -0.5019711816578792 0  -0.2923137612867061 -0.8403625236776825 0  -0.30914234658697 -0.2015208271250423 0  -0.4530770419466849 -0.4007494410999702 0  -1.231485178741274 -0.1988899429614784 0  -1.213765054473409 0.24504426342733 0  0.3839776734611327 -0.5013349135574858 0  0.2181266122673101 -0.2449219542781507 0  0.2439282747931137 -0.5594201071257865 0  -0.9129317440764325 0.2913294832176734 0  -0.7285640077600445 0.1901336327856913 0  1.272576949065427 -0.08056036087101134 0  1.209603215136012 -0.1787773937535179 0  1.19180027185474 0.2270349326979319 0  1.267340077395886 0.1398732013431363 0  -0.9133271150734015 -0.6526468696340555 0  -1.047669159273303 -0.4464916913684026 0  -1.022193682659981 0.475265844005947 0  -0.886395797082045 0.6620458602722912 0  0.9419583020654136 -0.6057909660965134 0  0.7750695614312746 -0.8235644286525456 0  0.7336540664983997 0.7929560918962166 0  0.9027201770407131 0.6075815505811587 0  0.04339908144311044 -1.25178
[...]
<PointData  Vectors="f_52803"> 
<DataArray  type="Float64"  Name="f_52803"  NumberOfComponents="3" format="ascii">1.0701543210355322e+00 -9.1737923416208775e-02 0.0000000000000000e+00  7.7688853370126465e-01 6.3357919054591161e-01 0.0000000000000000e+00  4.8548371548989672e-01 9.3331303431898005e-01 0.0000000000000000e+00  8.8290633377893446e-01 5.0511663625415604e-01 0.0000000000000000e+00  1.0444774662431748e+00 -2.9326302917305761e-02 0.0000000000000000e+00  8.3908728731710669e-01 6.8479617822110761e-01 0.0000000000000000e+00  -2.1134944503177164e-01 -4.9894185408486634e-02 0.0000000000000000e+00  1.0543108103531735e+00 4.1385814505293678e-01 0.0000000000000000e+00  9.8137306333560270e-01 -2.0186646289628840e-01 0.0000000000000000e+00  9.5876187268181323e-01 -2.7300966979796754e-01 0.0000000000000000e+00  9.8759891579761194e-01 -2.3511399632810628e-01 0.0000000000000000e+00  8.1647262538338428e-01 6.2599318426317430e-01 0.0000000000000000e+00  6.4375854165293889e-01 8.1110383394045293e-01 0.0000000000000000e+00  1.0513516162421233e+00 -3.7713909108254445e-03 0.0000000000000000e+00  9.1555499579487587e-01 4.0178639136423572e-01 0.0000000000000000e+00  9.5278723779217112e-01 3.1968116763469767e-01 0.0000000000000000e+00  8.2676681640191207e-01 5.6503238245953658e-01 0.0000000000000000e+00  8.5307410160162578e-01 5.3142574873853132e-01 0.0000000000000000e+00  9.9562458093678552e-01 1.8892348994459979e-01 0.0000000000000000e+00  9.2075376981135959e-01 3.9053450511747217e-01 0.0000000000000000e+00  9.2005280316638283e-01 3.9173954522992455e-01 0.0000000000000000e+00  9.1835925819025277e-01 3.9686201547594502e-01 0.0000000000000000e+00  8.9165847899058348e-01 4.5076410089814944e-01 0.0000000000000000e+00  9.5962711266168421e-01 3.2594521266028698e-01 0.0000000000000000e+00  7.5274509623183350e-01 6.6440071096726727e-01 0.0000000000000000e+00  7.3666590389205888e-01 6.8068356801090091e-01 0.0000000000000000e+00  9.4068458397713761e-01 3.7796540706139120e-01 0.0000000000000000e+00  8.1441962461501816e-01 5.8122330232660391e-01 0.0000000000000000e+00  7.8523292679510504e-01 6.1922218430874865e-01 0.0000000000000000e+00  7.7963548248635772e-01 6.2661703745269859e-01 0.0000000000000000e+00  7.3726701930868843e-01 6.7590480210446602e-01 0.0000000000000000e+00  7.0704833149195889e-01 7.0746970088638417e-01 0.0000000000000000e+00  6.6261688793034867e-01 7.4924454880939317e-01 0.0000000000000000e+00  6.2330278132529449e-01 7.8216199557657029e-01 0.0000000000000000e+00  5.8737025598064374e-01 8.0962934000343934e-01 0.0000000000000000e+00  5.3292532918064361e-01 8.4652406435387328e-01 0.0000000000000000e+00  4.7661536767897333e-01 8.7944181363165974e-01 0.0000000000000000e+00  4.1720603391159722e-01 9.0929135740043365e-01 0.0000000000000000e+00  3.5109117403496820e-01 9.3604698487883997e-01 0.0000000000000000e+00  2.8698524254111701e-01 9.6043201302851400e-01 0.0000000000000000e+00  2.0695392787326827e-01 9.7919413790011833e-01 0.0000000000000000e+00  1.3593943675093581e-01 9.3374259944844484e-01 0.0000000000000000e+00  6.2357831379033557e-02 1.4116612005367166e+00 0.0000000000000000e+00  7.5540605129203924e-03 -8.2505221200879109e-01 0.0000000000000000e+00  1.0411700784643121e-01 -9.3137914146357614e-01 0.0000000000000000e+00  1.7482211739901829e-01 -1.0067725653123001e+00 0.0000000000000000e+00  2.6496544237200154e-01 -9.6117164034462932e-01 0.0000000000000000e+00  3.3748636789551201e-01 -9.4181840684172957e-01 0.0000000000000000e+00  3.8641743121437122e-01 -9.2282165026741259e-01 0.0000000000000000e+00  4.7729953255957058e-01 -8.7936565654717602e-01 0.0000000000000000e+00  5.3867791409210752e-01 -8.4286622235451791e-01 0.0000000000000000e+00  5.9200677421561454e-01 -8.0629663902015936e-01 0.0000000000000000e+00  6.4667607694392304e-01 -7.6319963854082362e-01 0.0000000000000000e+00  6.9393935592863698e-01 -7.2038494698027455e-01 0.0000000000000000e+00  7.3224652061906514e-01 -6.8139777832015280e-01 0.0000000000000000e+00  7.6973224222874281e-01 -6.3867413872812939e-01 0.0000000000000000e+00  7.6133044724943577e-01 -6.4850776968206381e-01 0.0000000000000000e+00  8.0002260323841690e-01 -6.0081107540008172e-01 0.0000000000000000e+00  8.5896076748725736e-01 -5.1319184629189685e-01 0.0000000000000000e+00  8.5937362570462317e-01 -5.1227066630770390e-01 0.0000000000000000e+00  9.4096748955936060e-01 -3.5309382866516026e-01 0.0000000000000000e+00  8.4306452465976911e-01 -5.4067777952146701e-01 0.0000000000000000e+00  8.8179590503187666e-01 -4.7547933885796867e-01 0.0000000000000000e+00  1.0736123573285972e+00 3.0491705350057133e-02 0.0000000000000000e+00  6.0819531932903315e-01 -7.8504788799801695e-01 0.0000000000000000e+00  6.4772020016218113e-01 -7.7104441454791728e-01 0.0000000000000000e+00  1.0258230388977743e+00 -1.8680957470446119e-01 0.0000000000000000e+00  9.9789758676586915e-01 -1.4868340649971309e-01 0.0000000000000000e+00  8.4091575386722361e-01 -5.5666046861549345e-01 0.0000000000000000e+00  8.8025589216208755e-01 -4.7501908508155433e-01 0.0000000000000000e+00  9.9713367431700817e-01 -1.9198340793782448e-01 0.0000000000000000e+00  4.7366360967657067e-01 -9.9881449609902906e-01 0.0000000000000000e+00  9.3572139200827986e-01 -3.5346568572325793e-01 0.0000000000000000e+00  1.0311051482266136e+00 1.9531190508544613e-01 0.0000000000000000e+00  9.9543384960032855e-01 -1.1273034604344422e-03 0.0000000000000000e+00  9.4137400210584543e-01 -3.9140433535152364e-01 0.0000000000000000e+00  8.6100498741225684e-01 -5.3579041348913758e-01 0.0000000000000000e+00  9.9630122033620283e-01 -1.4905106578410360e-01 0.0000000000000000e+00  9.9955273503128039e-01 8.7077122823585790e-02 0.0000000000000000e+00  9.9156714815470803e-01 1.2599682050552183e-01 0.0000000000000000e+00  9.2087759603896335e-01 4.7158955803043506e-01 0.0000000000000000e+00  1.0022889878516597e+00 -4.3264738751326477e-02 0.0000000000000000e+00  9.2208046532954402e-01 -4.5484290963582402e-01 0.0000000000000000e+00  8.7079557337818891e-01 -5.3341592842486141e-01 0.0000000000000000e+00  9.7609318648371812e-01 -1.7257351372622504e-01 0.0000000000000000e+00  8.7221748400969534e-01 5.9527072584175478e-01 0.0000000000000000e+00  9.1109018044550238e-01 4.1521803883376318e-01 0.0000000000000000e+00  9.7163633507581426e-01 2.4938245544301987e-01 0.0000000000000000e+00  9.2920855495234866e-01 3.7104808866105837e-01 0.0000000000000000e+00  8.6830381744769070e-01 5.0536239243231862e-01 0.0000000000000000e+00  9.3864477669778990e-01 3.4895909844831424e-01 0.0000000000000000e+00  9.7392515073882535e-01 2.2873066238879319e-01 0.0000000000000000e+00  9.8911536461518923e-01 1.5938687375260252e-01 0.0000000000000000e+00  9.9591187772311018e-01 -2.0641363803577831e-01 0.0000000000000000e+00  8.6133201387346869e-01 6.0393983840336085e-01 0.0000000000000000e+00  1.0175975066185605e+00 -3.7283162878430626e-01 0.0000000000000000e+00  9.5115093730337619e-01 3.3268818022558605e-01 0.0000000000000000e+00  7.8870700640257607e-01 6.6623504342899675e-01 0.0000000000000000e+00  1.0150108997176372e+00 1.1871412501236223e-01 0.0000000000000000e+00  8.8767610768618643e-01 4.5910074443185467e-01 0.0000000000000000e+00  8.4946197973182147e-01 5.4526219483855265e-01 0.0000000000000000e+00  1.0037833972926851e+00 -9.6994671960883863e-02 0.0000000000000000e+00  1.1768093394354437e+00 -3.3686455767293466e-01 0.0000000000000000e+00  1.9654543381299044e-01 2.4522506339266595e-01 0.0000000000000000e+00  3.3956861656401538e-01 1.1893261285627130e+00 0.0000000000000000e+00  9.9613081895309330e-01 -1.6351767361992936e-01 0.0000000000000000e+00  9.8026663328523789e-01 -2.1177158773703941e-01 0.0000000000000000e+00  7.4672042249502268e-01 7.6165994090830080e-01 0.0000000000000000e+00  1.0195111329555933e+00 1.4841724430122286e-01 0.0000000000000000e+00  9.1044274182022089e-01 4.0950343441429321e-01 0.0000000000000000e+00  9.8380009206366603e-01 3.1814310061164131e-01 0.0000000000000000e+00  6.0914850642624119e-01 8.0463996243248692e-01 0.0000000000000000e+00  6.6095610318552200e-01 7.5131548799916836e-01 0.0000000000000000e+00  9.8232127047108897e-01 3.3134708382722861e-01 0.0000000000000000e+00  7.3490845569959484e-01 6.8222740595715825e-01 0.0000000000000000e+00  7.0809487541261196e-01 7.0567817746594796e-01 0.0000000000000000e+00  7.2017537431458500e-01 6.9515396483255965e-01 0.0000000000000000e+00  6.3618762119353345e-01 7.7235926248788167e-01 0.0000000000000000e+00  5.8447658277807091e-01 8.1168195638422114e-01 0.0000000000000000e+00  5.3303457841136426e-01 8.4675462133915735e-01 0.0000000000000000e+00  4.5521539350195295e-01 8.9117900933923477e-01 0.0000000000000000e+00  3.7260195173807797e-01 9.2762321252334956e-01 0.0000000000000000e+00  3.2559809985165544e-01 9.4689222494832792e-01 0.0000000000000000e+00  2.3053457125357080e-01 9.8417878437458228e-01 0.0000000000000000e+00  1.4380993612440535e-01 8.8855482458947299e-01 0.0000000000000000e+00  5.0120806046162987e-02 1.5093475004142911e+00 0.0000000000000000e+00  2.1170092625596736e-02 -1.1453426710885553e+00 0.0000000000000000e+00  1.2314275865715452e-01 -9.1879834417491968e-01 0.0000000000000000e+00  2.1064688020080582e-01 -9.9276542921386268e-01 0.0000000000000000e+00  2.9073356622290342e-01 -9.5593676641094361e-01 0.0000000000000000e+00  3.6808562782633680e-01 -9.3013229778139361e-01 0.0000000000000000e+00  4.4315985613704673e-01 -8.9699072743741315e-01 0.0000000000000000e+00  5.0959847873110409e-01 -8.6084347807917527e-01 0.0000000000000000e+00  5.7348961237292662e-01 -8.1969185540887013e-01 0.0000000000000000e+00  6.2889214269321470e-01 -7.7784364096514280e-01 0.0000000000000000e+00  6.6571919308317395e-01 -7.4644853103243758e-01 0.0000000000000000e+00  7.0726733383609874e-01 -7.0727665421581576e-01 0.0000000000000000e+00  7.4877882068177570e-01 -6.6322465537782238e-01 0.0000000000000000e+00  7.8283900910956650e-01 -6.2262711767421297e-01 0.0000000000000000e+00  8.2001522627848400e-01 -5.7279513453683273e-01 0.0000000000000000e+00  8.3439738107125772e-01 -5.5124386514639878e-01 0.0000000000000000e+00  8.5860026221023966e-01 -5.1355290831167522e-01 0.0000000000000000e+00  9.4076530068987663e-01 -3.5777747272994187e-01 0.0000000000000000e+00  8.2121399169140230e-01 -5.7335846981019767e-01 0.0000000000000000e+00  8.3555630285725668e-01 -5.5414072795863123e-01 0.0000000000000000e+00  9.6271903138130765e-01 -2.9385765418300724e-01 0.0000000000000000e+00  9.2547410625149606e-01 -3.7801400062137153e-01 0.0000000000000000e+00  9.5736434890354616e-01 -2.9197883819008347e-01 0.0000000000000000e+00  1.0235699518041181e+00 -2.8551943141822331e-02 0.0000000000000000e+00  8.7774938399667846e-01 -4.9457391200404260e-01 0.0000000000000000e+00  9.3698637655234018e-01 -3.5032367235413936e-01 0.0000000000000000e+00  9.9354950006014875e-01 -1.8336566832138343e-01 0.0000000000000000e+00  2.6587686801058141e-01 -1.0276143624348755e+00 0.0000000000000000e+00  8.0142719624907810e-01 -6.2706225473038235e-01 0.0000000000000000e+00  1.0207530708880024e+00 -9.1526228571127674e-02 0.0000000000000000e+00  1.0053720554789647e+00 6.6704968401033668e-02 0.0000000000000000e+00  9.5781537224869551e-01 -3.1809970265481929e-01 0.0000000000000000e+00  1.0023313872146637e+00 -6.2523791910718746e-02 0.0000000000000000e+00  9.7180368274842144e-01 -2.3647687787254204e-01 0.0000000000000000e+00  9.7433186375928060e-01 -2.2513633974318056e-01 0.0000000000000000e+00  9.7868917308289105e-01 -2.0547763047073545e-01 0.0000000000000000e+00  9.6406313562299140e-01 -2.7753788103308574e-01 0.0000000000000000e+00  8.3684712610705891e-01 -5.5945698611320260e-01 0.0000000000000000e+00  8.0595493927513584e-01 -6.0003380887170044e-01 0.0000000000000000e+00  1.0158670775000025e+00 -1.2788575435097382e-01 0.0000000000000000e+00  8.4052073485876444e-01 -5.7031030469161170e-01 0.0000000000000000e+00  6.0132306247050693e-01 -8.2326708634569690e-01 0.0000000000000000e+00  6.8822316804701555e-01 -7.6837797937246755e-01 0.0000000000000000e+00  1.1109903881865001e-01 -9.3121520985431616e-01 0.0000000000000000e+00  8.2856065024003522e-01 -5.6031040942720134e-01 0.0000000000000000e+00  8.9317948079789733e-01 4.5009574503345073e-01 0.0000000000000000e+00  6.9244266413452313e-02 1.2030002766803409e+00 0.0000000000000000e+00  8.1788365177057398e-01 5.7582422866068195e-01 0.0000000000000000e+00  9.9238377624352281e-01 1.2366835851151067e-01 0.0000000000000000e+00  8.9977239951053545e-01 -4.3677104917539239e-01 0.0000000000000000e+00  9.9974050569184192e-01 2.4792772592947290e-02 0.0000000000000000e+00  9.9412338845071080e-01 -1.0890582814817674e-01 0.0000000000000000e+00  9.7337273333362817e-01 2.2963688447461539e-01 0.0000000000000000e+00  1.0001576010631936e+00 6.4382072551526009e-03 0.0000000000000000e+00  9.5434110775113423e-01 3.0131430337177800e-01 0.0000000000000000e+00  9.7961103653686821e-01 -2.0138245846738356e-01 0.0000000000000000e+00  4.7639885033594531e-01 -8.7956822189513451e-01 0.0000000000000000e+00  4.3852757386986724e-01 -9.0543219120901830e-01 0.0000000000000000e+00  4.1394199738497844e-01 9.1060002860657208e-01 0.0000000000000000e+00  8.7597754933538641e-01 4.8537195110457171e-01 0.0000000000000000e+00  1.0003128230256162e+00 1.0647969871305249e-02 0.0000000000000000e+00  5.8467421327476776e-01 8.1164883261107112e-01 0.0000000000000000e+00  6.2359695434746021e-01 -7.8211506653627849e-01 0.0000000000000000e+00  6.9253705143316635e-01 -7.2351852063798716e-01 0.0000000000000000e+00  9.6662498080811654e-01 -2.5669251291588779e-01 0.0000000000000000e+00  9.6376599915918859e-01 2.6718138732158503e-01 0.0000000000000000e+00  8.8757366904259949e-01 -4.6221500913225028e-01 0.0000000000000000e+00  3.2142969882296792e-03 5.8714788887230668e-02 0.0000000000000000e+00  9.3779767745627551e-01 -3.4853746179673945e-01 0.0000000000000000e+00  5.8977314980443918e-01 8.1114492202689836e-01 0.0000000000000000e+00  1.0000046127054421e+00 1.0877641424303737e-02 0.0000000000000000e+00  9.9984013903956848e-01 2.0650804348835591e-02 0.0000000000000000e+00  9.2185788515787637e-01 -3.8800824527827926e-01 0.0000000000000000e+00  9.8809924543355743e-01 -1.5517009979665400e-01 0.0000000000000000e+00  9.4851888551027475e-01 -3.1805242447118109e-01 0.0000000000000000e+00  9.8590945997167267e-01 -1.7089487863156033e-01 0.0000000000000000e+00  8.3893974639132574e-01 -5.4502206565545974e-01 0.0000000000000000e+00  9.9335016192310222e-01 -1.1579533369607833e-01 0.0000000000000000e+00  1.0000567303634733e+00 1.1911273117558512e-02 0.0000000000000000e+00  9.9290691822132204e-01 -1.1982146607423894e-01 0.0000000000000000e+00  9.9757890006133398e-01 -7.0619523107133375e-02 0.0000000000000000e+00  1.0000275511914565e+00 7.6353709654872620e-03 0.0000000000000000e+00  9.9071626195704166e-01 1.3679314859168720e-01 0.0000000000000000e+00  9.9483696542817202e-01 1.0224632403339945e-01 0.0000000000000000e+00  9.8862805881978821e-01 1.5059931749956817e-01 0.0000000000000000e+00  9.9108054746567298e-01 1.3501564246855682e-01 0.0000000000000000e+00  9.9946312014617511e-01 4.6227398423667916e-02 0.0000000000000000e+00  9.9548065612853964e-01 -9.5806658661238969e-02 0.0000000000000000e+00  1.8470788248854317e-01 1.0070880566898122e+00 0.0000000000000000e+00  5.1874228712316783e-01 8.5556891571554916e-01 0.0000000000000000e+00  3.3815893986426804e-01 9.4093823805009258e-01 0.0000000000000000e+00  8.5948514508364715e-01 5.1451849563910512e-01 0.0000000000000000e+00  7.5491761530508028e-01 6.5659293967976573e-01 0.0000000000000000e+00  9.6710250129157138e-01 2.5489699799105775e-01 0.0000000000000000e+00  9.7226936255617802e-01 -2.3436067968409605e-01 0.0000000000000000e+00  6.6128072639151025e-01 -7.5067393104519353e-01 0.0000000000000000e+00  7.6099599133934859e-01 -6.5040535640846198e-01 0.0000000000000000e+00  4.6578524727584047e-01 -8.8559886843200941e-01 0.0000000000000000e+00  9.5354592827561346e-01 -3.0167344982445743e-01 0.0000000000000000e+00  9.7382461101278250e-01 -2.2829955010468136e-01 0.0000000000000000e+00  9.8703248017346656e-01 -1.6110989954776972e-01 0.0000000000000000e+00  9.5710520648220065e-01 -2.9078297801509739e-01 0.0000000000000000e+00  9.6074622539601706e-01 2.7798173264920772e-01 0.0000000000000000e+00  9.8153438190365017e-01 1.9273121492151782e-01 0.0000000000000000e+00  8.1893865520270270e-01 5.7404751050502600e-01 0.0000000000000000e+00  8.9584735615320765e-01 4.4480149991416884e-01 0.0000000000000000e+00  8.9379384282810970e-01 -4.4862140822618468e-01 0.0000000000000000e+00  8.2281987866592465e-01 -5.6850340842158154e-01 0.0000000000000000e+00  8.5714472085949778e-01 -5.1524133137499750e-01 0.0000000000000000e+00  7.4297260988119618e-01 -6.6958418820719878e-01 0.0000000000000000e+00  7.1604858723462705e-01 6.9829703970280044e-01 0.0000000000000000e+00  8.3438842183484263e-01 5.5137203479429642e-01 0.0000000000000000e+00  5.2270392427403382e-02 -1.4034523137952892e+00 0.0000000000000000e+00  2.5321016271890290e-01 9.6313099797897783e-01 0.0000000000000000e+00  2.5328597787211948e-01 -9.6642950860844545e-01 0.0000000000000000e+00  3.4889901977135811e-02 1.3919875151266894e+00 0.0000000000000000e+00  6.8246460431472167e-01 -7.3126671179847980e-01 0.0000000000000000e+00  9.8711882287202446e-01 1.6511768822159584e-01 0.0000000000000000e+00  9.4349947619601171e-01 3.3263844472493809e-01 0.0000000000000000e+00  8.1222470573579530e-01 5.8426597996007457e-01 0.0000000000000000e+00  9.0391401958259288e-01 4.2862506157204611e-01 0.0000000000000000e+00  9.9568305325287165e-01 9.6868804024181479e-02 0.0000000000000000e+00  9.7155824832445448e-01 2.3777806295022105e-01 0.0000000000000000e+00  6.9233005560292860e-01 7.2841793028654644e-01 0.0000000000000000e+00  -4.6436366218751961e-02 5.7658780651991044e-02 0.0000000000000000e+00  9.5525111609435254e-01 -3.1418392506891230e-01 0.0000000000000000e+00  9.2213418860295726e-01 3.8531189904930752e-01 0.0000000000000000e+00  9.3047169617593417e-01 -3.6687226038282583e-01 0.0000000000000000e+00  9.4782449465705165e-01 3.1916902294878752e-01 0.0000000000000000e+00  9.8461566722423743e-01 1.7584848581975526e-01 0.0000000000000000e+00  9.1560397270044058e-01 4.0256486612251358e-01 0.0000000000000000e+00  9.9097309147598545e-01 1.3457798134439711e-01 0.0000000000000000e+00  5.8793494514695444e-01 8.0950379470850253e-01 0.0000000000000000e+00  6.5096200317808639e-01 7.5950701594578618e-01 0.0000000000000000e+00  1.4899266661467858e-01 -9.4497592582816403e-01 0.0000000000000000e+00  2.1676898002467082e-01 -9.6950019554501288e-01 0.0000000000000000e+00  6.0534954988702672e-01 -7.9655396944654633e-01 0.0000000000000000e+00  3.1200729193693522e-01 -9.5197947377320979e-01 0.0000000000000000e+00  3.8393524311808408e-01 -9.2380875806999896e-01 0.0000000000000000e+00  9.9804441500486596e-01 -8.2847527838378968e-02 0.0000000000000000e+00  2.5084284811228989e-02 9.7151287783958329e-01 0.0000000000000000e+00  5.8486686439063595e-01 -8.1143737476711086e-01 0.0000000000000000e+00  3.3145849385448278e-01 -9.4331575872220219e-01 0.0000000000000000e+00  2.9507674538945117e-01 9.5530767164156616e-01 0.0000000000000000e+00  5.4223879921831031e-01 8.4052324216715757e-01 0.0000000000000000e+00  9.9882743746250924e-01 1.2120004214450261e-01 0.0000000000000000e+00  3.0572579967920482e-01 9.5307851867702498e-01 0.0000000000000000e+00  1.5701536344063888e-01 1.0145376574862570e+00 0.0000000000000000e+00  4.9219559681141467e-01 8.7083821267061390e-01 0.0000000000000000e+00  6.9581347060290089e-01 7.1846572575918355e-01 0.0000000000000000e+00  7.7859188438958327e-01 6.2793762649862461e-01 0.0000000000000000e+00  7.0460951554575735e-01 -7.0986926419819274e-01 0.0000000000000000e+00  4.9800664491382546e-01 -8.6750441272588585e-01 0.0000000000000000e+00  7.9560516853991947e-01 -6.0619373723331471e-01 0.0000000000000000e+00  9.9248519068953811e-01 -1.2488131067791823e-01 0.0000000000000000e+00  9.0794099586356913e-01 -4.1982929223003412e-01 0.0000000000000000e+00  9.9934445063191812e-01 4.9825677263130835e-02 0.0000000000000000e+00  9.