<?xml version="1.0"?>
<VTKFile type="UnstructuredGrid"  version="0.1"  >
<UnstructuredGrid>
<Piece  NumberOfPoints="2549" NumberOfCells="4928">
<Points>
<DataArray  type="Float64"  NumberOfComponents="3"  format="ascii">1.474982489104603 0.02405063314213723 0  1.471206875415728 0.04716155967089977 0  1.447807798851305 0.05652176813188693 0  1.435839644055828 0.07240265435785669 0  1.431031282928838 0.08360537907610514 0  1.430636576708461 0.1065508608295325 0  1.413065885605834 0.1137763222755274 0  1.399955424168137 0.105677145539949 0  1.388086582677857 0.1506314829938341 0  1.519408158620386 0.6659331548884887 0  1.386972769686774 0.174463228683128 0  1.380951320142675 0.2155693247245838 0  1.346254487405496 0.2320884163864658 0  1.339803229653517 0.2596487420542134 0  1.336672633308927 0.2905212414967402 0  1.318407044366854 0.3230782794269484 0  1.310323398617604 0.357459245359554 0  1.290470528130737 0.3683231671158645 0  1.276658948506006 0.4201194942148487 0  1.264151879851834 0.4604534946553375 0  1.244067960344448 0.5048257268087991 0  1.225755114070616 0.5504623297236583 0  1.202803289031356 0.5979268716380524 0  1.17993939596172 0.6493653904719785 0  1.155215704956755 0.7069441206387254 0  1.112641762197088 0.737094367393913 0  1.086340999419369 0.7927534663238096 0  1.054126004771384 0.8506395722693834 0  1.012691852031187 0.9032918486058563 0  0.9696343012193929 0.9591379911901616 0  0.9223274950933895 1.013586473793177 0  0.8699275994789274 1.068564196671731 0  0.8141597089574621 1.121058201977666 0  0.7550939146442266 1.170440459760413 0  0.6891071019880075 1.220794116291398 0  0.6203686608392683 1.267480899573751 0  0.5464786707325466 1.310540233099903 0  0.4686050465457164 1.349649463267295 0  0.3870815837108407 1.383492250337286 0  0.3016710748554126 1.412297857579459 0  0.213792788429716 1.434903825638155 0  0.1244643126910856 1.450080453715319 0  0.03257806522587332 1.459780390841769 0  -0.05914433787938279 1.461514398955327 0  -0.151131595480163 1.456234070125329 0  -0.2416484335021998 1.443115336525133 0  -0.330559559195773 1.423806650399298 0  -0.416604947655834 1.395575138026407 0  -0.4986768495261778 1.36435093987406 0  -0.5781442156458529 1.326406733331148 0  -0.652960061655022 1.28159569337513 0  -0.7232790572215736 1.233942484447097 0  -0.7885877290959175 1.181880407284964 0  -0.8495575282985712 1.127200574862856 0  -0.9042921011662827 1.07085058988142 0  -0.9578704793759476 1.010666639745322 0  -1.000397887859353 0.9578680704335296 0  -1.045741210242229 0.9048722603176782 0  -1.085114358883654 0.8431573740477329 0  -1.119903790968245 0.7856715758009627 0  -1.148624953714218 0.7293326724036749 0  -1.172432465345449 0.6689515189094108 0  -1.205454005279488 0.6301131937843529 0  -1.220197337216157 0.5528849670305354 0  -1.221140185497868 0.5124584369249509 0  -1.264892014077601 0.5009023187583621 0  -1.279637729287214 0.4505109268102234 0  -1.289316116416458 0.412005276881459 0  -1.296772541764115 0.3733550337634722 0  -1.322197293441363 0.3513476797476801 0  -1.331188272370332 0.3017488561379134 0  -1.311375470196143 0.3285494641558483 0  -1.377374535012197 0.2895313737782054 0  -1.372466047212541 0.1944643923205176 0  -1.370088992690122 0.1695007110339631 0  -1.374535038747588 0.1363612885082907 0  -1.388560962045343 0.1193775460703809 0  -1.399132746948819 0.08655084489000459 0  -1.398626879354806 0.1118795921986551 0  -1.388946383650048 0.02266273902014647 0  -1.407993680980931 0.09630096734665777 0  -1.437955913860505 0.1585780866235303 0  -1.474079730290372 0.07867126631759494 0  -1.482058862153047 0.04892955732912512 0  -1.50479441432338 0.02117750994499807 0  -1.488591735486798 -0.005374760564841366 0  -1.472730905602875 -0.0387116026160199 0  -1.283752632934689 -0.5229792986539007 0  -1.395058474643212 -0.04279777462423261 0  -1.704686806842516 0.5043443099133794 0  -1.441167842696677 -0.06237640321053951 0  -1.450482413320562 0.01352838919972444 0  -1.408694910361102 -0.1298298729617463 0  -1.394770797612703 -0.087567808500705 0  -1.376027018222902 -0.1007847754971773 0  -1.381442573461755 -0.1226945664576738 0  -1.398350342814101 -0.2418865845765545 0  -1.316937099731301 -0.3426107354823708 0  -1.3609303643572 -0.2390293434742233 0  -1.35811033093225 -0.2963759059198512 0  -1.323126959216191 -0.3230749552561756 0  -1.329361973945022 -0.3607688196842639 0  -1.328361695453701 -0.4005309133106686 0  -1.347186037537874 -0.4482515831408564 0  -1.239524052732361 -0.4666956679211284 0  -1.209716081082979 -0.4995616981622232 0  -1.248667760884269 -0.6155053374690722 0  -1.199003931982994 -0.6373492287736493 0  -1.187972089100835 -0.7006945879775103 0  -1.163204090841686 -0.7653153677739859 0  -1.140756209630241 -0.8275671199080479 0  -1.098304475331609 -0.9091939385513028 0  -1.033043795083095 -0.932350857129483 0  -1.007700449625937 -1.00519937144153 0  -0.9557451446119273 -1.088705023742172 0  -0.8983420450961085 -1.142128216060521 0  -0.8367151363676889 -1.210142902985355 0  -0.7703285968227851 -1.269209193904665 0  -0.6980442056683904 -1.326130637381639 0  -0.6186873173264664 -1.378435755336932 0  -0.5368635291863373 -1.426585979177101 0  -0.4514225637943236 -1.463917680193463 0  -0.3587584977624799 -1.499298072493925 0  -0.2651122659455227 -1.526421605723431 0  -0.1674431051242098 -1.544849432274777 0  -0.06864624049372499 -1.554971167400942 0  0.03110093143319174 -1.556075280210769 0  0.1304458650792628 -1.548411244284549 0  0.2284994266182131 -1.531847754700753 0  0.3240168541450701 -1.506989278082891 0  0.4165052365934087 -1.474791361722182 0  0.5050863625265466 -1.435364673579713 0  0.5890099167954602 -1.389832167893175 0  0.6682818979370145 -1.338778460892537 0  0.7410174229289448 -1.283819359549655 0  0.811538567094679 -1.22374053232946 0  0.8714243638988288 -1.167423309758059 0  0.9286506088605284 -1.1064571879302 0  0.9829763909526036 -1.041771775096333 0  1.030325093412955 -0.9783870338325465 0  1.073144091335186 -0.9143797135630547 0  1.112736651956491 -0.8528794938997022 0  1.144416373101254 -0.7891860323993155 0  1.170414794608177 -0.7276050868633221 0  1.208569360833069 -0.6871234300998669 0  1.231339989181375 -0.6252594771562173 0  1.252742259053112 -0.5691053116162071 0  1.272399865770506 -0.5153002494459281 0  1.28136052830129 -0.4648867456293223 0  1.287078942966613 -0.4111934977860529 0  1.315213742026064 -0.3836762600053316 0  1.324432484108713 -0.308530917593542 0  1.28969244372356 -0.3142719826588591 0  1.350453840462775 -0.2756374330953678 0  1.365466934593204 -0.2283554432535509 0  1.363622608055318 -0.1971628272102116 0  1.366876376147478 -0.1675706906099694 0  1.376434304457278 -0.1390151070455148 0  1.375264093861972 -0.1056672341219016 0  1.604780603933833 0.8243659676633178 0  1.411705569951234 -0.08573689867837087 0  1.40475814247909 -0.09279219958547304 0  1.411766035139004 -0.06173455922849707 0  1.431648931250613 -0.04857114748003925 0  1.430916487706692 -0.02927018149050718 0  1.440573838072629 -0.01790112300127504 0  1.447605837282189 -0.003682697773242069 0  1.467652822263301 0.003967230508487224 0  -0.09650291452130691 0.8822120202023394 0  0.6907007969153077 -0.5053861371337086 0  -0.8072691939969696 -0.3852707370803785 0  -0.07653749991771641 -0.9415486507059739 0  0.6537811638596642 0.4967453549165095 0  1.093578267246567 0.1155423208494837 0  -0.7953299407664377 0.4037707114032212 0  -1.158085614817778 0.02868750895373881 0  1.102990945296709 -0.06468826955786587 0  -1.039780157128256 -0.1757864974153557 0  -0.7344121683420767 0.01422289342747316 0  -0.4392520723573221 -0.1390364748861214 0  -1.029562800301022 0.2093822423553422 0  0.3803935389354859 -0.8300817881949615 0  0.08532820665780932 -0.3031177165709392 0  0.3074927329034314 0.7675100921384894 0  0.2210732465214625 0.1837208631209225 0  0.565165622290038 0.01741780387003148 0  -0.482405967949468 -0.6950274569550176 0  -0.5029724891738294 0.6889664306329734 0  -0.2387177559619495 0.3042957047367921 0  0.920430379100706 -0.2128972361295844 0  0.9004385667557891 0.2467575604133909 0  0.3550156301526046 -0.2134697794194937 0  -0.00872631078421761 0.2298128593100534 0  -0.4918027128873926 0.2087912719646563 0  -0.1882924268033822 -0.2788067194017311 0  0.8658193340941872 0.02205191756298569 0  1.252632857009132 0.03055697747014408 0  0.8060820887574689 -0.339935930960869 0  0.7218263058700906 -0.106898824107564 0  0.5879643089379455 -0.2071846714365703 0  0.4436807426491782 -0.07614278276677165 0  0.5155476192886066 -0.3699211425158689 0  0.8672235070056776 -0.08298655405106367 0  0.7177814369924461 0.01960422540188199 0  -0.8608592293016857 0.1223037799781053 0  -1.074676238676523 0.1005183994887323 0  -0.9505797379378171 0.02265581401128169 0  -0.867971338050698 -0.08916187016742398 0  -1.077974031915823 -0.05232235769848395 0  -1.241524261631967 -0.08088750364472484 0  -1.31522770418022 0.00382902040853815 0  -1.311729838743223 0.05897496132155038 0  -1.232110215624804 0.139995462421258 0  -0.1306945313867023 -0.6097071799793757 0  -0.3028933031305034 -0.5019711827200016 0  -0.2923137608076268 -0.8403625250619841 0  -0.3091423467773843 -0.2015208272726356 0  -0.4530770414779867 -0.4007494418027766 0  -1.23148517710557 -0.1988899424213473 0  -1.213765053700404 0.245044263979679 0  0.3839776726605234 -0.5013349142289675 0  0.2181266108585888 -0.2449219550824091 0  0.2439282742609864 -0.5594201080369782 0  -0.9129317431832421 0.2913294838726985 0  -0.7285640069436338 0.1901336335650258 0  1.272576947633976 -0.08056036044857394 0  1.209603213655056 -0.1787773931224314 0  1.191800270247633 0.2270349324437605 0  1.267340075810898 0.1398732012842745 0  -0.9133271145052034 -0.6526468696715063 0  -1.04766915807249 -0.4464916909713423 0  -1.022193681771345 0.475265844532075 0  -0.8863957964891501 0.6620458611311483 0  0.9419583013490372 -0.6057909655193199 0  0.7750695615001874 -0.8235644284718647 0  0.7336540665130138 0.7929560918553004 0  0.902720176432527 0.607581550280207 0  0.0433990
[...]
<PointData  Vectors="f_44042"> 
<DataArray  type="Float64"  Name="f_44042"  NumberOfComponents="3" format="ascii">6.6950913109547787e-03 -2.1402792119251885e-03 0.0000000000000000e+00  7.0823085570155186e-03 -2.1695839590844296e-03 0.0000000000000000e+00  7.4703681497841467e-03 -2.7370121349890291e-03 0.0000000000000000e+00  8.2616704421109594e-03 -1.7192112692779513e-03 0.0000000000000000e+00  8.7331862390339771e-03 -2.1587391326673574e-03 0.0000000000000000e+00  9.3852932341713449e-03 -1.8036400220586475e-03 0.0000000000000000e+00  1.2989678943139087e-02 1.4323804020881880e-02 0.0000000000000000e+00  2.6920834954077509e-02 -6.4947947552103213e-03 0.0000000000000000e+00  1.4849241063627200e-02 -3.4686603629790827e-03 0.0000000000000000e+00  -5.7256286700906864e+00 1.5678723099156044e+00 0.0000000000000000e+00  2.0961888223410212e-02 1.7582859303277834e-03 0.0000000000000000e+00  1.2267854508113189e-02 -2.4931715092744661e-03 0.0000000000000000e+00  1.1804618251606109e-02 -9.1775792164989231e-04 0.0000000000000000e+00  1.5840581678147517e-02 7.9057448067892803e-04 0.0000000000000000e+00  1.4298622456078634e-02 2.0542716331160313e-03 0.0000000000000000e+00  1.4892751570279169e-02 3.0880818235348214e-03 0.0000000000000000e+00  1.8829749474122241e-02 5.1680298221231068e-03 0.0000000000000000e+00  1.1884256425018572e-02 4.2507786317224636e-03 0.0000000000000000e+00  1.1256571406557607e-02 2.7715438560706662e-03 0.0000000000000000e+00  1.3746012341050860e-02 7.3595746699339770e-03 0.0000000000000000e+00  8.5505580560821456e-03 5.7695727404516901e-03 0.0000000000000000e+00  8.9728714037783739e-03 7.4322184002298709e-03 0.0000000000000000e+00  3.4001734637948830e-03 7.4147604466955038e-03 0.0000000000000000e+00  9.0070476656860469e-03 8.0756941664423473e-03 0.0000000000000000e+00  4.6322684957485448e-03 1.6436054776196501e-02 0.0000000000000000e+00  -7.0632688447932763e-03 -1.4244659589337967e-03 0.0000000000000000e+00  -2.9691588685246740e-03 6.7375663681942897e-04 0.0000000000000000e+00  1.8321510145627238e-03 8.2805344556188092e-03 0.0000000000000000e+00  -2.7392673230421660e-03 3.4067891585185901e-03 0.0000000000000000e+00  -3.8953457412603896e-03 4.8625714349057464e-03 0.0000000000000000e+00  -5.2564814323730370e-03 3.5620794441909272e-03 0.0000000000000000e+00  -7.1651190327161772e-03 2.4660375917039002e-03 0.0000000000000000e+00  -8.1176104842863982e-03 1.3953933092702995e-03 0.0000000000000000e+00  -8.9684657735134739e-03 3.2519615399583153e-04 0.0000000000000000e+00  -1.0297504667655406e-02 -1.5029309360810822e-03 0.0000000000000000e+00  -1.1084627908397027e-02 -3.0413454027850449e-03 0.0000000000000000e+00  -1.1313032830426487e-02 -4.6313123436950787e-03 0.0000000000000000e+00  -1.1709222621580294e-02 -6.3160748199770781e-03 0.0000000000000000e+00  -1.1413598915023573e-02 -7.6304973660631693e-03 0.0000000000000000e+00  -1.1301367350890920e-02 -9.6126764714270611e-03 0.0000000000000000e+00  -1.0595775614294693e-02 -1.0319841386934807e-02 0.0000000000000000e+00  -9.5954190228304884e-03 -1.1295290320467334e-02 0.0000000000000000e+00  -9.0903602991705985e-03 -1.2685709502874162e-02 0.0000000000000000e+00  -7.7081626568481533e-03 -1.3351213843572237e-02 0.0000000000000000e+00  -6.8683858845821804e-03 -1.3897035585201008e-02 0.0000000000000000e+00  -5.2698983362025470e-03 -1.4485086159377573e-02 0.0000000000000000e+00  -4.5721474256571575e-03 -1.4217788006702202e-02 0.0000000000000000e+00  -2.9322267701510090e-03 -1.4370404145202414e-02 0.0000000000000000e+00  -1.9903046734258546e-03 -1.4256335743082816e-02 0.0000000000000000e+00  -1.1804835083514956e-03 -1.3317748393068875e-02 0.0000000000000000e+00  -8.5663660557370205e-05 -1.2859909767596255e-02 0.0000000000000000e+00  3.4182695635399864e-04 -1.1791443512294884e-02 0.0000000000000000e+00  7.9622590915479107e-04 -1.0825217506454822e-02 0.0000000000000000e+00  9.0057957321294563e-04 -9.6134211662351979e-03 0.0000000000000000e+00  6.2485111414170341e-04 -8.4183869409136074e-03 0.0000000000000000e+00  1.2347111791673589e-04 -7.0806079185310499e-03 0.0000000000000000e+00  3.9416234217361058e-05 -6.8056300518331003e-03 0.0000000000000000e+00  -7.3321771447231571e-04 -4.7722501996288911e-03 0.0000000000000000e+00  -1.5052457500226940e-03 -4.3965191976242284e-03 0.0000000000000000e+00  -3.4369308745231491e-03 -2.8519908691136504e-03 0.0000000000000000e+00  -1.9661628829029149e-03 -3.6510377091356376e-03 0.0000000000000000e+00  -1.0686422995734128e-03 -4.2197035325268828e-03 0.0000000000000000e+00  -5.8506919814490747e-03 1.2795628066285089e-03 0.0000000000000000e+00  -8.0333465127959101e-03 -1.7134104325325245e-04 0.0000000000000000e+00  -9.6646712287804821e-03 -2.4505027144428627e-03 0.0000000000000000e+00  -7.1435545785921610e-03 -7.0143794145107992e-03 0.0000000000000000e+00  -5.9116874643779715e-03 -5.3754658936119087e-03 0.0000000000000000e+00  -5.8782975932283373e-03 -4.5209097101202803e-03 0.0000000000000000e+00  -5.6862150272738131e-03 -4.8383701725281912e-03 0.0000000000000000e+00  -5.2484459464304982e-03 -5.2293128815363776e-03 0.0000000000000000e+00  -7.1734061445611992e-03 -4.0139183070859331e-03 0.0000000000000000e+00  -1.8245521382626582e-03 -6.7317899083091650e-03 0.0000000000000000e+00  -4.3382328432193130e-03 -5.8472222418087970e-03 0.0000000000000000e+00  -5.5009789814295376e-03 -5.3853822847649002e-03 0.0000000000000000e+00  -5.2577654717592837e-03 -5.6190025801830593e-03 0.0000000000000000e+00  -5.3067733853919509e-03 -5.3791947895173442e-03 0.0000000000000000e+00  -6.1616872527286686e-03 -4.5736855487031281e-03 0.0000000000000000e+00  -9.4949644348934457e-03 -4.8491768176907235e-03 0.0000000000000000e+00  -3.3620719704054421e-03 -4.6982610083539916e-03 0.0000000000000000e+00  -3.9880892986097496e-02 -8.6646175153910418e-03 0.0000000000000000e+00  2.1916890573334388e-02 -2.7098420766441637e-03 0.0000000000000000e+00  9.4066790110120049e-02 1.8732002354726433e-02 0.0000000000000000e+00  1.1972998241423394e-02 3.6677852755421972e-02 0.0000000000000000e+00  3.1424265851399910e-03 3.5803502218247553e-02 0.0000000000000000e+00  -3.8500364406732707e-03 4.5135872573657004e-02 0.0000000000000000e+00  -1.6503595130037435e-02 3.9137188584080634e-02 0.0000000000000000e+00  -3.1549955076691234e-02 3.9502793612859903e-02 0.0000000000000000e+00  -1.6134673672527449e+00 -4.6891712300789040e-01 0.0000000000000000e+00  -3.3516359765564052e-02 -1.0816155526048282e-02 0.0000000000000000e+00  2.3658254898796356e+00 1.3137167784479327e+00 0.0000000000000000e+00  -3.5607486790726277e-02 1.8175657310535442e-02 0.0000000000000000e+00  2.0626924544459396e-02 2.8516854585946022e-02 0.0000000000000000e+00  -1.7634225639035116e-02 -7.2916169799305810e-03 0.0000000000000000e+00  -3.1483425297129275e-02 -5.9857972211826609e-03 0.0000000000000000e+00  -2.5208134453818722e-02 -6.0809486204146303e-03 0.0000000000000000e+00  -2.0975613644995336e-02 -6.8852662778004720e-03 0.0000000000000000e+00  -1.1008776745637138e-02 -1.2100756009544966e-02 0.0000000000000000e+00  -2.5516791848301461e-02 -1.6317189281507247e-02 0.0000000000000000e+00  -1.3051313748134386e-02 -6.5662693863322236e-03 0.0000000000000000e+00  -1.1544983953532557e-02 -4.9765575111980678e-03 0.0000000000000000e+00  -9.5243739252489999e-03 -4.6261567204807846e-03 0.0000000000000000e+00  -8.6742298822200508e-03 -4.5912399241605437e-03 0.0000000000000000e+00  -8.7707889162119482e-03 -3.5452000112476435e-03 0.0000000000000000e+00  -1.3643416194135984e-03 -4.1018331518000006e-03 0.0000000000000000e+00  -1.2429755874404976e-02 -7.7501656657283750e-03 0.0000000000000000e+00  -1.1118975091080159e-02 -6.9244454723787624e-03 0.0000000000000000e+00  1.4536898915369103e-02 -3.1319279546784050e-03 0.0000000000000000e+00  4.6705739971048543e-03 -4.9873009868491450e-03 0.0000000000000000e+00  2.3556889622051483e-03 -1.2279938503054054e-03 0.0000000000000000e+00  -2.7747822755885203e-03 -5.7939185214304009e-03 0.0000000000000000e+00  5.6030433944499036e-03 1.1120177091348388e-03 0.0000000000000000e+00  8.9187038933909179e-04 -3.2133546231357685e-03 0.0000000000000000e+00  -1.6876413158601662e-04 7.7751228761185768e-04 0.0000000000000000e+00  7.9334983141167315e-03 2.4253830287599993e-03 0.0000000000000000e+00  8.4685255907962736e-04 -1.3616813656528867e-03 0.0000000000000000e+00  2.1347288443693299e-03 2.2944522325248854e-03 0.0000000000000000e+00  4.8414089855127870e-03 4.9361378290936307e-03 0.0000000000000000e+00  3.1068813499937455e-03 5.7094555703164247e-03 0.0000000000000000e+00  3.3928832235922755e-03 7.4533526495900232e-03 0.0000000000000000e+00  2.6539475080892636e-03 9.0783982388887921e-03 0.0000000000000000e+00  1.7893485654242828e-03 1.0220057690468902e-02 0.0000000000000000e+00  7.0576410867161565e-04 1.1320198993987634e-02 0.0000000000000000e+00  -7.0292681791561771e-04 1.1899101937979554e-02 0.0000000000000000e+00  -2.0348189519410432e-03 1.2670422827500031e-02 0.0000000000000000e+00  -3.5636441557295637e-03 1.3026170070758545e-02 0.0000000000000000e+00  -5.2180327689692746e-03 1.2850111551985134e-02 0.0000000000000000e+00  -6.7172839547258159e-03 1.2717289960135592e-02 0.0000000000000000e+00  -8.2762045195068183e-03 1.1821317216813862e-02 0.0000000000000000e+00  -9.6332495186094904e-03 1.1328180519580027e-02 0.0000000000000000e+00  -1.0860012461289301e-02 1.0211232826946193e-02 0.0000000000000000e+00  -1.1827082659730927e-02 8.6248439975825323e-03 0.0000000000000000e+00  -1.2472808588725062e-02 7.0771544671445830e-03 0.0000000000000000e+00  -1.2741058968555105e-02 5.2115858025734551e-03 0.0000000000000000e+00  -1.2780595018761397e-02 3.2274568490194598e-03 0.0000000000000000e+00  -1.2172636646600007e-02 1.2630543067532541e-03 0.0000000000000000e+00  -1.0737491478878392e-02 -1.2327946601788896e-03 0.0000000000000000e+00  -1.0208812869854585e-02 -2.4289523444714560e-03 0.0000000000000000e+00  -9.4039738189770489e-03 -3.8448134193676689e-03 0.0000000000000000e+00  -7.4622476854535099e-03 -5.5568348691784992e-03 0.0000000000000000e+00  -5.4407579921302721e-03 -7.3780217826931692e-03 0.0000000000000000e+00  -3.6932004028915081e-03 -7.0560904993622912e-03 0.0000000000000000e+00  1.8565834911493633e-03 -1.1411837419988432e-02 0.0000000000000000e+00  -3.8226988866368918e-03 -4.1089976276896993e-03 0.0000000000000000e+00  -1.2536942701018034e-02 -1.3510383758221162e-03 0.0000000000000000e+00  1.3365897524136208e-02 -2.4516555690441477e-02 0.0000000000000000e+00  1.1863040006900786e-02 -1.3031268880759261e-02 0.0000000000000000e+00  4.5851217823770270e-03 -1.0760988249724556e-02 0.0000000000000000e+00  1.0531512591528625e-02 -1.3493597014672511e-02 0.0000000000000000e+00  1.2364382667602872e-02 -9.5287825360330716e-03 0.0000000000000000e+00  6.1279427741812503e-03 -7.9560231691784399e-03 0.0000000000000000e+00  1.9478907126624711e-02 -1.0490132209445167e-02 0.0000000000000000e+00  2.2748290342724978e-02 -1.3055112541261064e-02 0.0000000000000000e+00  1.5016383829863622e-02 -8.7841861372029151e-03 0.0000000000000000e+00  1.1857522633879137e-02 -3.2220194791328519e-03 0.0000000000000000e+00  8.8912336874263573e-03 -4.2703891559379443e-03 0.0000000000000000e+00  1.1564279135201685e-02 -4.8678555329726867e-03 0.0000000000000000e+00  1.1395699899090577e-02 -4.2951662947820794e-03 0.0000000000000000e+00  1.2239927536762710e-02 -3.8970799867502361e-03 0.0000000000000000e+00  1.2826628532634119e-02 -3.2798209303088275e-03 0.0000000000000000e+00  9.7813277826130529e-02 -2.3226544731310549e-02 0.0000000000000000e+00  1.3182672908041593e-02 -3.5741247900883725e-03 0.0000000000000000e+00  1.3687058132463084e-02 -3.1514469432505346e-03 0.0000000000000000e+00  1.1097429813370214e-02 -1.3441399908392247e-03 0.0000000000000000e+00  9.7000751939333718e-03 -1.3127271811924791e-03 0.0000000000000000e+00  8.5418771061181904e-03 -3.0782506597545466e-04 0.0000000000000000e+00  7.9953455539768289e-03 -1.0546236654267347e-03 0.0000000000000000e+00  6.4615906169659528e-03 -2.4406098250013745e-04 0.0000000000000000e+00  6.8424902795901389e-03 -2.2220640003441632e-03 0.0000000000000000e+00  -5.0364019940586481e-03 -1.3053864368275324e-02 0.0000000000000000e+00  7.2613501179446633e-03 2.5488959297388552e-05 0.0000000000000000e+00  -7.5509531990910596e-03 1.6455398316854206e-04 0.0000000000000000e+00  -3.9425302036896551e-03 1.2135912471939065e-02 0.0000000000000000e+00  6.1086728698983763e-03 -6.0258567366935499e-04 0.0000000000000000e+00  1.2430618344271258e-02 4.9081340438452325e-04 0.0000000000000000e+00  -6.5474443334803704e-03 -7.0928700755391056e-03 0.0000000000000000e+00  -1.0245999021194481e-02 -5.9440730038953322e-03 0.0000000000000000e+00  1.2226156437495604e-02 -2.6787847839231274e-03 0.0000000000000000e+00  -1.0973669462006194e-02 -4.2360792790784177e-03 0.0000000000000000e+00  -6.9931447098776842e-03 -4.2934622719220418e-03 0.0000000000000000e+00  -1.6097470742642971e-03 -3.0943689996851720e-04 0.0000000000000000e+00  -7.5688894926527013e-03 -4.7670561373344125e-03 0.0000000000000000e+00  -1.2156566727882202e-03 6.8185951933337277e-03 0.0000000000000000e+00  1.2344555501554205e-02 6.3931198574204585e-03 0.0000000000000000e+00  -1.5131394827377896e-03 -7.1414628637582658e-03 0.0000000000000000e+00  6.0166982675723549e-03 -8.3088636856008130e-04 0.0000000000000000e+00  1.1490933670430850e-02 8.4489271792037937e-04 0.0000000000000000e+00  -4.2546222294155764e-03 8.3475625517341265e-03 0.0000000000000000e+00  -4.9981774573909111e-03 -1.2412132524436693e-02 0.0000000000000000e+00  -2.4846933357976077e-03 -1.0757109877944608e-02 0.0000000000000000e+00  1.2253650172983653e-02 -3.0731179439306231e-03 0.0000000000000000e+00  1.1447171580381305e-02 1.4005693057536968e-03 0.0000000000000000e+00  1.0937522566542139e-02 4.8191627077494841e-03 0.0000000000000000e+00  2.2347319614945149e-03 -3.9052392000032115e-03 0.0000000000000000e+00  -4.0368974087680691e-03 -8.7443265453799168e-03 0.0000000000000000e+00  4.5443337654039705e-03 2.4091789833210618e-03 0.0000000000000000e+00  1.2511553043927022e-02 -4.5608528057775819e-04 0.0000000000000000e+00  1.1367515863464838e-02 -1.2588680508965008e-03 0.0000000000000000e+00  1.0695677744301319e-02 -1.9928396184290269e-03 0.0000000000000000e+00  1.2231484114850635e-02 -2.7051256336693864e-04 0.0000000000000000e+00  1.1353577676112536e-02 1.3967176045589457e-03 0.0000000000000000e+00  1.1116388887780512e-02 2.5786755696523005e-03 0.0000000000000000e+00  9.3374135840221563e-03 2.9684154734911775e-03 0.0000000000000000e+00  1.2551199418664900e-02 -1.4279200294468658e-03 0.0000000000000000e+00  1.2184494843834062e-02 9.3538011525087225e-05 0.0000000000000000e+00  -7.8062958118589104e-03 -5.1392942410101814e-03 0.0000000000000000e+00  -8.6336920837313830e-03 -5.2322490289195833e-03 0.0000000000000000e+00  -9.0410918569004649e-03 -4.8115082511451220e-03 0.0000000000000000e+00  -8.8253531207521854e-03 -3.6932328470807422e-03 0.0000000000000000e+00  -1.0974220751709516e-02 -5.1857432261758502e-03 0.0000000000000000e+00  -1.5135557518978250e-02 -5.6707437415312763e-03 0.0000000000000000e+00  -1.2834309999762410e-02 -7.2393857886431387e-03 0.0000000000000000e+00  -7.6246099751890849e-03 -6.4363633120390626e-03 0.0000000000000000e+00  -6.8936045888664246e-03 -5.2618386891857064e-03 0.0000000000000000e+00  -2.6009439994710724e-03 1.0138678169282933e-02 0.0000000000000000e+00  -3.1943846646419268e-03 8.6169605134093601e-03 0.0000000000000000e+00  -3.8867529203602952e-03 1.1230788551570623e-02 0.0000000000000000e+00  1.5448244608690525e-03 1.1974192955462647e-03 0.0000000000000000e+00  -3.8025309311039723e-03 5.7018431120564447e-03 0.0000000000000000e+00  -1.3270406382165619e-02 -4.3820643274565070e-03 0.0000000000000000e+00  -6.2713622131510089e-03 -4.4811882145064097e-03 0.0000000000000000e+00  6.4953144083611577e-03 5.4477067002230099e-03 0.0000000000000000e+00  1.1428904976538081e-02 6.5249193852817853e-03 0.0000000000000000e+00  4.3171293469156536e-03 7.3924655008429435e-03 0.0000000000000000e+00  -7.2464213305627146e-03 -5.3141949141173985e-03 0.0000000000000000e+00  -6.6235105012398474e-03 -6.3227128302527844e-03 0.0000000000000000e+00  1.1613312920317091e-02 -3.4272193476009342e-03 0.0000000000000000e+00  1.2014942032539968e-02 -5.1199820563844886e-03 0.0000000000000000e+00  1.3038403898089031e-02 2.0620835563845770e-03 0.0000000000000000e+00  1.2858953885855812e-02 4.7754374652580236e-04 0.0000000000000000e+00  -4.6097698127162108e-03 3.0383750510398565e-04 0.0000000000000000e+00  -9.7421482477894304e-03 -3.2213353521376885e-03 0.0000000000000000e+00  -7.2094705268111788e-03 -4.2684579194763430e-03 0.0000000000000000e+00  -4.8101344116004609e-03 -6.9678763975383898e-03 0.0000000000000000e+00  5.8119356544336868e-03 -4.6827499426647101e-03 0.0000000000000000e+00  -5.5908659264573086e-04 -1.4658579781116625e-03 0.0000000000000000e+00  -1.1856387852634586e-04 3.3195194117505687e-04 0.0000000000000000e+00  4.9341918461148241e-03 2.4416107589347378e-03 0.0000000000000000e+00  -5.5374635658325330e-03 1.2256271361365865e-02 0.0000000000000000e+00  -2.3219379566757096e-03 1.2130566941411501e-02 0.0000000000000000e+00  -4.0872126932059065e-03 -1.4037168818639539e-02 0.0000000000000000e+00  -6.4292464428220937e-03 -1.2369213939759670e-02 0.0000000000000000e+00  3.1269947492521032e-03 3.1363364079395740e-03 0.0000000000000000e+00  9.4252003420000289e-03 8.4012892735418183e-04 0.0000000000000000e+00  9.7660109948429705e-03 -3.9034976049026290e-04 0.0000000000000000e+00  6.9470026289265262e-03 -2.4578056943688554e-03 0.0000000000000000e+00  -5.3149128247143443e-03 1.6667050806040212e-03 0.0000000000000000e+00  -4.5916502256691622e-03 -3.0434907404558176e-03 0.0000000000000000e+00  -7.2612689154573770e-03 -1.8280366356180772e-03 0.0000000000000000e+00  2.2076786596341158e-03 -7.3616430676397748e-04 0.0000000000000000e+00  3.5640911999213050e-02 -2.7015984336193562e-02 0.0000000000000000e+00  7.6563706989014550e-03 1.8049407263062600e-03 0.0000000000000000e+00  -1.0982431858105438e-02 -4.7659713252847799e-03 0.0000000000000000e+00  -6.8031671102156098e-03 -3.6922391037785890e-03 0.0000000000000000e+00  -9.4681619166461263e-03 -2.6451758491219750e-03 0.0000000000000000e+00  1.1498440368543653e-02 3.3099703265302756e-04 0.0000000000000000e+00  9.3905370532681096e-03 8.9375684066632399e-04 0.0000000000000000e+00  1.2150035202089484e-02 4.2560809289621747e-04 0.0000000000000000e+00  4.0114105450365636e-03 -4.9170315972983675e-03 0.0000000000000000e+00  2.3865879754611766e-03 -3.5172619579257060e-03 0.0000000000000000e+00  1.7688982013696713e-04 9.3839906220945565e-03 0.0000000000000000e+00  -3.4395636242513074e-03 1.0439160026625319e-02 0.0000000000000000e+00  -5.5880036713489567e-03 -1.2886908809383757e-02 0.0000000000000000e+00  -5.4291634454108019e-03 -1.2451564381051414e-02 0.0000000000000000e+00  -5.0269637454398008e-03 -1.3734341102967449e-02 0.0000000000000000e+00  8.5643739118792285e-03 3.7272434048697110e-03 0.0000000000000000e+00  9.2329235642471964e-03 4.5552673295150723e-03 0.0000000000000000e+00  -5.3063860991183730e-03 3.0047061803877904e-03 0.0000000000000000e+00  -7.3183855945429064e-03 8.9129007967120311e-03 0.0000000000000000e+00  -6.8756404395456461e-03 -8.7606154895151986e-03 0.0000000000000000e+00  -4.4513209220541023e-03 -3.6378714676450065e-03 0.0000000000000000e+00  8.4276108835978705e-03 -1.2681544943317729e-02 0.0000000000000000e+00  6.2641856995164491e-04 -7.1522418713379325e-03 0.0000000000000000e+00  -4.0022458043472136e-03 -1.0539949982497370e-02 0.0000000000000000e+00  -1.1932815791937232e-03 9.1325227049643982e-03 0.0000000000000000e+00  -2.4778926717199485e-03 4.0960864828380808e-03 0.0000000000000000e+00  -5.4104859973416134e-03 4.2462404181549127e-03 0.0000000000000000e+00  -2.8909502018457283e-03 -9.8349203974411291e-03 0.0000000000000000e+00  -2.5142787989730392e-03 -1.2958850893721074e-02 0.0000000000000000e+00  -5.6108862563277939e-03 -9.8830233443285894e-03 0.0000000000000000e+00  -5.1973087937661816e-03 