<?xml version="1.0"?>
<VTKFile type="UnstructuredGrid"  version="0.1"  >
<UnstructuredGrid>
<Piece  NumberOfPoints="2549" NumberOfCells="4928">
<Points>
<DataArray  type="Float64"  NumberOfComponents="3"  format="ascii">2 0 0  1.996686137018095 0.05754231104100042 0  1.986882897305854 0.1143419787233611 0  1.970975633076588 0.1697461736080849 0  1.949521707683106 0.2232516020504374 0  1.92316148102163 0.2745222750136555 0  1.892542813236142 0.323373506980794 0  1.858271349552875 0.3697389590748243 0  1.820885526891715 0.4136350740557075 0  1.780849258848747 0.4551307277194839 0  1.738554874553317 0.4943245260370203 0  1.694330878507049 0.5313291997757913 0  1.648451186236745 0.5662615752889001 0  1.601144123217999 0.5992364926897525 0  1.552600433702648 0.6303633660965611 0  1.502980077905183 0.659744436395664 0  1.452417851070797 0.6874740696729748 0  1.401027953784824 0.7136386818120056 0  1.348907720609051 0.7383169985313379 0  1.29614058371176 0.7615805254953902 0  1.242798492047359 0.7834940823268561 0  1.188943861023348 0.8041163621228731 0  1.134631154358537 0.8235004771642536 0  1.079908172939354 0.8416944721837589 0  1.024817109964837 0.8587417963397553 0  0.9693954136298085 0.8746817324080646 0  0.9136765221153764 0.8895497755796398 0  0.8576904445844472 0.9033779803145155 0  0.801464266694953 0.9161952615587904 0  0.7450225714102614 0.9280276623152515 0  0.6883877952988928 0.9388985892101885 0  0.6315805321092666 0.9488290192996544 0  0.5746197931158087 0.9578376811025375 0  0.5175232373657314 0.9659412118222429 0  0.4603073510223729 0.9731542969378965 0  0.4029876351072817 0.9794897863110468 0  0.3455787518345055 0.9849587968895583 0  0.2880946601251717 0.9895707992366389 0  0.2305487379218517 0.993333690086398 0  0.1729538938792191 0.9962538520116265 0  0.115322670663361 0.998336201090478 0  0.05766733915096163 0.9995842233142798 0  -1.322274611685462e-09 1 0  -0.05766734179523565 0.9995842232761419 0  -0.1153226733068079 0.9983362010141388 0  -0.1729538991952786 0.996253851780904 0  -0.2305487459060017 0.9933336896231258 0  -0.2880946707711053 0.9895707984617989 0  -0.3455787651340506 0.9849587957230019 0  -0.4029876510566202 0.9794897846705534 0  -0.4603073696092293 0.9731542947399749 0  -0.5175232585755485 0.9659412089813419 0  -0.5746198169315506 0.9578376775306909 0  -0.6315805531144443 0.9488290158041717 0  -0.6883878135015997 0.9388985858736937 0  -0.745022586820829 0.9280276592223424 0  -0.8014642793262121 0.9161952587964145 0  -0.8576904516640802 0.9033779786341188 0  -0.9136765236872437 0.8895497751760147 0  -0.9693954097454738 0.8746817334843007 0  -1.02481710068483 0.8587417991084308 0  -1.07990816384232 0.8416944751016707 0  -1.134631145449371 0.8235004802330488 0  -1.188943852307292 0.8041163653447019 0  -1.242798483530528 0.7834940857042606 0  -1.296140602082296 0.7615805176791459 0  -1.348907765262195 0.7383169781359747 0  -1.401028023999701 0.7136386473502353 0  -1.452417945986507 0.6874740195411637 0  -1.502980204542554 0.659744364271727 0  -1.55260059049229 0.6303632695523657 0  -1.601144308255775 0.5992363690857174 0  -1.648451397199867 0.566261421754521 0  -1.694331058738459 0.5313290560928818 0  -1.738555024805723 0.4943243939263901 0  -1.780849380123489 0.4551306090875966 0  -1.820885620520759 0.4136349710133106 0  -1.858271414561462 0.3697388773931348 0  -1.892542852486391 0.3233734495527862 0  -1.923161498240549 0.2745222448569359 0  -1.949521707638369 0.2232516021481025 0  -1.970975633050448 0.1697461736839625 0  -1.986882897293919 0.1143419787752093 0  -1.99668613701505 0.05754231106741577 0  -2 -2.119381739288827e-14 0  -1.996686137015017 -0.05754231106770592 0  -1.986882897293798 -0.114341978775735 0  -1.970975633050334 -0.1697461736842945 0  -1.949521707638351 -0.2232516021481412 0  -1.923161498240437 -0.2745222448571329 0  -1.892542852486365 -0.3233734495528243 0  -1.858271414561291 -0.36973887739335 0  -1.820885620520727 -0.4136349710133463 0  -1.780849380123318 -0.4551306090877636 0  -1.738555024805688 -0.4943243939264208 0  -1.69433105873832 -0.5313290560929934 0  -1.648451397199832 -0.5662614217545467 0  -1.601144308255667 -0.5992363690857894 0  -1.552600590492252 -0.6303632695523889 0  -1.50298020454247 -0.659744364271775 0  -1.452417945986467 -0.6874740195411845 0  -1.40102802399929 -0.713638647350437 0  -1.348907765261459 -0.7383169781363109 0  -1.296140602081886 -0.7615805176793204 0  -1.242798483530485 -0.7834940857042775 0  -1.188943852307122 -0.8041163653447646 0  -1.134631145449091 -0.8235004802331454 0  -1.079908163842153 -0.8416944751017243 0  -1.02481710068479 -0.8587417991084427 0  -0.9693954097453934 -0.874681733484323 0  -0.9136765236871304 -0.8895497751760438 0  -0.8576904516640044 -0.9033779786341368 0  -0.8014642793261747 -0.9161952587964226 0  -0.7450225868207132 -0.9280276592223656 0  -0.688387813501408 -0.9388985858737288 0  -0.6315805531141928 -0.9488290158042135 0  -0.574619816931241 -0.9578376775307373 0  -0.5175232585753057 -0.9659412089813745 0  -0.4603073696090547 -0.9731542947399956 0  -0.4029876510565167 -0.979489784670564 0  -0.3455787651340186 -0.9849587957230047 0  -0.2880946707710729 -0.9895707984618012 0  -0.2305487459059683 -0.9933336896231277 0  -0.1729538991952446 -0.9962538517809054 0  -0.1153226733067752 -0.9983362010141397 0  -0.05766734179520062 -0.9995842232761424 0  -1.322240462585813e-09 -1 0  0.05766733915099533 -0.9995842233142793 0  0.1153226706633956 -0.998336201090477 0  0.1729538938792597 -0.9962538520116249 0  0.2305487379218985 -0.9933336900863954 0  0.2880946601252248 -0.9895707992366352 0  0.3455787518345641 -0.9849587968895532 0  0.4029876351073326 -0.9794897863110416 0  0.4603073510224157 -0.9731542969378913 0  0.5175232373657652 -0.9659412118222385 0  0.5746197931158308 -0.9578376811025342 0  0.6315805321096187 -0.9488290192995957 0  0.6883877952995736 -0.9388985892100637 0  0.7450225714112517 -0.9280276623150527 0  0.8014642666962468 -0.9161952615585074 0  0.857690444585461 -0.903377980314275 0  0.9136765221161084 -0.8895497755794518 0  0.9693954136301919 -0.8746817324079583 0  1.02481710996487 -0.8587417963397453 0  1.079908172939512 -0.8416944721837082 0  1.134631154358807 -0.8235004771641605 0  1.188943861023504 -0.8041163621228153 0  1.242798492047385 -0.7834940823268459 0  1.296140583712152 -0.7615805254952235 0  1.348907720609768 -0.7383169985310102 0  1.401027953785216 -0.7136386818118133 0  1.452417851070815 -0.6874740696729649 0  1.502980077905247 -0.6597444363956275 0  1.552600433702669 -0.6303633660965483 0  1.601144123218091 -0.5992364926896914 0  1.648451186236767 -0.5662615752888848 0  1.694330878507175 -0.5313291997756912 0  1.738554874553337 -0.4943245260370026 0  1.780849258848903 -0.4551307277193312 0  1.820885526891733 -0.4136350740556869 0  1.858271349553032 -0.3697389590746263 0  1.892542813236154 -0.3233735069807763 0  1.923161481021729 -0.2745222750134805 0  1.949521707683112 -0.223251602050424 0  1.970975633076692 -0.1697461736077827 0  1.986882897305967 -0.11434197872287 0  1.996686137018124 -0.05754231104074863 0  -0.1152904195579733 0.6070198455084121 0  0.7139314807447402 -0.5185554509125195 0  -0.9021804071087454 -0.4712698952622889 0  -0.08853261806707058 -0.5931971952512098 0  0.7139314807447157 0.5185554509125249 0  1.417801984821762 0.2291367688541014 0  -0.9202096744148912 0.4669291729068617 0  -1.545989679638069 -0.002355595176244116 0  1.419175259971926 -0.2295798938383525 0  -1.262514497274744 -0.369291382563445 0  -1.008975443817403 -0.0113108633010534 0  -0.6062327478577832 -0.13746405873719 0  -1.281728968624498 0.3515475904410956 0  0.3284986955774252 -0.5906094157356263 0  0.1737280740022324 -0.1722626988402368 0  0.2893086492827969 0.5872833258737034 0  0.428425950012378 0.185265744956867 0  0.8258750024497795 0.002678618671304442 0  -0.4906311993153011 -0.5380519337330318 0  -0.5319151236343942 0.5610340701502295 0  -0.3492448427637153 0.2242372176230919 0  1.101084670418347 -0.3819430866711396 0  1.10085579138347 0.3827620940547057 0  0.5114738231755741 -0.2037878442320408 0  0.0378548298353058 0.2177192870939484 0  -0.68351177520046 0.1879874044068832 0  -0.2205094860969659 -0.1665034527494929 0  1.17295745818125 0.0006108973493657318 0  1.665541930433108 -2.306912664895724e-05 0  0.907508075581543 -0.4502492687918292 0  0.9634798364340638 -0.1896322339999175 0  0.7699032415972596 -0.2579384161206076 0  0.6686744128126767 -0.100554612780368 0  0.6127026519601571 -0.36117164757228 0  1.137021064299799 -0.190666094660887 0  0.9994162303155147 0.001644758010335187 0  -1.145352206220951 0.1701183635700213 0  -1.413859324131283 0.1745959976324259 0  -1.277482561727735 -0.006833229238648594 0  -1.135744970546073 -0.1903011229322492 0  -1.404252088456406 -0.1858234888698444 0  -1.597220538418949 -0.2843085084653953 0  -1.747755693638209 -0.1128035986621925 0  -1.747755693638219 0.1104480034859294 0  -1.597220538418967 0.2819529132891387 0  -0.154521052082018 -0.3798503240003511 0  -0.3555703427061332 -0.3522776932412622 0  -0.2895819086911859 -0.5656245644921211 0  -0.4133711169773747 -0.1519837557433414 0  -0.5484319735865418 -0.3377579962351108 0  -1.455482947237287 -0.4677764021589958 0  -1.465090182912182 0.4589045060978081 0  0.4199862593764998 -0.3971986299838336 0  0.3426009485889036 -0.1880252715361387 0  0.2511133847898288 -0.3814360572879312 0  -1.100969321519695 0.4092383816739789 0  -0.9645925591161468 0.2278091548029043 0  1.62003039343183 -0.3216074839470194 0  1.43579655552137 -0.4585269817556586 0  1.435109917946279 0.4583054192635382 0  1.619343755856739 0.3213859214549047 0  -0.85182234321746 -0.6937325770293555 0  -1.072489445319615 -0.627381990483283 0  -1.081504078972709 0.6252116293055613 0  -0.8608369768705514 0.6915622158516382 0  0.8693742953548055 -0.6886486236261325 0  0.6442756369302858 -0.738196566007527 0  0.644275636930262 0.7381965660075314 0  0.8693742953547762 0.6886486236261405 0  0.01339502629816219 -0.7957666981708436 0  -0.2170556
[...]
<PointData  Vectors="f_614"> 
<DataArray  type="Float64"  Name="f_614"  NumberOfComponents="3" format="ascii">-2.7724335104480680e-02 1.6092163629582536e-03 0.0000000000000000e+00  -2.7753069292943560e-02 -1.7487691375287723e-04 0.0000000000000000e+00  -2.8556465909024855e-02 -2.5546357755259147e-03 0.0000000000000000e+00  -2.8241346523899737e-02 -4.6629331269707891e-03 0.0000000000000000e+00  -2.7870739793860101e-02 -6.8234009830962904e-03 0.0000000000000000e+00  -2.6955329865163375e-02 -8.6886564142169935e-03 0.0000000000000000e+00  -2.6006105175354226e-02 -1.0473115877650719e-02 0.0000000000000000e+00  -2.4419772338397309e-02 -1.1733872309020347e-02 0.0000000000000000e+00  -2.4067205318076663e-02 -1.3673240582692805e-02 0.0000000000000000e+00  -2.2858643829172645e-02 -1.6614543602895354e-02 0.0000000000000000e+00  -2.0015262401427036e-02 -1.6228651545829816e-02 0.0000000000000000e+00  -1.8351723427956337e-02 -1.7178667871557210e-02 0.0000000000000000e+00  -1.6269415938327748e-02 -1.7419636973863374e-02 0.0000000000000000e+00  -1.4315872093447365e-02 -1.7659577509935201e-02 0.0000000000000000e+00  -1.2342193719883179e-02 -1.7760916144842293e-02 0.0000000000000000e+00  -1.0275301632939372e-02 -1.7398355490092960e-02 0.0000000000000000e+00  -8.9937127942174167e-03 -1.7887741488812760e-02 0.0000000000000000e+00  -6.8094202477449097e-03 -1.8841055806439574e-02 0.0000000000000000e+00  -4.2977026170444646e-03 -1.7000747484635894e-02 0.0000000000000000e+00  -2.3833420253417405e-03 -1.6326936416939712e-02 0.0000000000000000e+00  -3.8097662479396276e-04 -1.5079203540257760e-02 0.0000000000000000e+00  1.4821888642424519e-03 -1.3827186196525581e-02 0.0000000000000000e+00  3.2917007078344185e-03 -1.2361838273798598e-02 0.0000000000000000e+00  5.0321243984033310e-03 -1.0592191068473762e-02 0.0000000000000000e+00  6.4123235195305550e-03 -8.8230546432292688e-03 0.0000000000000000e+00  7.8407070426846134e-03 -7.4818515746942101e-03 0.0000000000000000e+00  9.2210201628514753e-03 -5.4157516510980443e-03 0.0000000000000000e+00  1.0385688685527824e-02 -3.2997807522545082e-03 0.0000000000000000e+00  1.1371145826296458e-02 -1.0752267301916837e-03 0.0000000000000000e+00  1.2160520389717438e-02 1.2313632316134440e-03 0.0000000000000000e+00  1.2742867691669593e-02 3.5849221714349035e-03 0.0000000000000000e+00  1.3113007806801023e-02 6.0285672269341384e-03 0.0000000000000000e+00  1.3179294865855359e-02 8.3459122782574714e-03 0.0000000000000000e+00  1.3129064220445850e-02 1.0563231255583816e-02 0.0000000000000000e+00  1.2794214956074126e-02 1.2958055697538296e-02 0.0000000000000000e+00  1.2205302459425591e-02 1.5144705144133947e-02 0.0000000000000000e+00  1.1378017590203378e-02 1.7219310135194191e-02 0.0000000000000000e+00  1.0322764468315433e-02 1.9113075527854916e-02 0.0000000000000000e+00  9.0559650687116449e-03 2.0789404942877111e-02 0.0000000000000000e+00  7.6059459640318060e-03 2.2269127730108113e-02 0.0000000000000000e+00  5.9593091337179476e-03 2.3387898414870129e-02 0.0000000000000000e+00  4.2545086749512691e-03 2.4193399669727833e-02 0.0000000000000000e+00  2.4262039126055229e-03 2.4772762836058112e-02 0.0000000000000000e+00  5.6153050094034549e-04 2.4947608653060116e-02 0.0000000000000000e+00  -1.2991839474813208e-03 2.4787085857850975e-02 0.0000000000000000e+00  -3.1081958494239221e-03 2.4259102763247119e-02 0.0000000000000000e+00  -4.8197812759834232e-03 2.3406193553233090e-02 0.0000000000000000e+00  -6.3914305972547995e-03 2.2145809551384153e-02 0.0000000000000000e+00  -7.7424503404838526e-03 2.0746827423841378e-02 0.0000000000000000e+00  -8.9841241459924209e-03 1.9042867320656947e-02 0.0000000000000000e+00  -9.9409224613650898e-03 1.7002057372879770e-02 0.0000000000000000e+00  -1.0654367889542514e-02 1.4818326056907329e-02 0.0000000000000000e+00  -1.1108111480936100e-02 1.2484242745859301e-02 0.0000000000000000e+00  -1.1293989745349772e-02 1.0023581267350397e-02 0.0000000000000000e+00  -1.1222500594539232e-02 7.5686239148650865e-03 0.0000000000000000e+00  -1.0845795320789980e-02 4.8252932157947055e-03 0.0000000000000000e+00  -1.0175056892963837e-02 2.7844141627021775e-03 0.0000000000000000e+00  -9.5883859777590886e-03 5.3312642561573296e-04 0.0000000000000000e+00  -8.5717170880185416e-03 -1.9508722991172190e-03 0.0000000000000000e+00  -7.3808352242932850e-03 -4.1955688764188934e-03 0.0000000000000000e+00  -6.0281693424209110e-03 -6.2823717500252885e-03 0.0000000000000000e+00  -4.4838874512367378e-03 -8.3575977312378841e-03 0.0000000000000000e+00  -2.8853383705773348e-03 -9.9356752437635247e-03 0.0000000000000000e+00  -8.7658270727688343e-04 -1.2465578691402855e-02 0.0000000000000000e+00  1.2874892718809023e-03 -1.2984604384281976e-02 0.0000000000000000e+00  2.7075663061472762e-03 -1.3312194269457388e-02 0.0000000000000000e+00  4.6678032366413670e-03 -1.4372611516645286e-02 0.0000000000000000e+00  6.6042985015600623e-03 -1.4972602660536495e-02 0.0000000000000000e+00  8.6299881864759648e-03 -1.5538124546287524e-02 0.0000000000000000e+00  1.0491894502599387e-02 -1.5482666992326337e-02 0.0000000000000000e+00  1.2763643885689001e-02 -1.6104578122727402e-02 0.0000000000000000e+00  1.3655858153434919e-02 -1.3540577158885401e-02 0.0000000000000000e+00  1.4648774667163827e-02 -1.4375428076823352e-02 0.0000000000000000e+00  1.8388470860464429e-02 -1.6617098251677110e-02 0.0000000000000000e+00  2.0334455137692428e-02 -1.5928491735886816e-02 0.0000000000000000e+00  2.2704104356915566e-02 -1.5501397270008013e-02 0.0000000000000000e+00  2.4370098702404051e-02 -1.4293037729179696e-02 0.0000000000000000e+00  2.6657860800080185e-02 -1.3425979894130167e-02 0.0000000000000000e+00  2.7112490562682591e-02 -1.0903445998922193e-02 0.0000000000000000e+00  3.1331089078893974e-02 -1.0997576791327618e-02 0.0000000000000000e+00  2.9441018252892418e-02 -5.1123252666172812e-03 0.0000000000000000e+00  2.6231226436161305e-02 -2.6093875493130637e-03 0.0000000000000000e+00  2.9038784017585528e-02 -1.4029964067819999e-03 0.0000000000000000e+00  2.8113143605033510e-02 6.9125141828922339e-04 0.0000000000000000e+00  2.8922566107761252e-02 2.6842000040272840e-03 0.0000000000000000e+00  2.7919103621468880e-02 4.6673278631510435e-03 0.0000000000000000e+00  2.8810926704462437e-02 6.7373604015115753e-03 0.0000000000000000e+00  2.5656541048215610e-02 7.8556845831032149e-03 0.0000000000000000e+00  2.9083151634963861e-02 1.0385379699335087e-02 0.0000000000000000e+00  3.1052364616779769e-02 1.6559280369325365e-02 0.0000000000000000e+00  2.6351279973430598e-02 1.6141960376020871e-02 0.0000000000000000e+00  2.5868612686006924e-02 1.8676852509295117e-02 0.0000000000000000e+00  2.3366247929240004e-02 1.9384704683279682e-02 0.0000000000000000e+00  2.1579232689041116e-02 2.0492696434952579e-02 0.0000000000000000e+00  1.9066476370016936e-02 2.0788256186041860e-02 0.0000000000000000e+00  1.7059869045736153e-02 2.1446388372763203e-02 0.0000000000000000e+00  1.3042509876199111e-02 1.9001946563759562e-02 0.0000000000000000e+00  1.1830491948523201e-02 1.7587480119985722e-02 0.0000000000000000e+00  1.0985347013145873e-02 2.0323838040725059e-02 0.0000000000000000e+00  8.5819086521688424e-03 1.9494810968557104e-02 0.0000000000000000e+00  6.6473155430556586e-03 1.9486448735819551e-02 0.0000000000000000e+00  4.5168196455350742e-03 1.8793895557122808e-02 0.0000000000000000e+00  2.4915205833700152e-03 1.8098912986974934e-02 0.0000000000000000e+00  4.3658521373371949e-04 1.6928377655909859e-02 0.0000000000000000e+00  -1.0645192088269717e-03 1.6636888378661428e-02 0.0000000000000000e+00  -3.4319229438138175e-03 1.5999152529015771e-02 0.0000000000000000e+00  -5.6065772071315729e-03 1.3048850485101257e-02 0.0000000000000000e+00  -7.3187898871779006e-03 1.1302288568677281e-02 0.0000000000000000e+00  -8.9952922027180006e-03 8.9554281227668016e-03 0.0000000000000000e+00  -1.0472214514329592e-02 6.6079618316989457e-03 0.0000000000000000e+00  -1.1773251969599779e-02 4.0918512070410584e-03 0.0000000000000000e+00  -1.2862881277030570e-02 1.3961430990285123e-03 0.0000000000000000e+00  -1.3626797273575802e-02 -9.5071269239893966e-04 0.0000000000000000e+00  -1.4508969427655697e-02 -3.5963677457414257e-03 0.0000000000000000e+00  -1.4936557709113851e-02 -7.0713432035565908e-03 0.0000000000000000e+00  -1.5027082514547660e-02 -9.9428307627031799e-03 0.0000000000000000e+00  -1.4845334052877484e-02 -1.2950300929870286e-02 0.0000000000000000e+00  -1.4359909395670859e-02 -1.5799175863725892e-02 0.0000000000000000e+00  -1.3578305861006544e-02 -1.8518622968365907e-02 0.0000000000000000e+00  -1.2514913483489116e-02 -2.1150007660604101e-02 0.0000000000000000e+00  -1.1070063724584500e-02 -2.3353635368157679e-02 0.0000000000000000e+00  -9.5419736918047008e-03 -2.5197771953572395e-02 0.0000000000000000e+00  -7.7130841931961147e-03 -2.7006164160941124e-02 0.0000000000000000e+00  -5.6868096290710870e-03 -2.8320567794770383e-02 0.0000000000000000e+00  -3.5135422696263509e-03 -2.9263899432898723e-02 0.0000000000000000e+00  -1.2438314569817412e-03 -2.9770689141839293e-02 0.0000000000000000e+00  1.0654983613623756e-03 -2.9852163565930585e-02 0.0000000000000000e+00  3.3620090972916604e-03 -2.9487233244240709e-02 0.0000000000000000e+00  5.5858657030524086e-03 -2.8698659473551772e-02 0.0000000000000000e+00  7.6753314562673465e-03 -2.7497939532272479e-02 0.0000000000000000e+00  9.5984422155688236e-03 -2.5938818026683026e-02 0.0000000000000000e+00  1.1304829256987921e-02 -2.4033035964328781e-02 0.0000000000000000e+00  1.2761863915522385e-02 -2.1842407003620432e-02 0.0000000000000000e+00  1.3942556220536606e-02 -1.9391137502163380e-02 0.0000000000000000e+00  1.4832778727282534e-02 -1.6801678764950177e-02 0.0000000000000000e+00  1.5401066136993978e-02 -1.3862947061556948e-02 0.0000000000000000e+00  1.5587702310658126e-02 -1.1350953079113438e-02 0.0000000000000000e+00  1.5743861266860153e-02 -8.6229134485074164e-03 0.0000000000000000e+00  1.5463435472468640e-02 -5.6430322222984549e-03 0.0000000000000000e+00  1.4933456837448180e-02 -2.8264496999071851e-03 0.0000000000000000e+00  1.4159589664604191e-02 -7.3344478331173235e-05 0.0000000000000000e+00  1.3157017351052352e-02 2.5698387981588026e-03 0.0000000000000000e+00  1.1947662977076834e-02 5.0823530270440289e-03 0.0000000000000000e+00  1.0503043484049126e-02 7.4977370942226982e-03 0.0000000000000000e+00  8.9991689347202891e-03 9.1772571119970690e-03 0.0000000000000000e+00  7.5151948715879982e-03 1.1273886109567923e-02 0.0000000000000000e+00  5.6734409812423617e-03 1.3317712773623893e-02 0.0000000000000000e+00  3.7526686214895098e-03 1.5042091477486044e-02 0.0000000000000000e+00  1.7780504161437974e-03 1.6523753407894592e-02 0.0000000000000000e+00  -3.4362539177456566e-04 1.7994718962611525e-02 0.0000000000000000e+00  -2.3645628152749727e-03 1.8838891462216917e-02 0.0000000000000000e+00  -5.0180905936655336e-03 2.0932554878731628e-02 0.0000000000000000e+00  -7.3347778087050671e-03 2.0080583690516563e-02 0.0000000000000000e+00  -8.6949774358472901e-03 1.9669133781944473e-02 0.0000000000000000e+00  -1.0863732013088198e-02 2.0161460374268796e-02 0.0000000000000000e+00  -1.2937823302137266e-02 2.0175729092494370e-02 0.0000000000000000e+00  -1.4997593697150416e-02 2.0053972429663128e-02 0.0000000000000000e+00  -1.7193901516344940e-02 1.9930373309169712e-02 0.0000000000000000e+00  -1.8952225937748979e-02 1.9063771014904245e-02 0.0000000000000000e+00  -2.1954072869371191e-02 1.9605888456125389e-02 0.0000000000000000e+00  -2.3245576726571984e-02 1.6663300534261096e-02 0.0000000000000000e+00  -2.3669834044131779e-02 1.4780491341783084e-02 0.0000000000000000e+00  -2.5384841558341295e-02 1.3604689084433030e-02 0.0000000000000000e+00  -2.6455915010967637e-02 1.1885519068063548e-02 0.0000000000000000e+00  -2.7497829717856449e-02 1.0073762975628944e-02 0.0000000000000000e+00  -2.8041360099147008e-02 7.9661202003026479e-03 0.0000000000000000e+00  -2.8380750995893888e-02 5.8387514979558646e-03 0.0000000000000000e+00  -2.7924239890830781e-02 3.5281945740808125e-03 0.0000000000000000e+00  1.2727740275500076e-03 1.5394845516648124e-02 0.0000000000000000e+00  -1.7408518494974735e-03 -9.7370256318504993e-05 0.0000000000000000e+00  5.3797913730750310e-03 4.6686543530373558e-03 0.0000000000000000e+00  9.5376298214126858e-05 -1.9178158910633833e-02 0.0000000000000000e+00  -3.4056008535064534e-03 -9.2709105613003758e-04 0.0000000000000000e+00  -1.7756295264114697e-02 -6.1664648990768138e-03 0.0000000000000000e+00  7.2540061525115784e-03 -2.5825957959558585e-03 0.0000000000000000e+00  2.1355435980533754e-02 2.1871859480324589e-03 0.0000000000000000e+00  -1.7262185408214684e-02 8.2323466634318544e-03 0.0000000000000000e+00  1.2445863949520304e-02 1.0517073431222563e-02 0.0000000000000000e+00  1.5052500431294918e-02 1.7169036932002456e-03 0.0000000000000000e+00  9.1339242866685429e-03 -1.0726065887338235e-04 0.0000000000000000e+00  1.4160983079311020e-02 -6.7188875534437533e-03 0.0000000000000000e+00  2.3052376489182563e-03 -1.3553484992942195e-02 0.0000000000000000e+00  -4.7527500967104964e-03 -7.9532685203043824e-03 0.0000000000000000e+00  1.0805161509736233e-03 1.0115989138716499e-02 0.0000000000000000e+00  -1.0396286807471136e-02 3.7271794935259518e-04 0.0000000000000000e+00  -1.3921501283408605e-02 3.9566394584795766e-04 0.0000000000000000e+00  1.6617068295784248e-04 -8.6315662961077670e-03 0.0000000000000000e+00  1.8867343388170373e-03 7.6501191923689961e-03 0.0000000000000000e+00  5.9470825474271455e-03 4.9821335836594495e-03 0.0000000000000000e+00  -1.0162257059434529e-02 8.3410998137562354e-03 0.0000000000000000e+00  -1.1136117677053955e-02 -7.2264135472737117e-03 0.0000000000000000e+00  -8.4174182114650879e-03 -1.5419430702898291e-03 0.0000000000000000e+00  -2.2646141445255286e-03 1.6575523787745825e-03 0.0000000000000000e+00  1.0525324414228102e-02 1.6688423398720897e-03 0.0000000000000000e+00  1.7941433908773006e-03 -6.2982291363390648e-03 0.0000000000000000e+00  -1.6684237647659909e-02 7.8405856729680211e-04 0.0000000000000000e+00  -2.2299514129800468e-02 1.2811714334338912e-03 0.0000000000000000e+00  -5.9330254395636431e-03 5.1377893924101714e-03 0.0000000000000000e+00  -1.3181182393201594e-02 3.7675742204756738e-03 0.0000000000000000e+00  -9.9778028518902780e-03 1.8565768431871429e-03 0.0000000000000000e+00  -1.1911950935037718e-02 5.9982172286784908e-04 0.0000000000000000e+00  -5.6016295556392034e-03 -1.4858181204691189e-03 0.0000000000000000e+00  -1.4759821415788363e-02 5.1723893074051234e-03 0.0000000000000000e+00  -1.5219580435661788e-02 5.8273659006663036e-04 0.0000000000000000e+00  1.5698041426166702e-02 -1.9337964885481511e-03 0.0000000000000000e+00  1.8745941313876805e-02 -3.2179801757000318e-03 0.0000000000000000e+00  1.7946615306776045e-02 2.0347902595921645e-03 0.0000000000000000e+00  1.4752131195091408e-02 5.6343354182392894e-03 0.0000000000000000e+00  1.7972711662902641e-02 7.4205544278706237e-03 0.0000000000000000e+00  1.9544373349650073e-02 1.1015575387691160e-02 0.0000000000000000e+00  2.4073685962349690e-02 6.6401683347500576e-03 0.0000000000000000e+00  2.4357129670133367e-02 -1.8433525281788933e-03 0.0000000000000000e+00  2.0328950281717710e-02 -6.5941078500910558e-03 0.0000000000000000e+00  8.4697185836048899e-04 -1.2934358130633955e-02 0.0000000000000000e+00  2.6481219726533140e-03 -8.4418097246994044e-03 0.0000000000000000e+00  -6.2850313019451878e-04 -1.5107163038956897e-02 0.0000000000000000e+00  5.7137240065329407e-03 -2.8140809137477104e-03 0.0000000000000000e+00  5.1322219032782701e-03 -3.6197136387440924e-03 0.0000000000000000e+00  1.2489505239600072e-02 1.4508211316447587e-02 0.0000000000000000e+00  1.4208400667530607e-02 -1.0334698999047926e-02 0.0000000000000000e+00  -2.4635130781327386e-03 -6.6493020852014554e-03 0.0000000000000000e+00  -6.6577212283253605e-03 -4.0512787418961714e-03 0.0000000000000000e+00  -1.0175516097475157e-03 -1.0565302955294580e-02 0.0000000000000000e+00  1.0696507704848134e-02 -5.4760779061895672e-03 0.0000000000000000e+00  1.3064482441111320e-02 -1.3879447069745489e-03 0.0000000000000000e+00  -1.8857172216612997e-02 1.2185705430349298e-02 0.0000000000000000e+00  -1.2613109918303965e-02 1.4315499308978944e-02 0.0000000000000000e+00  -1.3662757427107730e-02 -1.2250660347325170e-02 0.0000000000000000e+00  -1.9547469796382933e-02 -9.6994161069512645e-03 0.0000000000000000e+00  -3.2396767735450339e-03 2.4994132837856085e-03 0.0000000000000000e+00  1.7858035591272262e-03 9.9392894648152891e-03 0.0000000000000000e+00  3.9343249805656013e-03 -7.1690409209289761e-03 0.0000000000000000e+00  -7.6808841161042597e-04 -8.4687504653423965e-04 0.0000000000000000e+00  3.3494024572406828e-03 3.9332687995205593e-03 0.0000000000000000e+00  6.6182203324767720e-03 -5.0075398706837882e-03 0.0000000000000000e+00  4.8191407964514156e-03 2.8945145738905925e-03 0.0000000000000000e+00  1.5231719753661592e-03 -4.3715764064813228e-03 0.0000000000000000e+00  1.0924371315042772e-03 -2.4733076391247246e-02 0.0000000000000000e+00  -3.4858697556455170e-03 -2.2401936945552679e-02 0.0000000000000000e+00  -1.8329308945318386e-03 1.9037092515684612e-02 0.0000000000000000e+00  1.7361041020852795e-03 2.0237685009671113e-02 0.0000000000000000e+00  8.3398438245362516e-04 -6.6239496431844220e-03 0.0000000000000000e+00  -1.2475711643444283e-02 -3.5693268776101667e-04 0.0000000000000000e+00  -1.1135748893023283e-02 -1.7075566234379105e-03 0.0000000000000000e+00  -7.4050995125245289e-03 8.9349902699252374e-04 0.0000000000000000e+00  8.3136948717171030e-03 1.1915135004474087e-03 0.0000000000000000e+00  1.2479578735260764e-02 1.8099644670844747e-03 0.0000000000000000e+00  1.1925036275317128e-02 4.3570089311967177e-03 0.0000000000000000e+00  -8.1789175184287001e-03 -2.0280770902877463e-04 0.0000000000000000e+00  -1.8861859360854209e-02 -1.1907774990497172e-02 0.0000000000000000e+00  -1.2564616772193905e-02 -2.2746435419703378e-03 0.0000000000000000e+00  6.0587932306030686e-03 1.3796601493473970e-02 0.0000000000000000e+00  8.2007592200524868e-03 -1.0240804678379789e-02 0.0000000000000000e+00  8.9051061643166309e-03 8.4774823154731560e-03 0.0000000000000000e+00  -1.3793236171485691e-02 -2.8246807743583517e-03 0.0000000000000000e+00  -7.2548861178787010e-03 -4.8813294751516882e-03 0.0000000000000000e+00  -1.5253575738751423e-02 -3.7505520647651593e-03 0.0000000000000000e+00  -4.4273875196056576e-03 4.0602507898276335e-03 0.0000000000000000e+00  -8.7089463755709716e-04 4.4532967662712286e-03 0.0000000000000000e+00  2.8919368782316424e-04 -1.3919395228297339e-02 0.0000000000000000e+00  1.6276255623359358e-03 -1.8411408922549832e-02 0.0000000000000000e+00  5.0694809267262221e-03 7.0575002532903630e-03 0.0000000000000000e+00  3.2400882798787390e-03 9.9851712235766374e-03 0.0000000000000000e+00  1.1260712813273828e-03 1.2704155944913422e-02 0.0000000000000000e+00  -1.1822091748452742e-02 -3.6429944789220510e-04 0.0000000000000000e+00  -1.4470971611123542e-03 -8.9185257098809145e-03 0.0000000000000000e+00  7.4134661705186075e-03 -1.3352012699109354e-02 0.0000000000000000e+00  5.1395310439182260e-03 -2.1522385611697545e-02 0.0000000000000000e+00  4.5320371989175864e-03 1.7087674558709742e-02 0.0000000000000000e+00  5.8969101450253147e-03 1.0328593269996715e-02 0.0000000000000000e+00  -3.0912842008510729e-03 -1.9119748051960998e-03 0.0000000000000000e+00  -1.2937295021136404e-03 7.0355461425975745e-03 0.0000000000000000e+00  1.6060220683360197e-03 1.4002545803958885e-02 0.0000000000000000e+00  -5.6357194125364876e-03 -1.5800892976436647e-02 0.0000000000000000e+00  -5.4150783476187968e-03 -6.0771383860874365e-03 0.0000000000000000e+00  2.4046234197769652e-03 -1.4717962700588800e-03 0.0000000000000000e+00  -3.3367650164045585e-03 5.9816982097346512e-03 0.0000000000000000e+00  -3.6705419898267005e-03 1.3898680538195965e-02 0.0000000000000000e+00  4.2311278100956376e-03 2.0889184862697588e-03 0.0000000000000000e+00  1.3184927534823128e-02 7.1754868898962158e-04 0.0000000000000000e+00  9.5938787343478240