<?xml version="1.0"?>
<VTKFile type="UnstructuredGrid"  version="0.1"  >
<UnstructuredGrid>
<Piece  NumberOfPoints="2549" NumberOfCells="4928">
<Points>
<DataArray  type="Float64"  NumberOfComponents="3"  format="ascii">1.458509079990612 0.03143000708902839 0  1.454634002390291 0.05412674631926453 0  1.429139422520212 0.06444674873262057 0  1.419386833781671 0.07867326097193666 0  1.405171321084276 0.08998205159933798 0  1.396690194592658 0.1048219544234799 0  1.384611071530005 0.1188204624954284 0  1.381322671068553 0.1405617655392706 0  1.35082292302303 0.1465795939249886 0  1.334391371560219 0.130627922975434 0  1.347631780775445 0.1773586755325317 0  1.335898780304777 0.1958083429094395 0  1.330689156191281 0.2260342906431311 0  1.321537246392855 0.2543228694488306 0  1.31154196261118 0.28347047264261 0  1.302290592886836 0.3199328057297859 0  1.276759398058738 0.3381041187196006 0  1.268031464571056 0.3456493105924827 0  1.264968216369901 0.4062711492220431 0  1.249590934779304 0.4426950486020365 0  1.235357542344352 0.4889783881811968 0  1.217892862278083 0.5340541317219829 0  1.198922183808428 0.5820583233791247 0  1.178191852595669 0.6348157403776308 0  1.150057803705668 0.6864165103391837 0  1.122534223057242 0.7285518188398183 0  1.093774572171069 0.7837733761441311 0  1.060535926723662 0.8389291374970447 0  1.023556958614806 0.895194739484734 0  0.9825327352719301 0.9520777254327015 0  0.9372719299018146 1.008916600371027 0  0.887693965835849 1.066574472950712 0  0.8320278959645462 1.120843780287254 0  0.7739502729213144 1.172254322282864 0  0.7101943618831956 1.226241322280441 0  0.6413724487679378 1.275284808657413 0  0.5678056578931652 1.32127344796757 0  0.4897111536469575 1.362873055640055 0  0.407423055670126 1.399376755376966 0  0.3215075259892153 1.431197752990301 0  0.2317154271812897 1.45513109200591 0  0.1407632117086036 1.472111560613651 0  0.04738679384580201 1.48384302414176 0  -0.04669994919874453 1.486842204781222 0  -0.1406973597810524 1.482458971675291 0  -0.2336608493793396 1.470064452625574 0  -0.3246850989525529 1.45048590745971 0  -0.4129272996237381 1.422106141262271 0  -0.4967984983466259 1.390170268844904 0  -0.5784588257830346 1.351420787027134 0  -0.6544660114327662 1.305225727804033 0  -0.7256163814181757 1.255361639780313 0  -0.7915751192935838 1.201670543660755 0  -0.852166290328307 1.144602087432109 0  -0.9075772782386942 1.086723271710902 0  -0.9568545266800083 1.022271667343333 0  -1.000195859266912 0.9705783479116914 0  -1.044963615292188 0.9137906041344261 0  -1.081092873062606 0.8514468005838816 0  -1.113552347719952 0.7927370288667441 0  -1.142554783153988 0.7360392258657494 0  -1.167484090624288 0.6784601444134308 0  -1.19098541049971 0.6294443231282925 0  -1.206064608308794 0.5606480315282398 0  -1.217652208689104 0.5298885313237532 0  -1.243258447665357 0.5015767233538063 0  -1.257739733296543 0.4576019094514965 0  -1.272037818891106 0.4212050016366319 0  -1.283863489219398 0.3839950244964855 0  -1.29806039003866 0.3573485245778533 0  -1.303310670849927 0.3158207280928461 0  -1.334428328696499 0.3347719714512369 0  -1.362342516981824 0.2854913421290649 0  -1.335181237245013 0.2067763558648133 0  -1.341397697897668 0.1832210397098507 0  -1.337409841902482 0.1523689436577526 0  -1.34490713023943 0.1344740778652697 0  -1.337610070809896 0.107512707585905 0  -1.363002021183997 0.1104155198863371 0  -1.311226164668401 0.05972582315131833 0  -1.374501819886564 0.1234014992844837 0  -1.458646991719172 0.1187815731114417 0  -1.419719146950452 0.08693970520524837 0  -1.447601300979239 0.07104331533087717 0  -1.435106130707788 0.0524257813286367 0  -1.451391144408203 0.0336164362594629 0  -1.424169485097266 0.01724709156628797 0  -1.469871315702373 -0.01631483417055984 0  -1.381491402267963 -0.02041215489550277 0  -1.316670001818957 0.04890119985625313 0  -1.377869415505299 -0.008100785958666701 0  -1.353025073037718 -0.00495660182117974 0  -1.364513590652758 -0.03502745766804 0  -1.359379991665484 -0.05488263184259606 0  -1.366162908203795 -0.08830376529279071 0  -1.361130491438786 -0.1124542831874621 0  -1.393714876180318 -0.1951296529311178 0  -1.370080012386073 -0.2557308979923182 0  -1.338043031641747 -0.2334133078194776 0  -1.335364801179797 -0.278986337542144 0  -1.322587564286161 -0.3068793176697089 0  -1.312808890297433 -0.3465703747503822 0  -1.300245253867513 -0.3848225838594567 0  -1.287613547126149 -0.430948141587331 0  -1.263589874327887 -0.4585548595585465 0  -1.255973597303486 -0.4916329175124253 0  -1.244134606525879 -0.5686401191960114 0  -1.222853278826096 -0.6209466514947461 0  -1.200506401519126 -0.6838310935856536 0  -1.173930849478393 -0.7456199789589529 0  -1.143622851218376 -0.8096308062885231 0  -1.108918601606008 -0.8761095587312362 0  -1.067612663575702 -0.9347638660698394 0  -1.028400895954614 -0.9982692167563778 0  -0.9801174562575379 -1.077010757818193 0  -0.9250782584764519 -1.14302492913826 0  -0.8645677476515043 -1.210773242567266 0  -0.7979902389595022 -1.274518862569771 0  -0.7255086559568388 -1.334846149590892 0  -0.6474195550309134 -1.392575871791738 0  -0.5617909472548096 -1.441084486507334 0  -0.4744613444391335 -1.481714781930012 0  -0.3811949215543299 -1.520797833391509 0  -0.2840243997630393 -1.549389941522514 0  -0.1839465457604149 -1.569896736812943 0  -0.08196092493937525 -1.581042995577691 0  0.02081051354811844 -1.583050069647082 0  0.1233315793324731 -1.575506747615856 0  0.224421610176138 -1.558856893933285 0  0.3228627113844813 -1.533322983501322 0  0.4180183124447271 -1.499951229670048 0  0.5088921065507701 -1.458966032914932 0  0.5948339064346106 -1.411568308679015 0  0.6753031862896882 -1.35822294065017 0  0.7500100605396527 -1.301312085315824 0  0.8183253103539289 -1.236701896618273 0  0.8790671038708723 -1.179535983428968 0  0.9390778224779811 -1.117245297590756 0  0.9904080193712268 -1.04911406230183 0  1.036691650267662 -0.983231758016365 0  1.078018752333048 -0.9176277709009131 0  1.114663439723202 -0.8531858162877358 0  1.14702931463714 -0.7902850680199981 0  1.174532981678026 -0.7282415547864213 0  1.200582128221126 -0.6794984933710526 0  1.226689322775215 -0.6215013841062097 0  1.245440548523697 -0.5633888995543188 0  1.262238170036971 -0.5103255129531661 0  1.277526039237693 -0.4607645235789047 0  1.289429150279055 -0.4101211707567171 0  1.302724853123929 -0.370369899659586 0  1.303018371877686 -0.3047997193365862 0  1.309160471994544 -0.2952751694675633 0  1.333156299861354 -0.2755816672170245 0  1.34041816782204 -0.2365848431616109 0  1.348452261848222 -0.2051792838519107 0  1.355529434339298 -0.1745824262720268 0  1.358512489516063 -0.1420640960809702 0  1.368394211706677 -0.1219852484021541 0  1.352058773118997 -0.07220321881063219 0  1.366870356450874 -0.08817998549589984 0  1.395969903378583 -0.08105748755542541 0  1.396745126549801 -0.0576569233004437 0  1.406444390963767 -0.04238323071536429 0  1.412454721006228 -0.02649841893267119 0  1.423292818640227 -0.01415788844562163 0  1.432571354417414 -0.0003038635284195179 0  1.451290826650335 0.01136773923426724 0  -0.09043155183238721 0.9077004220054459 0  0.6799304680592427 -0.5204572137312403 0  -0.7971063568533736 -0.380085239929528 0  -0.08666979974257591 -0.9677706114745268 0  0.6474158390746678 0.5004482037224851 0  1.070999342944522 0.1086980012940074 0  -0.7785298667486494 0.4164878487670988 0  -1.128891320643269 0.04036288037126484 0  1.082023201217733 -0.06879187306819909 0  -1.019431217010676 -0.1638797921098793 0  -0.7149812947686741 0.02222241195676389 0  -0.4278357891337883 -0.1395589934808107 0  -1.005147267856705 0.2203193179128973 0  0.3735228684078599 -0.8553259195040286 0  0.08090092367585551 -0.3275999746274317 0  0.3104124803565005 0.7848612387392599 0  0.2253734733039574 0.1925453924051599 0  0.5539706805082052 0.01040643011364737 0  -0.4873856781637807 -0.7066372129538867 0  -0.4950648435793739 0.7104504606261866 0  -0.2330908867592789 0.3215445141789405 0  0.9026030872262664 -0.2190309809337131 0  0.88335349300351 0.241621204459516 0  0.3470711237328966 -0.233903919823639 0  -0.006375915174958426 0.2500933569918894 0  -0.4779390327350674 0.2205819813575099 0  -0.1854676229938936 -0.2895157405686153 0  0.8470934416253925 0.0159245412418814 0  1.230004545085443 0.02499981043260673 0  0.7916286724650656 -0.3499018197213181 0  0.7060348678168451 -0.116046800006252 0  0.5750242796462777 -0.2216771496521087 0  0.4360191211127212 -0.08883934475560532 0  0.5032958247015789 -0.3901915327376925 0  0.8487433022726827 -0.08964286600063068 0  0.7021587999314954 0.01302633203507406 0  -0.8387498346161325 0.1323489009030652 0  -1.047727657844627 0.1117448223257846 0  -0.9269627315172654 0.03290876801901087 0  -0.8476174081419439 -0.08025550929476309 0  -1.053222563790339 -0.04089078520049627 0  -1.215494496433596 -0.06916055167455232 0  -1.277566514686067 0.01688718912589457 0  -1.272030504768427 0.07444502441993539 0  -1.200170728229168 0.1531617443420477 0  -0.1379786329734147 -0.6324745062392956 0  -0.3038492104277482 -0.5171567894267974 0  -0.3018573604527976 -0.8606863425967479 0  -0.3017749449747782 -0.2069462735899764 0  -0.4481932645381381 -0.4084555282418314 0  -1.211547298026348 -0.1844128998846289 0  -1.187582357374475 0.2570549162726533 0  0.3718707695692198 -0.5270678113354246 0  0.2125673308481739 -0.2671518094637983 0  0.2312393299119476 -0.5877896306335284 0  -0.8920531554093798 0.3022837350687139 0  -0.7094268864381914 0.2007008597448077 0  1.251726248576107 -0.08360542476050967 0  1.189446752429496 -0.1789273858771636 0  1.168259186948081 0.2190347093548435 0  1.237557236396135 0.1319442006160128 0  -0.9150972802007614 -0.6449159113304179 0  -1.037610469555411 -0.4332552431236094 0  -1.004661794196037 0.4851912988186672 0  -0.8758387036598175 0.6750216875990164 0  0.9347923120977876 -0.6118269673854966 0  0.7735377527989727 -0.8360000791068197 0  0.7383994806109537 0.794730053778832 0  0.8991237479986465 0.6032662719370522 0  
[...]
<CellData  Scalars="f_5071"> 
<DataArray  type="Float64"  Name="f_5071"  format="ascii">1.1179655336340617e-01   1.1178997563370380e-01   1.1180134362383545e-01   1.1179375432953798e-01   1.1179518093532149e-01   1.1179899516695713e-01   1.1179562139217566e-01   1.1179264553860675e-01   1.1179880066202154e-01   1.1179564149799638e-01   1.1179765018891366e-01   1.1179655717513685e-01   1.1179192964429482e-01   1.1179453749565249e-01   1.1179387208521423e-01   1.1178727208725463e-01   1.1179729287510687e-01   1.1179637624040854e-01   1.1179863517391503e-01   1.1179744371372068e-01   1.1179080527835585e-01   1.1179879874937571e-01   1.1178613859600002e-01   1.1179262744843475e-01   1.1180163082009488e-01   1.1179266205011675e-01   1.1179675306901213e-01   1.1180320707017946e-01   1.1179768397560727e-01   1.1178799554607628e-01   1.1179968827090010e-01   1.1179830525564817e-01   1.1179677517933030e-01   1.1179813555641488e-01   1.1179527678922370e-01   1.1179486186397791e-01   1.1180013418183468e-01   1.1179833041436417e-01   1.1179774603243547e-01   1.1180105660161954e-01   1.1179745084695282e-01   1.1179758875190041e-01   1.1178873336055094e-01   1.1178694445630626e-01   1.1179551432123425e-01   1.1179694031517727e-01   1.1178116565292753e-01   1.1177489032280449e-01   1.1178181129944616e-01   1.1180409395225983e-01   1.1177884954665482e-01   1.1176812971162958e-01   1.1180576735129395e-01   1.1178215270755880e-01   1.1179754394835048e-01   1.1180847446609515e-01   1.1178829741030369e-01   1.1179682630495187e-01   1.1176673897721730e-01   1.1175712920936402e-01   1.1177601707317580e-01   1.1179852175528743e-01   1.1174403021919739e-01   1.1174909592761624e-01   1.1176713320651262e-01   1.1172543994953309e-01   1.1173092084647349e-01   1.1182284342055925e-01   1.1172901725361592e-01   1.1182795833065980e-01   1.1177398738533532e-01   1.1177250646042015e-01   1.1172146097378040e-01   1.1171958671988579e-01   1.1170388539360725e-01   1.1182492895814453e-01   1.1179023563843550e-01   1.1177574231011979e-01   1.1178957594962315e-01   1.1179566345047848e-01   1.1172469365039574e-01   1.1182051664584509e-01   1.1178700819571082e-01   1.1177988350795622e-01   1.1177876396847310e-01   1.1178392760797150e-01   1.1178953090745242e-01   1.1178427697903347e-01   1.1178937827947436e-01   1.1178584739197155e-01   1.1179833827913313e-01   1.1179483292396093e-01   1.1177924378970663e-01   1.1179252114225066e-01   1.1179118526651236e-01   1.1178773330481719e-01   1.1169213649686816e-01   1.1173511628638388e-01   1.1168700788240012e-01   1.1181094471646072e-01   1.1175472130218533e-01   1.1180218976552404e-01   1.1179693437288615e-01   1.1179561752179686e-01   1.1169583843099357e-01   1.1177184668823927e-01   1.1169708751393755e-01   1.1179127490611995e-01   1.1177556718503104e-01   1.1179401928278049e-01   1.1177306394409929e-01   1.1178756430609317e-01   1.1179275925352504e-01   1.1179485732430304e-01   1.1178851048379693e-01   1.1179513489833370e-01   1.1179590318890741e-01   1.1178706320074436e-01   1.1180073405368392e-01   1.1179922150915426e-01   1.1178607415866577e-01   1.1179980305277820e-01   1.1179056805350086e-01   1.1179524225861275e-01   1.1179564954659436e-01   1.1180410781523228e-01   1.1179590202375637e-01   1.1180705379279277e-01   1.1181165503330352e-01   1.1180149236290372e-01   1.1179890271625620e-01   1.1181362426332668e-01   1.1179555898575558e-01   1.1179565914963155e-01   1.1179316598311778e-01   1.1179980114359729e-01   1.1180205540100643e-01   1.1179621528122291e-01   1.1180024312417595e-01   1.1180034372448260e-01   1.1181748068617388e-01   1.1179961380647674e-01   1.1179451094971408e-01   1.1182209186192338e-01   1.1179535441297531e-01   1.1179880130581722e-01   1.1179382664637912e-01   1.1179444199082371e-01   1.1179804801032985e-01   1.1179283349235605e-01   1.1180002857811827e-01   1.1180036808756634e-01   1.1179235257331525e-01   1.1179726121985391e-01   1.1179103138677662e-01   1.1179139107427698e-01   1.1179089722106354e-01   1.1179251091982111e-01   1.1178836572756370e-01   1.1179896658586702e-01   1.1179957323876510e-01   1.1179499875087169e-01   1.1179851607290665e-01   1.1179881675591029e-01   1.1179490490382653e-01   1.1179851646550582e-01   1.1179419360930812e-01   1.1179418045357294e-01   1.1179724209001200e-01   1.1179498875164694e-01   1.1179433081399899e-01   1.1179754864951588e-01   1.1179800903065833e-01   1.1179280192898823e-01   1.1179618942117824e-01   1.1179625382441707e-01   1.1182771084679645e-01   1.1179827495590229e-01   1.1179009662324930e-01   1.1183407349015072e-01   1.1178510060277837e-01   1.1178764663395249e-01   1.1178460969397241e-01   1.1179908183630484e-01   1.1179942101421761e-01   1.1178904142063720e-01   1.1179483920955463e-01   1.1179878457885097e-01   1.1183945228523604e-01   1.1179234350931314e-01   1.1178076706737190e-01   1.1184475151439337e-01   1.1180462629407883e-01   1.1180054798006872e-01   1.1180475231138734e-01   1.1179780509099660e-01   1.1180057043014478e-01   1.1179891163964156e-01   1.1179941875366775e-01   1.1179978118399464e-01   1.1180461174589056e-01   1.1180011866430575e-01   1.1180404153192718e-01   1.1180004882465557e-01   1.1180085303103798e-01   1.1180076889642551e-01   1.1180123935320073e-01   1.1180094344099979e-01   1.1179980420577086e-01   1.1180109090284601e-01   1.1179970161530801e-01   1.1179961714301620e-01   1.1180230449171007e-01   1.1180070004004818e-01   1.1180218551066255e-01   1.1180195229941073e-01   1.1180086461351313e-01   1.1180349713013751e-01   1.1180047951885584e-01   1.1180149179131969e-01   1.1180074680801612e-01   1.1180157215005701e-01   1.1180134190520113e-01   1.1180140814074253e-01   1.1180338522133214e-01   1.1179946105286141e-01   1.1180214291521787e-01   1.1180178061476184e-01   1.1179934087723341e-01   1.1180374370800644e-01   1.1179866990566918e-01   1.1180006691000195e-01   1.1180269049123666e-01   1.1179714773370972e-01   1.1179632795105494e-01   1.1180044743841161e-01   1.1180367752139610e-01   1.1179953011165167e-01   1.1180110599291139e-01   1.1180175314646933e-01   1.1180182061025408e-01   1.1180209967787558e-01   1.1180236308015493e-01   1.1180252679965592e-01   1.1180213653802702e-01   1.1180330554264216e-01   1.1180234162123243e-01   1.1180275925460766e-01   1.1180344890491566e-01   1.1180139135139586e-01   1.1180241625419865e-01   1.1180310790986539e-01   1.1180319063097820e-01   1.1180323140509499e-01   1.1180373169949451e-01   1.1180377079189947e-01   1.1179383449050030e-01   1.1179556504219951e-01   1.1180123649465525e-01   1.1180060535093853e-01   1.1179801334021564e-01   1.1180495261687529e-01   1.1179966952252081e-01   1.1179800398656338e-01   1.1180042296251538e-01   1.1179811815978706e-01   1.1180170018440207e-01   1.1180288864921001e-01   1.1180069232485804e-01   1.1179881425884887e-01   1.1180405154383727e-01   1.1180160488137765e-01   1.1179842403246874e-01   1.1180232863223824e-01   1.1179923168673463e-01   1.1179930450979557e-01   1.1180228653232448e-01   1.1180018390551510e-01   1.1180255420370191e-01   1.1180256707607554e-01   1.1180026498158728e-01   1.1180206863641445e-01   1.1180098517533320e-01   1.1180098649934664e-01   1.1180037216493544e-01   1.1180397716301926e-01   1.1180114652558105e-01   1.1179994337461212e-01   1.1180234669575388e-01   1.1179863921708362e-01   1.1180296261615227e-01   1.1180131013681963e-01   1.1179915798269631e-01   1.1180039760729620e-01   1.1179922752759526e-01   1.1179898407883991e-01   1.1180335283718155e-01   1.1179836440084166e-01   1.1180351148324859e-01   1.1179856341419117e-01   1.1180169139992223e-01   1.1180008636349777e-01   1.1180102800492968e-01   1.1180119495702869e-01   1.1180229621362728e-01   1.1180096374102350e-01   1.1180378974814942e-01   1.1180310516626794e-01   1.1180185317152457e-01   1.1180359070257577e-01   1.1180251629294277e-01   1.1180204013262049e-01   1.1180266010343530e-01   1.1180174976005632e-01   1.1180202048756076e-01   1.1180271396696012e-01   1.1180383042081883e-01   1.1180303599861359e-01   1.1180337700997545e-01   1.1180390312462270e-01   1.0401213064190173e-01   1.1273556211463653e-01   1.1345084463736235e-01   1.0531161020416330e-01   1.1171001017698333e-01   1.1218673977169810e-01   1.1275113607028123e-01   1.0842157314478729e-01   1.1139743276796606e-01   1.1174547650569432e-01   1.1180249994031065e-01   1.1202225985791674e-01   1.0523709268827870e-01   1.0360318817903778e-01   1.0981716189110542e-01   1.0673168957640439e-01   1.1175392390472080e-01   1.1165618479506721e-01   1.1171418486919783e-01   1.1208271781204578e-01   1.1170516143485275e-01   1.1197525110736395e-01   1.1131596804397703e-01   1.1215326258546099e-01   1.1179445963960197e-01   1.1178773797947093e-01   1.1158094365540897e-01   1.1150597003726687e-01   1.0885913912215797e-01   1.1135839708243665e-01   1.1442524369554494e-01   1.1416232202528209e-01   1.1182807618674115e-01   1.1180521714379046e-01   1.1179945287539160e-01   1.1184618211884453e-01   1.1179196493865710e-01   1.1180275579924173e-01   1.1178278493383381e-01   1.1178758557475277e-01   1.1180968221289952e-01   1.1179976974200311e-01   1.1180414475387118e-01   1.1180548697552747e-01   1.1185518184722736e-01   1.1177758174377007e-01   1.1180260630124572e-01   1.1179050301299938e-01   8.6320901173563280e-02   8.9243638965885178e-02   1.1239067719986584e-01   8.2698422146991926e-02   1.1117782006606194e-01   1.0902673037935942e-01   1.1010907711092828e-01   9.7372065800620855e-02   1.1093304572814811e-01   1.1165062017491957e-01   1.1187520809268968e-01   1.0981816758394257e-01   1.1000105502530469e-01   1.1959046533372941e-01   1.1113802056142848e-01   1.0018296618609662e-01   1.0223096243617784e-01   1.2040095705726242e-01   1.0970184944429154e-01   1.0891272604899102e-01   1.0947402439874443e-01   1.0932282793706950e-01   1.1157723823451610e-01   9.5487496673684252e-02   1.0993539417648401e-01   1.1153873753915396e-01   1.1188835348101007e-01   1.1106631460573070e-01   7.6894932458731635e-02   8.1694624675793207e-02   1.1099455885080220e-01   7.9721765792410026e-02   1.1160858868201873e-01   1.1175098629395844e-01   1.1178823639206960e-01   1.1164753797366020e-01   1.1166802375292699e-01   1.1203850864054442e-01   1.1230199699435756e-01   1.1157785005416719e-01   1.1171387318895326e-01   1.1164720018874638e-01   1.1175335021190834e-01   1.1207797365770127e-01   1.1405330304928693e-01   1.1083178825688333e-01   1.0839141789878717e-01   1.1376886679595985e-01   1.1179180916116409e-01   1.1178644585482390e-01   1.1179944026039339e-01   1.1185668841534688e-01   1.1178408059584574e-01   1.1179927452653199e-01   1.1179314142727932e-01   1.1179551365972129e-01   1.1180528620100605e-01   1.1180044645918021e-01   1.1180388587288391e-01   1.1180922329449627e-01   1.1184980063137920e-01   1.1180894081461508e-01   1.1179741633115740e-01   1.1182790455513301e-01   1.0367167100147900e-01   1.0075543988241806e-01   1.0944394699302883e-01   1.0424617897515591e-01   1.1306172512508753e-01   1.1218331633729141e-01   1.1148250987313654e-01   1.0936774685476659e-01   1.1205019059078955e-01   1.1175330567433894e-01   1.1181498767064497e-01   1.1137080034316821e-01   1.0624154520283834e-01   1.1326848661309208e-01   1.1357007799544394e-01   1.0259788555205786e-01   1.1179657074474268e-01   1.1179254947512468e-01   1.1179458780171257e-01   1.1179876219385772e-01   1.1179253791428101e-01   1.1179923089007848e-01   1.1179343213650875e-01   1.1179557710827738e-01   1.1179408121713191e-01   1.1179010205966809e-01   1.1179257684246074e-01   1.1179894057256337e-01   1.1179861547309558e-01   1.1179472176925623e-01   1.1179789968054889e-01   1.1179876637727283e-01   1.1178822203038202e-01   1.1179808254641042e-01   1.1179105480242206e-01   1.1179208377814809e-01   1.1179491300055677e-01   1.1179231015507902e-01   1.1179661933669535e-01   1.1179733178042292e-01   1.1179274668305506e-01   1.1179650971441192e-01   1.1179173173962449e-01   1.1179376918162699e-01   1.1179349875484774e-01   1.1179810858047907e-01   1.1179379531200533e-01   1.1179505611440045e-01   1.1178973545352494e-01   1.1178730642693385e-01   1.1178250996852042e-01   1.1179463861945017e-01   1.1179097983632949e-01   1.1179167184585653e-01   1.1179232898992288e-01   1.1179268071848601e-01   1.1177483326623877e-01   1.1179438967564344e-01   1.1172355861460125e-01   1.1175750482488163e-01   1.1179384253704061e-01   1.1179146064303898e-01   1.1176914065530537e-01   1.1177875594046087e-01   1.1179887933789955e-01   1.1179487570138756e-01   1.1179735084980269e-01   1.1179882087945503e-01   1.1179451933176195e-01   1.1179886026848472e-01   1.1179375297995878e-01   1.1179616273109787e-01   1.1179788223202236e-01   1.1179237934580537e-01   1.1178453268602005e-01   1.1178869247122432e-01   1.1179950184918451e-01   1.1179267169619399e-01   1.1179093440055153e-01   1.1179548417965718e-01   1.1180777828417265e-01   1.1179918419573295e-01   1.1180004674050881e-01   1.1180184050306387e-01   1.1179534606098099e-01   1.1179379043859626e-01   1.1178983651831928e-01   1.1179526044386516e-01   1.1180290291445164e-01   1.1179329782411757e-01   1.1180409322223359e-01   1.1179615710852725e-01   1.1180453459108496e-01   1.1179199202247384e-01   1.1179755329787289e-01   1.1180610495853058e-01   1.1178913105619888e-01   1.1179716662194286e-01   1.1177763984095260e-01   1.1178556505980825e-01   1.1180555447244357e-01   1.1177767685777763e-01   1.1180667823022297e-01   1.1180186984143277e-01   1.1176577363119596e-01   1.1181434001821862e-01   1.1174992292482043e-01   1.1176691766568164e-01   1.1178482278832494e-01   1.1180079894794417e-01   1.1177721473938322e-01   1.1178673514515067e-01   1.1180742308146027e-01   1.1178272764986230e-01   1.1181271323793432e-01   1.1180058081499870e-01   1.1177137643573530e-01   1.1180748976673691e-01   1.1174431270405043e-01   1.1176548362764249e-01   1.1182418026532180e-01   1.1175308085309844e-01   1.1182400087177251e-01   1.1181628935889107e-01   1.1181450802358221e-01   1.1174574204441655e-01   1.1182101823318971e-01   1.1181913399751295e-01   1.1180875563298379e-01   1.1177977972742653e-01   1.1180561536789303e-01   1.1181190451527138e-01   1.1176912235929574e-01   1.1181131113579508e-01   1.1176036691743560e-01   1.1177384724261620e-01   1.1181429354970297e-01   1.1175587848734315e-01   1.1181719516573684e-01   1.1181409128275832e-01   1.1181179538607390e-01   1.1176925234741808e-01   1.1181337221567750e-01   1.1180340936472538e-01   1.0865873020585999e-01   1.1478804248234278e-01   1.1357984226685372e-01   1.1260917816025054e-01   1.1151872917660682e-01   1.1128713253033012e-01   1.1205324515254725e-01   1.1092710563633459e-01   1.1167121095862742e-01   1.1177872365693939e-01   1.1159504598601659e-01   1.1185249927265992e-01   1.1166649398320454e-01   1.1200185800797609e-01   1.1186300072549310e-01   1.1182746411235359e-01   1.1186213385167208e-01   1.1179530239757882e-01   1.1180238024705635e-01   1.1179725556473533e-01   1.1179610990993799e-01   1.1181824772609394e-01   1.1180183802620097e-01   1.1176218549093649e-01   1.1180440136088524e-01   1.1179721504544630e-01   1.1180520579993905e-01   1.1180229438695895e-01   1.1175038988848983e-01   1.1177470429439819e-01   1.1181903878186292e-01   1.1178087358965448e-01   1.1180558198767701e-01   1.1179649237284749e-01   1.1179618195214912e-01   1.1178675240257163e-01   1.1180476484020642e-01   1.1179636032678332e-01   1.1180291240671740e-01   1.1180608615577618e-01   1.1180047079099725e-01   1.1180477201221513e-01   1.1180364468528790e-01   1.1180295304303092e-01   1.1179832601793346e-01   1.1180433855998978e-01   1.1180306257421534e-01   1.1180316614755843e-01   1.1179413379262881e-01   1.1180771723656591e-01   1.1179788505904663e-01   1.1179463663140843e-01   1.1180421033715549e-01   1.1180014428753036e-01   1.1180481705539491e-01   1.1180766548554845e-01   1.1179829500349266e-01   1.1180549379164521e-01   1.1180357303221515e-01   1.1180339129116271e-01   1.1180158938719412e-01   1.1180424503069326e-01   1.1180291628929660e-01   1.1180236091035797e-01   1.1180247241871873e-01   1.1180387070715274e-01   1.1180308273227678e-01   1.1180239232136292e-01   1.1180431567778404e-01   1.1180085329592532e-01   1.1180338948188577e-01   1.1180689567813774e-01   1.1180357585743297e-01   1.1180481348063431e-01   1.1180371248948165e-01   1.1179931739347290e-01   1.1179632794392805e-01   1.1180733598282391e-01   1.1179982232758910e-01   1.1179527063282088e-01   1.1180444495569018e-01   1.1179853844656662e-01   1.1180363325453667e-01   1.1180175619967066e-01   1.1179763610053209e-01   1.1181702070698366e-01   1.1176807447000768e-01   1.1180276106868864e-01   1.1180302027243276e-01   1.1179403679653063e-01   1.1184994398659642e-01   1.1179566772553641e-01   1.1181820792686560e-01   1.1177458174008457e-01   1.1175393552400699e-01   1.1177952008903543e-01   1.1180332830716087e-01   1.1180359850245211e-01   1.1180328246046188e-01   1.1179948638531184e-01   1.1180236989025071e-01   1.1179766033844973e-01   1.1180463703803277e-01   1.1180506173745026e-01   1.1180277844654818e-01   1.1180392184762387e-01   1.1180389526183983e-01   1.1180180032041734e-01   1.1178968727151258e-01   1.1179718552824329e-01   1.1179766815760214e-01   1.1180576076906382e-01   1.1183541624410688e-01   1.1201270767414478e-01   1.1186351147842805e-01   1.1161259738577554e-01   1.1203845779609492e-01   1.1130839389344060e-01   1.1147028759341540e-01   1.1093568301746537e-01   1.1183335828505908e-01   1.1179888968322113e-01   1.1164356609847118e-01   1.1169065088291665e-01   1.1295583412295677e-01   1.1483670568824669e-01   1.1319025806140255e-01   1.0698369778563956e-01   1.1181426168718632e-01   1.1180198491520035e-01   1.1179714470044938e-01   1.1180527589111050e-01   1.1179776981903197e-01   1.1178585890008251e-01   1.1179409518038086e-01   1.1179962218244699e-01   1.1180069623914415e-01   1.1179817029604500e-01   1.1179907522137343e-01   1.1178673948607364e-01   1.1180559562584350e-01   1.1179963951057115e-01   1.1178466786971726e-01   1.1180226171849209e-01   1.1179699537921091e-01   1.1178125529705978e-01   1.1179209752103945e-01   1.1179397173415961e-01   1.1177764517251776e-01   1.1179462388339324e-01   1.1177491726185070e-01   1.1178421720140118e-01   1.1179213123897311e-01   1.1175958081196130e-01   1.1179953537462271e-01   1.1179598528837875e-01   1.1179408236457399e-01   1.1177850711927638e-01   1.1179407071297555e-01   1.1179913728537494e-01   1.1179839145320665e-01   1.1179502946517818e-01   1.1180069722703137e-01   1.1177733227897110e-01   1.1178953272569613e-01   1.1176687590431794e-01   1.1178191852494838e-01   1.1178727496243512e-01   1.1179672412814469e-01   1.1178905186057286e-01   1.1179971353836093e-01   1.1178896869858755e-01   1.1176599334557470e-01   1.1179409448355865e-01   1.1177840274671058e-01   1.1175894628139774e-01   1.1179778314874868e-01   1.1179913643925916e-01   1.1176917508172676e-01   1.1178762759503638e-01   1.1179704619915946e-01   1.1175808846757901e-01   1.1180847715127752e-01   1.1180440463060586e-01   1.1175835467139948e-01   1.1180592111191255e-01   1.1173815960591969e-01   1.1172275153334689e-01   1.1178237825948628e-01   1.1179714472099919e-01   1.1170810913801694e-01   1.1174334520835263e-01   1.1179647003295254e-01   1.1179977407445946e-01   1.1179355272995514e-01   1.1179834499658188e-01   1.1180066787840352e-01   1.1179655458261013e-01   1.1180164814844759e-01   1.1180220656758184e-01   1.1179524498442973e-01   1.1180057509834411e-01   1.1179537582067699e-01   1.1179737062225541e-01   1.1179621991159569e-01   1.1180259493058914e-01   1.1179501017098398e-01   1.1179560340765191e-01   1.1180098213889444e-01   1.1179775950650392e-01   1.1180195663871087e-01   1.1180200411900050e-01   1.1179667927837646e-01   1.1180196936375994e-01   1.1179594899481091e-01   1.1179634193802344e-01   1.1180229657331495e-01   1.1179790083422886e-01   1.1180120760568719e-01   1.1180258555137777e-01   1.1180194762