<?xml version="1.0"?>
<VTKFile type="UnstructuredGrid"  version="0.1"  >
<UnstructuredGrid>
<Piece  NumberOfPoints="2549" NumberOfCells="4928">
<Points>
<DataArray  type="Float64"  NumberOfComponents="3"  format="ascii">1.474982489104603 0.02405063314213723 0  1.471206875415728 0.04716155967089977 0  1.447807798851305 0.05652176813188693 0  1.435839644055828 0.07240265435785669 0  1.431031282928838 0.08360537907610514 0  1.430636576708461 0.1065508608295325 0  1.413065885605834 0.1137763222755274 0  1.399955424168137 0.105677145539949 0  1.388086582677857 0.1506314829938341 0  1.519408158620386 0.6659331548884887 0  1.386972769686774 0.174463228683128 0  1.380951320142675 0.2155693247245838 0  1.346254487405496 0.2320884163864658 0  1.339803229653517 0.2596487420542134 0  1.336672633308927 0.2905212414967402 0  1.318407044366854 0.3230782794269484 0  1.310323398617604 0.357459245359554 0  1.290470528130737 0.3683231671158645 0  1.276658948506006 0.4201194942148487 0  1.264151879851834 0.4604534946553375 0  1.244067960344448 0.5048257268087991 0  1.225755114070616 0.5504623297236583 0  1.202803289031356 0.5979268716380524 0  1.17993939596172 0.6493653904719785 0  1.155215704956755 0.7069441206387254 0  1.112641762197088 0.737094367393913 0  1.086340999419369 0.7927534663238096 0  1.054126004771384 0.8506395722693834 0  1.012691852031187 0.9032918486058563 0  0.9696343012193929 0.9591379911901616 0  0.9223274950933895 1.013586473793177 0  0.8699275994789274 1.068564196671731 0  0.8141597089574621 1.121058201977666 0  0.7550939146442266 1.170440459760413 0  0.6891071019880075 1.220794116291398 0  0.6203686608392683 1.267480899573751 0  0.5464786707325466 1.310540233099903 0  0.4686050465457164 1.349649463267295 0  0.3870815837108407 1.383492250337286 0  0.3016710748554126 1.412297857579459 0  0.213792788429716 1.434903825638155 0  0.1244643126910856 1.450080453715319 0  0.03257806522587332 1.459780390841769 0  -0.05914433787938279 1.461514398955327 0  -0.151131595480163 1.456234070125329 0  -0.2416484335021998 1.443115336525133 0  -0.330559559195773 1.423806650399298 0  -0.416604947655834 1.395575138026407 0  -0.4986768495261778 1.36435093987406 0  -0.5781442156458529 1.326406733331148 0  -0.652960061655022 1.28159569337513 0  -0.7232790572215736 1.233942484447097 0  -0.7885877290959175 1.181880407284964 0  -0.8495575282985712 1.127200574862856 0  -0.9042921011662827 1.07085058988142 0  -0.9578704793759476 1.010666639745322 0  -1.000397887859353 0.9578680704335296 0  -1.045741210242229 0.9048722603176782 0  -1.085114358883654 0.8431573740477329 0  -1.119903790968245 0.7856715758009627 0  -1.148624953714218 0.7293326724036749 0  -1.172432465345449 0.6689515189094108 0  -1.205454005279488 0.6301131937843529 0  -1.220197337216157 0.5528849670305354 0  -1.221140185497868 0.5124584369249509 0  -1.264892014077601 0.5009023187583621 0  -1.279637729287214 0.4505109268102234 0  -1.289316116416458 0.412005276881459 0  -1.296772541764115 0.3733550337634722 0  -1.322197293441363 0.3513476797476801 0  -1.331188272370332 0.3017488561379134 0  -1.311375470196143 0.3285494641558483 0  -1.377374535012197 0.2895313737782054 0  -1.372466047212541 0.1944643923205176 0  -1.370088992690122 0.1695007110339631 0  -1.374535038747588 0.1363612885082907 0  -1.388560962045343 0.1193775460703809 0  -1.399132746948819 0.08655084489000459 0  -1.398626879354806 0.1118795921986551 0  -1.388946383650048 0.02266273902014647 0  -1.407993680980931 0.09630096734665777 0  -1.437955913860505 0.1585780866235303 0  -1.474079730290372 0.07867126631759494 0  -1.482058862153047 0.04892955732912512 0  -1.50479441432338 0.02117750994499807 0  -1.488591735486798 -0.005374760564841366 0  -1.472730905602875 -0.0387116026160199 0  -1.283752632934689 -0.5229792986539007 0  -1.395058474643212 -0.04279777462423261 0  -1.704686806842516 0.5043443099133794 0  -1.441167842696677 -0.06237640321053951 0  -1.450482413320562 0.01352838919972444 0  -1.408694910361102 -0.1298298729617463 0  -1.394770797612703 -0.087567808500705 0  -1.376027018222902 -0.1007847754971773 0  -1.381442573461755 -0.1226945664576738 0  -1.398350342814101 -0.2418865845765545 0  -1.316937099731301 -0.3426107354823708 0  -1.3609303643572 -0.2390293434742233 0  -1.35811033093225 -0.2963759059198512 0  -1.323126959216191 -0.3230749552561756 0  -1.329361973945022 -0.3607688196842639 0  -1.328361695453701 -0.4005309133106686 0  -1.347186037537874 -0.4482515831408564 0  -1.239524052732361 -0.4666956679211284 0  -1.209716081082979 -0.4995616981622232 0  -1.248667760884269 -0.6155053374690722 0  -1.199003931982994 -0.6373492287736493 0  -1.187972089100835 -0.7006945879775103 0  -1.163204090841686 -0.7653153677739859 0  -1.140756209630241 -0.8275671199080479 0  -1.098304475331609 -0.9091939385513028 0  -1.033043795083095 -0.932350857129483 0  -1.007700449625937 -1.00519937144153 0  -0.9557451446119273 -1.088705023742172 0  -0.8983420450961085 -1.142128216060521 0  -0.8367151363676889 -1.210142902985355 0  -0.7703285968227851 -1.269209193904665 0  -0.6980442056683904 -1.326130637381639 0  -0.6186873173264664 -1.378435755336932 0  -0.5368635291863373 -1.426585979177101 0  -0.4514225637943236 -1.463917680193463 0  -0.3587584977624799 -1.499298072493925 0  -0.2651122659455227 -1.526421605723431 0  -0.1674431051242098 -1.544849432274777 0  -0.06864624049372499 -1.554971167400942 0  0.03110093143319174 -1.556075280210769 0  0.1304458650792628 -1.548411244284549 0  0.2284994266182131 -1.531847754700753 0  0.3240168541450701 -1.506989278082891 0  0.4165052365934087 -1.474791361722182 0  0.5050863625265466 -1.435364673579713 0  0.5890099167954602 -1.389832167893175 0  0.6682818979370145 -1.338778460892537 0  0.7410174229289448 -1.283819359549655 0  0.811538567094679 -1.22374053232946 0  0.8714243638988288 -1.167423309758059 0  0.9286506088605284 -1.1064571879302 0  0.9829763909526036 -1.041771775096333 0  1.030325093412955 -0.9783870338325465 0  1.073144091335186 -0.9143797135630547 0  1.112736651956491 -0.8528794938997022 0  1.144416373101254 -0.7891860323993155 0  1.170414794608177 -0.7276050868633221 0  1.208569360833069 -0.6871234300998669 0  1.231339989181375 -0.6252594771562173 0  1.252742259053112 -0.5691053116162071 0  1.272399865770506 -0.5153002494459281 0  1.28136052830129 -0.4648867456293223 0  1.287078942966613 -0.4111934977860529 0  1.315213742026064 -0.3836762600053316 0  1.324432484108713 -0.308530917593542 0  1.28969244372356 -0.3142719826588591 0  1.350453840462775 -0.2756374330953678 0  1.365466934593204 -0.2283554432535509 0  1.363622608055318 -0.1971628272102116 0  1.366876376147478 -0.1675706906099694 0  1.376434304457278 -0.1390151070455148 0  1.375264093861972 -0.1056672341219016 0  1.604780603933833 0.8243659676633178 0  1.411705569951234 -0.08573689867837087 0  1.40475814247909 -0.09279219958547304 0  1.411766035139004 -0.06173455922849707 0  1.431648931250613 -0.04857114748003925 0  1.430916487706692 -0.02927018149050718 0  1.440573838072629 -0.01790112300127504 0  1.447605837282189 -0.003682697773242069 0  1.467652822263301 0.003967230508487224 0  -0.09650291452130691 0.8822120202023394 0  0.6907007969153077 -0.5053861371337086 0  -0.8072691939969696 -0.3852707370803785 0  -0.07653749991771641 -0.9415486507059739 0  0.6537811638596642 0.4967453549165095 0  1.093578267246567 0.1155423208494837 0  -0.7953299407664377 0.4037707114032212 0  -1.158085614817778 0.02868750895373881 0  1.102990945296709 -0.06468826955786587 0  -1.039780157128256 -0.1757864974153557 0  -0.7344121683420767 0.01422289342747316 0  -0.4392520723573221 -0.1390364748861214 0  -1.029562800301022 0.2093822423553422 0  0.3803935389354859 -0.8300817881949615 0  0.08532820665780932 -0.3031177165709392 0  0.3074927329034314 0.7675100921384894 0  0.2210732465214625 0.1837208631209225 0  0.565165622290038 0.01741780387003148 0  -0.482405967949468 -0.6950274569550176 0  -0.5029724891738294 0.6889664306329734 0  -0.2387177559619495 0.3042957047367921 0  0.920430379100706 -0.2128972361295844 0  0.9004385667557891 0.2467575604133909 0  0.3550156301526046 -0.2134697794194937 0  -0.00872631078421761 0.2298128593100534 0  -0.4918027128873926 0.2087912719646563 0  -0.1882924268033822 -0.2788067194017311 0  0.8658193340941872 0.02205191756298569 0  1.252632857009132 0.03055697747014408 0  0.8060820887574689 -0.339935930960869 0  0.7218263058700906 -0.106898824107564 0  0.5879643089379455 -0.2071846714365703 0  0.4436807426491782 -0.07614278276677165 0  0.5155476192886066 -0.3699211425158689 0  0.8672235070056776 -0.08298655405106367 0  0.7177814369924461 0.01960422540188199 0  -0.8608592293016857 0.1223037799781053 0  -1.074676238676523 0.1005183994887323 0  -0.9505797379378171 0.02265581401128169 0  -0.867971338050698 -0.08916187016742398 0  -1.077974031915823 -0.05232235769848395 0  -1.241524261631967 -0.08088750364472484 0  -1.31522770418022 0.00382902040853815 0  -1.311729838743223 0.05897496132155038 0  -1.232110215624804 0.139995462421258 0  -0.1306945313867023 -0.6097071799793757 0  -0.3028933031305034 -0.5019711827200016 0  -0.2923137608076268 -0.8403625250619841 0  -0.3091423467773843 -0.2015208272726356 0  -0.4530770414779867 -0.4007494418027766 0  -1.23148517710557 -0.1988899424213473 0  -1.213765053700404 0.245044263979679 0  0.3839776726605234 -0.5013349142289675 0  0.2181266108585888 -0.2449219550824091 0  0.2439282742609864 -0.5594201080369782 0  -0.9129317431832421 0.2913294838726985 0  -0.7285640069436338 0.1901336335650258 0  1.272576947633976 -0.08056036044857394 0  1.209603213655056 -0.1787773931224314 0  1.191800270247633 0.2270349324437605 0  1.267340075810898 0.1398732012842745 0  -0.9133271145052034 -0.6526468696715063 0  -1.04766915807249 -0.4464916909713423 0  -1.022193681771345 0.475265844532075 0  -0.8863957964891501 0.6620458611311483 0  0.9419583013490372 -0.6057909655193199 0  0.7750695615001874 -0.8235644284718647 0  0.7336540665130138 0.7929560918553004 0  0.902720176432527 0.607581550280207 0  0.0433990
[...]
<CellData  Scalars="f_44033"> 
<DataArray  type="Float64"  Name="f_44033"  format="ascii">1.1179423032340345e-01   1.1179794311244434e-01   1.1179435797180308e-01   1.1179550423524010e-01   1.1179938264139677e-01   1.1179559402788955e-01   1.1180093166046493e-01   1.1180044672825509e-01   1.1179372379228930e-01   1.1179936242313473e-01   1.1179300591134243e-01   1.1179542240910573e-01   1.1179148858104331e-01   1.1180179935489892e-01   1.1179108864346884e-01   1.1178839380275432e-01   1.1179963639394529e-01   1.1179588834948756e-01   1.1180093778191409e-01   1.1180132723436577e-01   1.1179125142174325e-01   1.1180111757174044e-01   1.1178869396153542e-01   1.1179201474823396e-01   1.1180227162399391e-01   1.1179490312335288e-01   1.1179671012906561e-01   1.1180319096472498e-01   1.1180162762513542e-01   1.1178866034853020e-01   1.1180177370777108e-01   1.1180301749561440e-01   1.1179300403213413e-01   1.1179926732690201e-01   1.1179205261652869e-01   1.1179517265463457e-01   1.1180008618445109e-01   1.1179929445451525e-01   1.1179731973981147e-01   1.1180206733345824e-01   1.1179535435201254e-01   1.1179623732988637e-01   1.1178440454446424e-01   1.1178710765096249e-01   1.1179631644426022e-01   1.1179682556490374e-01   1.1178266078606959e-01   1.1177983250206501e-01   1.1178587794559655e-01   1.1180410989415995e-01   1.1178476548899385e-01   1.1177966541113878e-01   1.1180415538027196e-01   1.1179074093852262e-01   1.1179605751242050e-01   1.1180404688300091e-01   1.1179273156908348e-01   1.1179636881216713e-01   1.1177611743957111e-01   1.1177235359986797e-01   1.1178836340877411e-01   1.1179470124642187e-01   1.1176811802662495e-01   1.1177496494364864e-01   1.1178008312433896e-01   1.1176133700064461e-01   1.1175857310823591e-01   1.1181360514148404e-01   1.1176265456529039e-01   1.1181711090991721e-01   1.1178258053338387e-01   1.1178470798635010e-01   1.1175501764770018e-01   1.1175371615992605e-01   1.1174525311216239e-01   1.1181859906878214e-01   1.1179615049764932e-01   1.1178198772728720e-01   1.1179748252451800e-01   1.1180023024906285e-01   1.1175033165293415e-01   1.1182126941580788e-01   1.1178269267996961e-01   1.1178263810174842e-01   1.1179367941381686e-01   1.1178147297391115e-01   1.1179915399556768e-01   1.1179658683267502e-01   1.1178409474743251e-01   1.1180184978129190e-01   1.1178749124072329e-01   1.1178977653747406e-01   1.1178168635189990e-01   1.1180115988366543e-01   1.1178766687259352e-01   1.1178673018269432e-01   1.1173723988082089e-01   1.1174588709992654e-01   1.1172757084141861e-01   1.1181954953066076e-01   1.1175129716383704e-01   1.1182663554735323e-01   1.1177951623804343e-01   1.1178645757625089e-01   1.1172946233672229e-01   1.1174139739034003e-01   1.1168970684792505e-01   1.1179333610263857e-01   1.1179758556958172e-01   1.1178019416652950e-01   1.1177214840560039e-01   1.1178455204129360e-01   1.1179797776820939e-01   1.1179053292268053e-01   1.1179771351840721e-01   1.1179750719592205e-01   1.1179245957656420e-01   1.1179847179032977e-01   1.1179467730833172e-01   1.1179476767263812e-01   1.1179895546628854e-01   1.1179146880091419e-01   1.1178725843440228e-01   1.1179116513602688e-01   1.1179881171968399e-01   1.1179791276933285e-01   1.1179350823902683e-01   1.1179806943071620e-01   1.1181163090608806e-01   1.1180235294448519e-01   1.1179474964218203e-01   1.1181536583064851e-01   1.1179554018764756e-01   1.1179449878527210e-01   1.1179460496583980e-01   1.1180135930934787e-01   1.1179898481672418e-01   1.1179644694513399e-01   1.1179711809636574e-01   1.1179940789396255e-01   1.1181658514393601e-01   1.1180140187769651e-01   1.1179358166776691e-01   1.1181884039555232e-01   1.1179579343060692e-01   1.1179790941725279e-01   1.1179557655521123e-01   1.1179610956758229e-01   1.1179706268832149e-01   1.1179527223674555e-01   1.1179880240049679e-01   1.1179903575695734e-01   1.1179489272316642e-01   1.1179696851870841e-01   1.1179418507663154e-01   1.1179485946191027e-01   1.1179339631148970e-01   1.1179256171229485e-01   1.1179236839193625e-01   1.1180110462166193e-01   1.1179682341559902e-01   1.1179553235159204e-01   1.1179624313895055e-01   1.1179798768953847e-01   1.1179550424613302e-01   1.1179791126497082e-01   1.1179563852056434e-01   1.1179586425190427e-01   1.1179547440076885e-01   1.1179565329950299e-01   1.1179336806998100e-01   1.1179723169121418e-01   1.1179734423774244e-01   1.1179497632012303e-01   1.1179572937299559e-01   1.1179580295133504e-01   1.1182097121014783e-01   1.1180088047001460e-01   1.1179114236539038e-01   1.1182282535076556e-01   1.1179105408719509e-01   1.1179035009079769e-01   1.1179116409184428e-01   1.1180169537375977e-01   1.1179853996681390e-01   1.1179341549087676e-01   1.1179461237896997e-01   1.1179689561007999e-01   1.1182397693896219e-01   1.1179683512340839e-01   1.1178508706774178e-01   1.1182324104110120e-01   1.1180531090091111e-01   1.1179775548537299e-01   1.1180517179580209e-01   1.1179393544789147e-01   1.1179814089845715e-01   1.1179486067985848e-01   1.1179551824424816e-01   1.1179613037023073e-01   1.1180475542744979e-01   1.1179773377957532e-01   1.1180401548246773e-01   1.1179581676072642e-01   1.1179806185781747e-01   1.1179703946698845e-01   1.1179793801344061e-01   1.1179732225583157e-01   1.1179753067911791e-01   1.1179624581279132e-01   1.1179618048204418e-01   1.1179575159831837e-01   1.1179868751433740e-01   1.1179714371296062e-01   1.1179797006258436e-01   1.1179811477672788e-01   1.1179653520515197e-01   1.1179572431506866e-01   1.1179935546177575e-01   1.1179666385246013e-01   1.1179691221672404e-01   1.1179721670071793e-01   1.1179725339542881e-01   1.1179726962226827e-01   1.1180304210680157e-01   1.1179786775086102e-01   1.1180275777465830e-01   1.1179723892866793e-01   1.1179693236933212e-01   1.1179480412877933e-01   1.1179831209339293e-01   1.1179596909609575e-01   1.1180022519709552e-01   1.1180223391014008e-01   1.1180351721814606e-01   1.1180454341272056e-01   1.1179634353103957e-01   1.1179953559392891e-01   1.1180463509049073e-01   1.1180412192875779e-01   1.1179755238606967e-01   1.1179753069035878e-01   1.1179791603807353e-01   1.1179819141868420e-01   1.1179684180556608e-01   1.1179609977210865e-01   1.1179959008924965e-01   1.1179752218792988e-01   1.1179593128262129e-01   1.1179946759581104e-01   1.1180379868383940e-01   1.1180332713952622e-01   1.1179602274149486e-01   1.1179839669696343e-01   1.1180274445641605e-01   1.1180333325408891e-01   1.1180445396796812e-01   1.1180208969666557e-01   1.1179994126909915e-01   1.1180697295932709e-01   1.1179658832617831e-01   1.1179634044782998e-01   1.1179636347862884e-01   1.1179899692592854e-01   1.1180213623961598e-01   1.1179744745185854e-01   1.1180192369389180e-01   1.1179868216177748e-01   1.1180647000157551e-01   1.1180014008396434e-01   1.1179695905798855e-01   1.1180607300346547e-01   1.1179695051768952e-01   1.1179747072852166e-01   1.1179603823044137e-01   1.1179656489916343e-01   1.1179833878053892e-01   1.1179731646387600e-01   1.1179852177914304e-01   1.1179926870540591e-01   1.1179701775375886e-01   1.1179758508903961e-01   1.1179717533715014e-01   1.1179748721834087e-01   1.1179674026130154e-01   1.1179621685035478e-01   1.1179685463215260e-01   1.1180007004606883e-01   1.1180248316804085e-01   1.1179697272618180e-01   1.1180274670996519e-01   1.1179688628364547e-01   1.1179742845316486e-01   1.1179612705189976e-01   1.1179617707597740e-01   1.1179575074670495e-01   1.1180292540890535e-01   1.1179586695879763e-01   1.1180303520960604e-01   1.1179397506986384e-01   1.1179816670576162e-01   1.1179675822678414e-01   1.1179753079220409e-01   1.1179701158886012e-01   1.1180574264268552e-01   1.1180021151825670e-01   1.1179606237314355e-01   1.1180530832504230e-01   1.1179694824905502e-01   1.1179601165975819e-01   1.1179720635719298e-01   1.1180032841136432e-01   1.1179839074534362e-01   1.1179753051694546e-01   1.1179725789371638e-01   1.1179812261437881e-01   1.1180480701678522e-01   1.1179937382968309e-01   1.1179569382664516e-01   1.1180389840586717e-01   1.0376395143243802e-01   1.2345380241988381e-01   1.1411987268752809e-01   9.2051996058539434e-02   1.1238263632613847e-01   1.1306762101370614e-01   1.1204222560869019e-01   8.8000196671760469e-02   1.1132002340044779e-01   1.1180582617913185e-01   1.1190760264641220e-01   1.1134659436019886e-01   6.0595061080184948e-02   8.9130363198947987e-02   1.1495849152187554e-01   8.6159016212666459e-02   1.1181954823338089e-01   1.1195345392034330e-01   1.1187259947745815e-01   1.1162900745771941e-01   1.1196272153839061e-01   1.1148475368813683e-01   1.1126765394034706e-01   1.1103282646003750e-01   1.1183428470285550e-01   1.1186354502098551e-01   1.1180762923208556e-01   1.1183982340410815e-01   1.1402043484156801e-01   1.1466479350543210e-01   1.1176832008674499e-01   1.1154293098704660e-01   1.1176521580008543e-01   1.1178755719009460e-01   1.1180719239383048e-01   1.1175445553772168e-01   1.1180326878316196e-01   1.1180890375415832e-01   1.1179935109544518e-01   1.1178491018503299e-01   1.1179726017877080e-01   1.1179550084310176e-01   1.1179487989394477e-01   1.1179218631248410e-01   1.1177022674041028e-01   1.1179363701719026e-01   1.1179689718056339e-01   1.1179396501491386e-01   1.0952267628767912e-01   1.1339151391990487e-01   1.1236043726643803e-01   1.1157578533113789e-01   1.1180896109442454e-01   1.1207701340990105e-01   1.1219632527982822e-01   1.1109946162340502e-01   1.1162879767066644e-01   1.1167850144082586e-01   1.1178316123697574e-01   1.1165413939474510e-01   1.1133433149022405e-01   1.1233553698863133e-01   1.1222049665787610e-01   1.1027459947042911e-01   1.1489400247463341e-01   1.1304294206048482e-01   1.1337727169457172e-01   1.1131753385287700e-01   1.1160620428423224e-01   1.0990051881185184e-01   1.1128533699910396e-01   1.0906554413940307e-01   1.1188362432682286e-01   1.1198245300304280e-01   1.1163013049450436e-01   1.1214477287521665e-01   1.1133605646851708e-01   1.1289967527957448e-01   1.1083409009859448e-01   1.0862647946282707e-01   1.1180706692504513e-01   1.1168818153316164e-01   1.1174557928219417e-01   1.1191339664668452e-01   1.1175181619856975e-01   1.1186387968034778e-01   1.1190078038713977e-01   1.1228074819076234e-01   1.1179546287106487e-01   1.1181679055536682e-01   1.1179600847366758e-01   1.1165673163806603e-01   1.1050590964058883e-01   1.1082589148235752e-01   1.1193390506412236e-01   1.0766387647292797e-01   1.1183085337464109e-01   1.1179377884595684e-01   1.1178017804028580e-01   1.1181386431541099e-01   1.1179678057936392e-01   1.1179326264679219e-01   1.1179692570074644e-01   1.1180320871203875e-01   1.1179442308018130e-01   1.1179594394674644e-01   1.1179271065247018e-01   1.1179781892303291e-01   1.1180322160342242e-01   1.1179462617628602e-01   1.1179490532348668e-01   1.1178971449184079e-01   1.0306447303000871e-01   1.0445087205070261e-01   1.1214238901395400e-01   1.0350600970233055e-01   1.1253257803682176e-01   1.1221912388994426e-01   1.1090820329792078e-01   1.1294657870891336e-01   1.1170397180741130e-01   1.1186683204924545e-01   1.1183871678938274e-01   1.1162562904678125e-01   1.2193757931601225e-01   1.1968092867290522e-01   1.1271807577334961e-01   9.7413589218127719e-02   1.1179870581150486e-01   1.1179078239254309e-01   1.1179853618356705e-01   1.1179890908790090e-01   1.1178967313357495e-01   1.1180107405696080e-01   1.1178913377640118e-01   1.1179273331103001e-01   1.1179883937367671e-01   1.1178462687073484e-01   1.1179920690595764e-01   1.1180189164171714e-01   1.1179981393664934e-01   1.1179153855384300e-01   1.1180077068667177e-01   1.1180014902589676e-01   1.1177843615187952e-01   1.1180343448112508e-01   1.1178015931660686e-01   1.1178508366055870e-01   1.1180063861053605e-01   1.1178502922005121e-01   1.1180060281563121e-01   1.1180132148822133e-01   1.1178236888301962e-01   1.1180186591141228e-01   1.1178223232440206e-01   1.1178651952369099e-01   1.1178883240362578e-01   1.1180117520045543e-01   1.1178872462537437e-01   1.1179147147021011e-01   1.1179902369826947e-01   1.1177077422292904e-01   1.1179407810895707e-01   1.1180310297516695e-01   1.1176847471542344e-01   1.1180219695518646e-01   1.1177575942145440e-01   1.1177751320769205e-01   1.1178061852044438e-01   1.1177352706342777e-01   1.1168716212073444e-01   1.1175287267900369e-01   1.1180111682864305e-01   1.1177855752699410e-01   1.1176937550813242e-01   1.1178135229919769e-01   1.1180065314319443e-01   1.1179105105033645e-01   1.1180061477246134e-01   1.1180083623971672e-01   1.1178941103344088e-01   1.1180218354145743e-01   1.1178881290571867e-01   1.1179227088728509e-01   1.1180189058296840e-01   1.1178549650987314e-01   1.1178751028392767e-01   1.1179156897178687e-01   1.1180168916817514e-01   1.1178889112931166e-01   1.1179380463424680e-01   1.1179778773412236e-01   1.1180455260710079e-01   1.1180122079088745e-01   1.1179573705048627e-01   1.1179918498896121e-01   1.1179720204717246e-01   1.1178951986307782e-01   1.1179029892122273e-01   1.1179672034838625e-01   1.1179754127880003e-01   1.1179498954136756e-01   1.1179745873262238e-01   1.1179118949177033e-01   1.1180224940313684e-01   1.1179172147747607e-01   1.1179377840863715e-01   1.1180501676085913e-01   1.1178982302281490e-01   1.1179173117344754e-01   1.1177213570685146e-01   1.1178431554501418e-01   1.1180455275616209e-01   1.1177040399725524e-01   1.1180749915877107e-01   1.1179881521435434e-01   1.1174970291776483e-01   1.1181981125240351e-01   1.1172277629489012e-01   1.1175154807763960e-01   1.1178196091131830e-01   1.1179903849432085e-01   1.1176915580044852e-01   1.1178340243663805e-01   1.1179986764810569e-01   1.1178053136247176e-01   1.1180561675577774e-01   1.1179651773905130e-01   1.1176032792018442e-01   1.1180839939270243e-01   1.1170995572498062e-01   1.1175070336985235e-01   1.1182342302561060e-01   1.1172271367678038e-01   1.1182807005481767e-01   1.1182774780689896e-01   1.1181917646577998e-01   1.1171415387769774e-01   1.1183286360035677e-01   1.1182970620370450e-01   1.1180945678534099e-01   1.1177211610659850e-01   1.1180679617370472e-01   1.1181456113209050e-01   1.1175522796146092e-01   1.1181540604082967e-01   1.1174171447381655e-01   1.1176216991153838e-01   1.1181954791820579e-01   1.1173333165166259e-01   1.1182560370361029e-01   1.1182016668402989e-01   1.1181477353140651e-01   1.1175485248551252e-01   1.1181818512818255e-01   1.1180358715202704e-01   1.0222676565677913e-01   1.1461565957717454e-01   1.1211594530232200e-01   1.1283483074935147e-01   1.1100834563134432e-01   1.1143330807201114e-01   1.1201401472091713e-01   1.1085293362333330e-01   1.1170275447740317e-01   1.1196516049883895e-01   1.1184703413063882e-01   1.1184213109971770e-01   1.1158058692400333e-01   1.1199899347986288e-01   1.1189774526948036e-01   1.1182238960723795e-01   1.1175624322306478e-01   1.1179162405816093e-01   1.1180850508286459e-01   1.1174854838160952e-01   1.1180250248750109e-01   1.1181114050143182e-01   1.1180384507592257e-01   1.1178481063667106e-01   1.1179523442553987e-01   1.1180108825793045e-01   1.1179541558967827e-01   1.1179495037099585e-01   1.1174272768830887e-01   1.1178299691308899e-01   1.1181011285051826e-01   1.1175792267699623e-01   1.1178558702819898e-01   1.1180541086424099e-01   1.1179682374780238e-01   1.1180303578581118e-01   1.1179388171249403e-01   1.1180266762768482e-01   1.1179641442676204e-01   1.1179618720802770e-01   1.1179480255811564e-01   1.1179456954161951e-01   1.1178477226352641e-01   1.1179380869720269e-01   1.1180094409376604e-01   1.1179545804403918e-01   1.1179143772698659e-01   1.1179201317096349e-01   1.1179781301754865e-01   1.1180687713406770e-01   1.1180199974803300e-01   1.1180048026239728e-01   1.1179563761044914e-01   1.1180170554647559e-01   1.1179472501230350e-01   1.1179589186318299e-01   1.1180122503696618e-01   1.1179505903464779e-01   1.1179225589129270e-01   1.1179252218289540e-01   1.1180117804118514e-01   1.1179446780554453e-01   1.1179285818218106e-01   1.1179528391921205e-01   1.1179719489121250e-01   1.1179349636766667e-01   1.1179329376161472e-01   1.1180114702299110e-01   1.1179351723725940e-01   1.1180062547894161e-01   1.1179587222729198e-01   1.1179602828721098e-01   1.1179279235562541e-01   1.1179337752660368e-01   1.1179208713445135e-01   1.1180066777387900e-01   1.1179775763323693e-01   1.1179859154744165e-01   1.1179886472732535e-01   1.1179469950521174e-01   1.1179331704833548e-01   1.1180114292510147e-01   1.1179705941942035e-01   1.1179668309837006e-01   1.1179543095173181e-01   1.1179312707070013e-01   1.1180509433035858e-01   1.1179717562885298e-01   1.1179441212763479e-01   1.1180406621054842e-01   1.1178508157237350e-01   1.1180430749537454e-01   1.1179717580656215e-01   1.1179034793864538e-01   1.1179439909046886e-01   1.1178216240979957e-01   1.1179164572526026e-01   1.1179331017535665e-01   1.1179098972019352e-01   1.1180040040407688e-01   1.1179474320629441e-01   1.1180193037191546e-01   1.1179301560904935e-01   1.1179680639777664e-01   1.1179309510113408e-01   1.1179287845379579e-01   1.1178457206484613e-01   1.1179361850271070e-01   1.1179954636318025e-01   1.1179715377661983e-01   1.1179251155524758e-01   1.1178293038638444e-01   1.1181104468709618e-01   1.1184222814566303e-01   1.1182284499352353e-01   1.1162064015983690e-01   1.1174893746696503e-01   1.1194746243440774e-01   1.1210219789613467e-01   1.1164238025794786e-01   1.1175713983873969e-01   1.1176274649253533e-01   1.1180607627636700e-01   1.1190553745695742e-01   1.1453680930981695e-01   1.1266261649216465e-01   1.0862980126562642e-01   9.3277669346676473e-02   1.1182311290873025e-01   1.1180384270729958e-01   1.1180312265222872e-01   1.1181430443047249e-01   1.1179529937479273e-01   1.1178906840975172e-01   1.1178931807449979e-01   1.1179850108099329e-01   1.1180927701208995e-01   1.1179415696222565e-01   1.1180895770928412e-01   1.1179520284009967e-01   1.1181785208006738e-01   1.1179828408388422e-01   1.1179027214244655e-01   1.1181791497206840e-01   1.1178978138776292e-01   1.1179432378511214e-01   1.1178054658408261e-01   1.1178668042877868e-01   1.1179613196813792e-01   1.1178322889836531e-01   1.1179279941288291e-01   1.1179674594094521e-01   1.1177421402559108e-01   1.1178802867549688e-01   1.1176777327522495e-01   1.1177784374033616e-01   1.1178693376355453e-01   1.1178569721181895e-01   1.1178352420269573e-01   1.1179638105409387e-01   1.1181003811755194e-01   1.1178339667871109e-01   1.1181273991675734e-01   1.1179627361997034e-01   1.1177672684662736e-01   1.1179671371439154e-01   1.1176182772159236e-01   1.1177254134579344e-01   1.1180756501361241e-01   1.1177166517151861e-01   1.1180145132568803e-01   1.1181329788027371e-01   1.1179626179707053e-01   1.1176534862917951e-01   1.1181110618475648e-01   1.1180863673234040e-01   1.1181737772689405e-01   1.1179569443840165e-01   1.1177914681967656e-01   1.1181197118207925e-01   1.1178014581628178e-01   1.1175964648172725e-01   1.1179832207988895e-01   1.1180160475982519e-01   1.1177932607453721e-01   1.1177865186268481e-01   1.1179865223621940e-01   1.1178037620877794e-01   1.1178863470368912e-01   1.1181421748816255e-01   1.1172664609973962e-01   1.1175620375291057e-01   1.1179537411927166e-01   1.1179815479235224e-01   1.1179148544586762e-01   1.1179871179535902e-01   1.1179826589432819e-01   1.1179612740031702e-01   1.1179977332190874e-01   1.1180055440711963e-01   1.1179286069093652e-01   1.1179788714934534e-01   1.1179251813457122e-01   1.1179693356282400e-01   1.1179485822089853e-01   1.1180073679527314e-01   1.1179306341997139e-01   1.1179356530659497e-01   1.1179783958228397e-01   1.1179725159324691e-01   1.1179940478537843e-01   1.1179989748661340e-01   1.1179415569298688e-01   1.1179932898107803e-01   1.1179319875815164e-01   1.1179438761053805e-01   1.1179977344403620e-01   1.1179633422153107e-01   1.1179705973857353e-01   1.1180030168071699e-01   1.11799700