<?xml version="1.0"?>
<VTKFile type="UnstructuredGrid"  version="0.1"  >
<UnstructuredGrid>
<Piece  NumberOfPoints="2549" NumberOfCells="4928">
<Points>
<DataArray  type="Float64"  NumberOfComponents="3"  format="ascii">-6.663854720150212 0.5028801134244543 0  -6.676148017026767 0.00289327549322628 0  -6.937012699264413 -0.6839817011284872 0  -6.854445155642081 -1.287420428570287 0  -6.760084477898175 -1.909061205167153 0  -6.500379101841924 -2.440682854429155 0  -6.234365054062053 -2.949475204785056 0  -5.772907506196284 -3.297096137494034 0  -5.700116135007242 -3.859252608035794 0  -5.362476937767704 -4.736914148185314 0  -4.516214625892632 -4.577129082034798 0  -4.040582692729306 -4.837004510085837 0  -3.435741294490676 -4.877374979043404 0  -2.872565905984303 -4.919381479164998 0  -2.304335103760845 -4.919922929166655 0  -1.708051682388371 -4.777241654258385 0  -1.358117397122146 -4.902445145581012 0  -0.7269158736354604 -5.174191257700361 0  0.005875652782655783 -4.574416590417379 0  0.5513462007924662 -4.340587104798269 0  1.123743296799246 -3.928757024003694 0  1.652127881099114 -3.516879324291371 0  2.163287625556793 -3.039573983397808 0  2.652447047440395 -2.468365236714292 0  3.028668209818136 -1.898462779669391 0  3.41961636446875 -1.463396884683876 0  3.795245323006462 -0.8028726153884991 0  4.103218158811893 -0.1278035047650182 0  4.354947337412596 0.5801869083738893 0  4.545185193196961 1.312828672194453 0  4.670533948945641 2.059186767783596 0  4.729395471734586 2.832756277716573 0  4.693149438695609 3.565935268057997 0  4.620355806255059 4.266950979192186 0  4.458499524795537 5.022546702418614 0  4.217144653677779 5.712210143852905 0  3.901209248773061 6.365993214137744 0  3.513958556473745 6.962406901691301 0  3.060537821894241 7.490022734735495 0  2.549812007639158 7.955356267670412 0  1.97760677495022 8.307054455737394 0  1.387201300073233 8.560021620104228 0  0.7581887213669513 8.741488386268159 0  0.1178109397486223 8.795711927357427 0  -0.5213176568947206 8.744300531592568 0  -1.144265102140254 8.57722346529563 0  -1.736730394650821 8.307769175008467 0  -2.28541673241323 7.910136283269346 0  -2.765094496535255 7.468342365673433 0  -3.210526446679252 6.930385822375849 0  -3.56684563878582 6.286297223764903 0  -3.847013224057585 5.596668101764882 0  -4.045904654724081 4.859163535611723 0  -4.160952348536248 4.081198161851171 0  -4.19541924929511 3.304093559269033 0  -4.134333624567698 2.435931789158188 0  -3.981169558377411 1.786324684640845 0  -3.854061069713795 1.069979986639035 0  -3.592338113693038 0.2799021817018837 0  -3.275906417337126 -0.4364335403966035 0  -2.908620020191365 -1.104499372774472 0  -2.481122992353801 -1.770054815910168 0  -2.036299386254788 -2.281398033443053 0  -1.462875948331318 -3.09137697571869 0  -0.840458086067746 -3.274194784383857 0  -0.4500261314112722 -3.398480191526287 0  0.1097807461882321 -3.753124120815678 0  0.6628152577378184 -3.96529968406742 0  1.244453362287232 -4.168189901173688 0  1.775736827519755 -4.178589070830252 0  2.436038123785523 -4.402317393799948 0  2.666311364692637 -3.63219399306597 0  2.929290686288828 -3.926059852252776 0  4.052066085156675 -4.661514147556215 0  4.615962205723161 -4.48332927353824 0  5.314183231412625 -4.389056037789907 0  5.794770223980507 -4.052939319355344 0  6.472310085463596 -3.825879839522543 0  6.580110448351919 -3.083953425110399 0  7.867803838913818 -3.162220502432945 0  7.250796496390511 -1.374350043669798 0  6.226282628249961 -0.6456874354763699 0  7.087737108201559 -0.3240943983441656 0  6.788671239557921 0.2735583792827981 0  7.038301908675392 0.838812501258505 0  6.728033744694008 1.400997646166995 0  7.016531697850713 1.991083146696633 0  6.046693444517044 2.28515525853546 0  7.138963178287855 3.022179553894074 0  7.78070244450324 4.900252870557043 0  6.342232139210697 4.720989167953697 0  6.225670049815872 5.466777531761374 0  5.481066857366774 5.644085242511554 0  4.962660835202032 5.948837026834917 0  4.219718840824605 6.00200566421166 0  3.636878018054228 6.170667310395507 0  2.42733293911239 5.371846879420317 0  2.095884425657833 4.896851168409748 0  1.880320351115833 5.720836118174192 0  1.178866249260293 5.43238406340232 0  0.6248681612184264 5.402041210402425 0  0.01047811523042075 5.15945371425044 0  -0.5703075829583292 4.917593330293356 0  -1.159707722790099 4.528537499792511 0  -1.575460736288914 4.415533532627419 0  -2.26141977224894 4.195618799972664 0  -2.886686522677707 3.254265296360998 0  -3.367030003585247 2.690270702609926 0  -3.835845914034165 1.939829489256183 0  -4.241962445473391 1.190306338921598 0  -4.592817764187061 0.389153727024287 0  -4.877340850736058 -0.4670832601877267 0  -5.059838427318613 -1.213292975171091 0  -5.279075532963119 -2.051892579766561 0  -5.356062097599486 -3.148693336985163 0  -5.327543838910337 -4.055963629148957 0  -5.213786708455455 -5.004806718115201 0  -5.00499494472245 -5.903183666395716 0  -4.7035279511736 -6.760223972354341 0  -4.313898114646865 -7.588867178609346 0  -3.804973679066675 -8.28296984827228 0  -3.269961449460042 -8.863874533953176 0  -2.640887556279754 -9.43275998991723 0  -1.950081908279959 -9.846431287646649 0  -1.21330463256501 -10.14330477379499 0  -0.4463646721019948 -10.30292458010092 0  0.3329682366035019 -10.32880111435331 0  1.108295182054639 -10.2143446121395 0  1.860905702867273 -9.966667286575406 0  2.571494973962805 -9.589359955846774 0  3.230061930287156 -9.099214323424841 0  3.82085380293395 -8.499894538089379 0  4.33366122543531 -7.810710985520938 0  4.760036454025022 -7.039220255737098 0  5.095550703298207 -6.223678910984821 0  5.330356405176383 -5.298112168558785 0  5.445776765196495 -4.505010518325483 0  5.551537178003417 -3.643489471958163 0  5.520711380446023 -2.702346158678331 0  5.411727833113808 -1.811293193536048 0  5.226336036885057 -0.939115411036999 0  4.969258366789321 -0.1003033558896491 0  4.647321202452619 0.6986855453718072 0  4.251596502395543 1.468361109536635 0  3.837057402064961 2.009151051159339 0  3.428406570310761 2.681394937056268 0  2.907581460997045 3.338284764593306 0  2.361652805238976 3.896537224591574 0  1.798439247092322 4.380178857640214 0  1.1887576487826 4.861769150320878 0  0.609981840836339 5.148836583411777 0  -0.1671253567352633 5.82778471779182 0  -0.8397002141495185 5.587708333613461 0  -1.214200370797031 5.48685987046202 0  -1.842315820387393 5.67009300086245 0  -2.441925658699805 5.7056788487148 0  -3.038296844122738 5.700604808980843 0  -3.678763345350619 5.696912459339844 0  -4.184015730993218 5.463103916120573 0  -5.079798512829594 5.671709414819853 0  -5.443357200162012 4.793646342900906 0  -5.538551789238149 4.249164585232588 0  -6.040220173745501 3.928091831904546 0  -6.344311959905657 3.439702433756378 0  -6.643550079147029 2.924799327833621 0  -6.791949397906748 2.319666388986795 0  -6.882101788910872 1.710267864388338 0  -6.729638828866495 1.045018493359505 0  0.282451464051404 5.417909069460951 0  0.1699152777767797 -0.5489836560120523 0  0.7790043969772018 0.9876845900618847 0  -0.05872752487515594 -6.586371854824282 0  -0.350318785976051 0.2288394958718881 0  -4.131040285214081 -1.697883512107403 0  1.346667248244977 -0.3401320133293441 0  5.127584064278729 0.6811400135838993 0  -3.975257680095162 2.343028438484102 0  2.626817986950351 2.917294064693606 0  3.694930940962259 0.5252215408240234 0  2.248118591726136 -0.170983014635122 0  3.143578243660196 -1.748104770010077 0  1.04888546086438 -4.826073476030062 0  -1.311506331219798 -2.657659111435356 0  0.6269699464620542 3.748529931722609 0  -2.820413677322352 0.301740104129553 0  -3.52459414861541 0.1263236017487912 0  -0.4387028608909753 -3.235416401266709 0  0.05768935724592994 2.951696317765541 0  1.509218453307268 1.78115396251667 0  -2.074620660654944 2.224650605127684 0  -2.379180982695891 -1.875492139468329 0  -2.118969367907266 -0.6856450536976124 0  -0.6698370903289219 0.7357044054610055 0  2.605652104245822 0.7095006356169112 0  0.3401603235521906 -2.134700057855451 0  -4.040866806712472 0.2456291996296164 0  -5.303056235129539 0.4003430038214421 0  -0.9465623742820954 1.155309916336349 0  -3.155639661441435 0.9877347098987306 0  -2.348160149618452 0.3222418473753746 0  -3.05381025438661 0.08688967561583484 0  -1.137806584177094 -0.8254898102188797 0  -3.475423128134064 1.425705563903214 0  -3.756702655828794 0.1837499424061572 0  3.760285739456144 -0.4341930391012759 0  4.444247336455218 -0.8310228072738342 0  4.330834721639778 0.6290387268839028 0  3.474296027919992 1.570428695267529 0  4.21222030620067 2.133099769839726 0  4.510396133346699 3.158058800188092 0  5.77527116959607 1.962249005947201 0  5.863847328278458 -0.4655996615699748 0  4.755576424617817 -1.778705789864316 0  0.1101576536556348 -4.421837239823462 0  0.4719677737480275 -2.990343232209826 0  -0.485989136876973 -5.286613014166151 0  1.372167635064169 -1.031384041289501 0  1.055387371187917 -1.46891850834264 0  2.447487440137736 4.066039634230875 0  2.975035025691132 -2.770688931104669 0  -0.349861577539981 -2.475105531609288 0  -1.737936935262771 -1.454049878378692 0  -0.06687149325626984 -3.683093230817487 0  2.241689336245347 -1.302035964010261 0  3.118058203731141 -0.2059235661266422 0  -4.272835924259732 3.486425463037136 0  -2.505800293948619 4.015066552300261 0  -2.834501778024887 -3.370025939275577 0  -4.489240555512928 -2.709681611967365 0  -1.864221334950283 0.08733407415364713 0  -0.5144258330923568 2.478645967271495 0  0.1479724774540414 -1.615113658484744 0  -1.100864605498809 0.4269137638096884 0  1.916062563242519 0.5404978762240423 0  2.712469490829277 -2.303052775596211 0  2.150257135821329 1.642732370348341 0  1.345365537656701 -0.6774690033992729 0  0.3547816298932489 -8.524853070435608 0  -1.306389990239768 -7.78968329097232 0  -0.803225496887211 6.745080731767148 0  0.5425486574543437 7.126954588821668 0  0.7818352076778405 -2.624566696819205 0  -3.27150941234526 -0.01756928311123195 0  -2.710018287472529 -0.27299
[...]
<PointData  Vectors="f_44"> 
<DataArray  type="Float64"  Name="f_44"  NumberOfComponents="3" format="ascii">2.3290116019696569e-01 3.8195351656303410e-02 0.0000000000000000e+00  1.8424209791717797e-01 -1.2767568692489273e-01 0.0000000000000000e+00  1.7992848417456508e-01 -6.4577320642223948e-02 0.0000000000000000e+00  2.3515899367993695e-01 8.1987722111859423e-02 0.0000000000000000e+00  1.6633086804686509e-01 1.1336039981784986e-01 0.0000000000000000e+00  1.5701432959104725e-01 1.8589683553820421e-01 0.0000000000000000e+00  -1.3300007815627774e-03 2.2440219283150692e-01 0.0000000000000000e+00  4.4583456160820392e-02 1.1266574717392108e-01 0.0000000000000000e+00  2.8134600929030046e-01 1.4431837033071285e-01 0.0000000000000000e+00  -3.9863999433531513e-02 2.2047734451256979e-02 0.0000000000000000e+00  -2.2144131372836501e-01 -3.5077641577075879e-03 0.0000000000000000e+00  -1.4495616902948136e-01 1.5898968770942942e-01 0.0000000000000000e+00  -2.4175843017974591e-01 -5.2584668588294041e-03 0.0000000000000000e+00  -2.1894874834012909e-01 4.6359410512084392e-02 0.0000000000000000e+00  -2.1676318507809006e-01 -7.9457310045751448e-02 0.0000000000000000e+00  -1.8163705806359554e-01 -3.9233033602651186e-02 0.0000000000000000e+00  -1.8518883290562671e-01 2.6361865097632470e-01 0.0000000000000000e+00  -7.2562798127456127e-02 -7.3726122959284421e-02 0.0000000000000000e+00  -8.2340274167316596e-02 -2.4080534495732325e-01 0.0000000000000000e+00  -1.3090301841153484e-01 -1.6738200885384444e-01 0.0000000000000000e+00  -5.1046956124292560e-02 -2.2576237223794415e-01 0.0000000000000000e+00  -4.0797690425426504e-02 -2.1704050121252416e-01 0.0000000000000000e+00  5.9207860555036173e-03 -2.2624873516347940e-01 0.0000000000000000e+00  7.5600269587913299e-02 -2.1006857629562417e-01 0.0000000000000000e+00  5.3014528834962570e-02 -2.1483649039480515e-01 0.0000000000000000e+00  6.1126696339028015e-02 -2.1061515622917024e-01 0.0000000000000000e+00  1.4079695677165643e-01 -1.7910524487954999e-01 0.0000000000000000e+00  1.5834652901783994e-01 -1.5629671604000550e-01 0.0000000000000000e+00  1.8597934738909730e-01 -1.2563673444903653e-01 0.0000000000000000e+00  2.0413255949541639e-01 -9.0895364255948810e-02 0.0000000000000000e+00  2.1758107222580791e-01 -5.6294506996506802e-02 0.0000000000000000e+00  2.2278550205842282e-01 -4.1856668301078395e-03 0.0000000000000000e+00  2.2192051406451188e-01 3.5609133968290602e-02 0.0000000000000000e+00  2.1362829875637560e-01 6.5707896635909369e-02 0.0000000000000000e+00  1.9138852276970775e-01 1.1674100971590316e-01 0.0000000000000000e+00  1.5810652724285740e-01 1.5899946741406537e-01 0.0000000000000000e+00  1.1755522748154976e-01 1.9104781854860858e-01 0.0000000000000000e+00  6.1941447115664398e-02 2.1486327672636413e-01 0.0000000000000000e+00  9.2089086239223253e-03 2.2529516238360084e-01 0.0000000000000000e+00  -6.0004764551824095e-02 2.1505561597848649e-01 0.0000000000000000e+00  -1.3300695199934276e-01 1.8128206966238763e-01 0.0000000000000000e+00  -1.7258847229806934e-01 1.4496775586735763e-01 0.0000000000000000e+00  -2.0739051108568812e-01 8.1573137565021311e-02 0.0000000000000000e+00  -2.2648903409374294e-01 -2.3107050138909650e-04 0.0000000000000000e+00  -2.1012011189170735e-01 -7.5009646233763563e-02 0.0000000000000000e+00  -1.7592303945583698e-01 -1.4289590420898046e-01 0.0000000000000000e+00  -1.0767767145250427e-01 -1.9492079459887351e-01 0.0000000000000000e+00  -4.1115037459305122e-02 -2.2157834075556682e-01 0.0000000000000000e+00  7.4985447690064707e-03 -2.2478504500297858e-01 0.0000000000000000e+00  8.3098999620701025e-02 -2.0705764125051651e-01 0.0000000000000000e+00  1.4414698756864866e-01 -1.7329336101881748e-01 0.0000000000000000e+00  1.7767006673214766e-01 -1.3573552196919345e-01 0.0000000000000000e+00  2.0626847064061327e-01 -8.8299693262546705e-02 0.0000000000000000e+00  2.1952122686223766e-01 -4.1794669115319441e-02 0.0000000000000000e+00  2.2590525599309122e-01 1.6849791481105363e-03 0.0000000000000000e+00  2.0958904785612484e-01 7.1828045989717967e-02 0.0000000000000000e+00  2.0592793398567427e-01 8.8983672136718386e-02 0.0000000000000000e+00  1.9848957638831993e-01 9.8582799223631723e-02 0.0000000000000000e+00  1.6474217458784535e-01 1.5493510729638416e-01 0.0000000000000000e+00  1.3310338585082460e-01 1.7755253696654194e-01 0.0000000000000000e+00  1.1460418456287964e-01 1.9676229430219563e-01 0.0000000000000000e+00  4.6976277582185755e-02 2.1203517392579044e-01 0.0000000000000000e+00  8.1112669376420116e-02 2.2771914643385383e-01 0.0000000000000000e+00  -1.8762804727408530e-02 1.7514025386483217e-01 0.0000000000000000e+00  -2.5242877115531009e-01 9.6183291161190898e-02 0.0000000000000000e+00  -1.0687174634403850e-01 1.8792357373111473e-01 0.0000000000000000e+00  -1.2304557671945485e-01 1.7858948710326827e-01 0.0000000000000000e+00  -1.7832125012826910e-01 1.6022402054807994e-01 0.0000000000000000e+00  -1.8689814390308637e-01 4.8365883919929298e-02 0.0000000000000000e+00  -2.6539893560741146e-01 1.1531754947890965e-01 0.0000000000000000e+00  3.4261934072114357e-02 -1.5509890088548193e-02 0.0000000000000000e+00  2.0095556838387563e-01 -5.6660173987672383e-02 0.0000000000000000e+00  -7.3870258446411541e-02 2.9203813376148757e-01 0.0000000000000000e+00  -1.1409938780118785e-01 7.1807338531312895e-02 0.0000000000000000e+00  -2.4350494642162532e-01 -1.2211185310014795e-01 0.0000000000000000e+00  -1.1606814933354379e-01 -1.1249755944279173e-01 0.0000000000000000e+00  -2.0361655965418213e-01 -2.0184315837871603e-01 0.0000000000000000e+00  1.1248871982095535e-01 -9.4034578698633089e-02 0.0000000000000000e+00  -1.1251713114475341e-01 -1.6475220794864697e-02 0.0000000000000000e+00  -1.7201648064423362e-03 7.7048188934567885e-02 0.0000000000000000e+00  1.5637818538562845e-01 2.2118599348926654e-01 0.0000000000000000e+00  -2.0643559007443135e-01 3.2307614888473057e-02 0.0000000000000000e+00  -4.4134328019436050e-02 -2.8582541232228330e-02 0.0000000000000000e+00  1.9870907035812996e-01 2.3444536171031323e-02 0.0000000000000000e+00  1.0729105735416808e-01 1.8197939007407595e-02 0.0000000000000000e+00  1.8011410903442149e-01 -3.5306032245160440e-03 0.0000000000000000e+00  -5.5710823357236920e-02 2.1632641317909162e-02 0.0000000000000000e+00  -2.2393205506961947e-01 -3.9576777204189992e-02 0.0000000000000000e+00  1.5504113070956768e-01 -2.1212967458929011e-01 0.0000000000000000e+00  -3.4234256698223988e-03 -9.1298913928287276e-02 0.0000000000000000e+00  -1.1996267031102470e-01 -3.6500973080675022e-03 0.0000000000000000e+00  9.7238352016506144e-02 8.5165461515533308e-02 0.0000000000000000e+00  -2.3678993442628046e-01 1.6948803555648506e-01 0.0000000000000000e+00  -1.3585975423173208e-01 9.2121385555943430e-02 0.0000000000000000e+00  -2.4511842675834572e-01 9.8919095197841686e-02 0.0000000000000000e+00  -1.2342532576613251e-01 -7.8280391034440025e-02 0.0000000000000000e+00  -4.7981511858912279e-02 -2.8631646178608061e-01 0.0000000000000000e+00  2.1739680930876293e-01 2.7984352235222224e-02 0.0000000000000000e+00  4.4451780291738560e-02 1.0154597050567350e-03 0.0000000000000000e+00  -2.5282904397587952e-01 -1.3874300436708226e-01 0.0000000000000000e+00  -1.8241390335263002e-01 -6.2939862245851005e-02 0.0000000000000000e+00  -1.6632490694045168e-01 -1.7167679488573953e-01 0.0000000000000000e+00  -1.1343597743566541e-01 -1.8737562659567991e-01 0.0000000000000000e+00  -1.0746423432656602e-01 -1.7946646615755524e-01 0.0000000000000000e+00  -2.5752080789985005e-01 -9.6253069370249619e-02 0.0000000000000000e+00  -4.4287331890614711e-03 -1.7815345591277709e-01 0.0000000000000000e+00  9.0866847943066015e-02 -2.2217900475378749e-01 0.0000000000000000e+00  5.1354496907303836e-02 -2.1154682348296247e-01 0.0000000000000000e+00  1.1881984289590036e-01 -1.9400138587823962e-01 0.0000000000000000e+00  1.3409154230890830e-01 -1.7740260564303686e-01 0.0000000000000000e+00  1.6658317813464421e-01 -1.5102074627640427e-01 0.0000000000000000e+00  1.9227778763291187e-01 -1.1258953761257198e-01 0.0000000000000000e+00  1.9441967024023277e-01 -1.1412426856214000e-01 0.0000000000000000e+00  2.0854492845384906e-01 -7.2377156099708420e-02 0.0000000000000000e+00  2.2624609573405757e-01 -3.6917684559726930e-03 0.0000000000000000e+00  2.2088670459546611e-01 3.2616465596899680e-02 0.0000000000000000e+00  2.1143847851562092e-01 7.4900006374723507e-02 0.0000000000000000e+00  1.8752553221259879e-01 1.2132419145289187e-01 0.0000000000000000e+00  1.6385866625989953e-01 1.5526927979089189e-01 0.0000000000000000e+00  1.0797821536402900e-01 1.9427855015823306e-01 0.0000000000000000e+00  3.6939032263559768e-02 2.2226885879965583e-01 0.0000000000000000e+00  2.8685582562796583e-03 2.2505460604695823e-01 0.0000000000000000e+00  -6.1423058096100672e-02 2.1377333519110306e-01 0.0000000000000000e+00  -1.3830358015845276e-01 1.7943955713179055e-01 0.0000000000000000e+00  -1.8519613616472813e-01 1.2516204996283897e-01 0.0000000000000000e+00  -2.1909790996442013e-01 5.3127989875076699e-02 0.0000000000000000e+00  -2.2283516252868465e-01 -2.5371487541010030e-02 0.0000000000000000e+00  -2.0108719432090988e-01 -1.0119077915132389e-01 0.0000000000000000e+00  -1.5455370784075961e-01 -1.6244389594701661e-01 0.0000000000000000e+00  -9.5719309158572297e-02 -2.0353910300904024e-01 0.0000000000000000e+00  -3.0295115571878202e-02 -2.2196922346747475e-01 0.0000000000000000e+00  3.4832645213665289e-02 -2.2204181940787307e-01 0.0000000000000000e+00  9.3901592004761170e-02 -2.0306095457367321e-01 0.0000000000000000e+00  1.3995298639781456e-01 -1.7588089628123862e-01 0.0000000000000000e+00  1.7982227556227751e-01 -1.3345674701301366e-01 0.0000000000000000e+00  2.0882782717162929e-01 -7.9889115717497239e-02 0.0000000000000000e+00  2.1606789573335630e-01 -6.3046949614926545e-02 0.0000000000000000e+00  2.2064184654462710e-01 -2.2511001033659349e-02 0.0000000000000000e+00  2.2215388755691859e-01 3.8971243321328806e-02 0.0000000000000000e+00  2.1138831426920160e-01 7.1633432987456183e-02 0.0000000000000000e+00  1.9620237243422942e-01 1.0888531521449263e-01 0.0000000000000000e+00  1.7239388440001832e-01 1.4128623453587189e-01 0.0000000000000000e+00  1.5353937515599539e-01 1.6664081134698180e-01 0.0000000000000000e+00  8.7169918111411199e-02 2.0285281310857939e-01 0.0000000000000000e+00  7.9220643538714150e-02 2.0808551458144398e-01 0.0000000000000000e+00  8.8573920214587223e-02 2.0425643414771655e-01 0.0000000000000000e+00  2.5031840061148346e-02 2.2484621967230972e-01 0.0000000000000000e+00  -1.9712620154299233e-02 2.2010130194937383e-01 0.0000000000000000e+00  -3.1081132558157590e-02 2.2880563986166799e-01 0.0000000000000000e+00  -1.1182622243800085e-01 1.8102618566649309e-01 0.0000000000000000e+00  -6.2748351762001470e-02 2.4624193589787993e-01 0.0000000000000000e+00  -7.0101095215694159e-02 8.4960652242094134e-02 0.0000000000000000e+00  -2.1583493602080817e-01 -2.3549134347592615e-01 0.0000000000000000e+00  -1.8052207403064044e-01 6.2761699243625527e-02 0.0000000000000000e+00  -2.0647118383081300e-01 1.0067131382300536e-01 0.0000000000000000e+00  -2.2281789013855288e-01 -1.6791229063933578e-02 0.0000000000000000e+00  -2.3919230430467825e-01 3.4511964201508934e-02 0.0000000000000000e+00  -1.6400982907677361e-01 -1.3602435778405353e-01 0.0000000000000000e+00  -2.2531381283930474e-01 2.5069912344352262e-02 0.0000000000000000e+00  -4.1952382547842802e-02 -1.1312701156728359e-02 0.0000000000000000e+00  2.7521577480442744e-01 -1.6712718333304330e-01 0.0000000000000000e+00  2.2133210502868466e-02 -1.1452920719777783e-01 0.0000000000000000e+00  -3.6108003574812447e-02 -2.2364919767794988e-01 0.0000000000000000e+00  1.2919589008076079e-01 -2.0367514240187934e-01 0.0000000000000000e+00  1.4491741452065271e-01 -1.4746716798544079e-01 0.0000000000000000e+00  2.2178172967250295e-01 -9.5935674828251175e-02 0.0000000000000000e+00  2.0482527449630478e-01 2.6961912465539327e-02 0.0000000000000000e+00  2.0383509192099428e-01 1.0081984464157870e-01 0.0000000000000000e+00  -1.4375876760204565e-01 1.7589995914947265e-01 0.0000000000000000e+00  -9.9313835962724320e-02 2.0220539070982249e-01 0.0000000000000000e+00  -5.8017143141360687e-02 -2.1746241787078188e-01 0.0000000000000000e+00  -1.8498215311965202e-01 -1.3112791725757231e-01 0.0000000000000000e+00  -1.6227227805017250e-01 -1.5665495246795513e-01 0.0000000000000000e+00  5.7653239621449054e-02 2.1770798303755104e-01 0.0000000000000000e+00  -7.4096806951314917e-02 2.1289395265437880e-01 0.0000000000000000e+00  2.2709009125391003e-01 -5.0683512966143574e-04 0.0000000000000000e+00  2.4653016753867466e-03 -2.2499098811532600e-01 0.0000000000000000e+00  -1.9214808617836016e-01 1.1588980426383763e-01 0.0000000000000000e+00  2.3124262455661901e-01 4.3232271802071412e-02 0.0000000000000000e+00  1.3264260777919740e-01 -1.8053395097708830e-01 0.0000000000000000e+00  -1.7795052920462157e-01 -1.3683897035062045e-01 0.0000000000000000e+00  1.9546738825650051e-01 1.1447304370299036e-01 0.0000000000000000e+00  9.9679968939388436e-02 -2.0429159790993523e-01 0.0000000000000000e+00  1.2619621417060428e-01 -1.8939120104140481e-01 0.0000000000000000e+00  7.8931109570506159e-03 2.2680543387035249e-01 0.0000000000000000e+00  2.1924152544514589e-01 -8.3281942560004221e-02 0.0000000000000000e+00  1.9325466138333969e-01 1.1515849551341303e-01 0.0000000000000000e+00  1.6100079460711372e-01 -1.5766913190380591e-01 0.0000000000000000e+00  2.2431815541559111e-01 1.2034994869434412e-02 0.0000000000000000e+00  -2.2388447129374825e-01 -1.9989242182481323e-02 0.0000000000000000e+00  -2.1127193259373811e-01 7.7234775340042292e-02 0.0000000000000000e+00  -1.4962093306420471e-01 -1.6836872160941871e-01 0.0000000000000000e+00  -2.0729266919819342e-02 2.2608314661271178e-01 0.0000000000000000e+00  1.3668928460971752e-01 1.7786096766710538e-01 0.0000000000000000e+00  2.1919497900564813e-01 4.4451500835669275e-02 0.0000000000000000e+00  2.1977061390384836e-01 -5.0013084380091929e-02 0.0000000000000000e+00  2.2316524615028546e-01 -2.1734466510079507e-02 0.0000000000000000e+00  -2.0016974371681537e-01 1.0287994033694563e-01 0.0000000000000000e+00  -1.2653860367352265e-01 -1.8745227465634173e-01 0.0000000000000000e+00  -2.0811590217003725e-01 -8.8885266831943935e-02 0.0000000000000000e+00  1.2878169668711125e-02 -2.2803007518366747e-01 0.0000000000000000e+00  -2.1903984009093014e-01 5.5066117120450918e-02 0.0000000000000000e+00  -3.6167326709289932e-02 -2.2258612686054277e-01 0.0000000000000000e+00  2.1965676902610551e-01 -6.1673498524178784e-02 0.0000000000000000e+00  -1.7484016655097152e-02 -2.2606825610396167e-01 0.0000000000000000e+00  5.1882860012134276e-02 -2.1955939639610639e-01 0.0000000000000000e+00  2.2488896773806633e-01 2.7847947394393616e-02 0.0000000000000000e+00  -6.8652103718015653e-02 2.1565114209316447e-01 0.0000000000000000e+00  2.5808533595265137e-02 2.2405666121803411e-01 0.0000000000000000e+00  -3.1923871969642213e-02 2.2399606331073890e-01 0.0000000000000000e+00  2.2294912526529412e-01 -2.9371332110254628e-02 0.0000000000000000e+00  2.1328560817604672e-01 -7.0027974768022680e-02 0.0000000000000000e+00  -4.6173401496707941e-02 -2.2108781656824253e-01 0.0000000000000000e+00  1.3821219587421402e-01 1.7801954290210081e-01 0.0000000000000000e+00  2.0867900052495425e-01 8.3493487517774037e-02 0.0000000000000000e+00  -8.6285748460272663e-02 2.0904423416442294e-01 0.0000000000000000e+00  2.1667110309063825e-01 -5.7045940272981523e-02 0.0000000000000000e+00  2.1397600354291527e-01 -6.7710132665609893e-02 0.0000000000000000e+00  -2.0288562058688961e-01 9.6581112938059363e-02 0.0000000000000000e+00  -1.8874795491955279e-01 -1.2186705103731750e-01 0.0000000000000000e+00  -1.7496262414719294e-01 1.4439546542444928e-01 0.0000000000000000e+00  -8.6739983474051555e-02 -2.0981985880783391e-01 0.0000000000000000e+00  -1.3385593823263600e-01 1.9203750252306173e-01 0.0000000000000000e+00  -2.2365503928221978e-01 2.6236889352826812e-02 0.0000000000000000e+00  -2.1271124961944954e-01 -8.1612660702460121e-02 0.0000000000000000e+00  -2.6166333041135321e-02 -2.2322753137170120e-01 0.0000000000000000e+00  -1.9487408553267663e-01 -1.1139661480817067e-01 0.0000000000000000e+00  -1.7443982093563112e-01 1.4144323445589221e-01 0.0000000000000000e+00  1.1118599424088223e-02 2.2457871754593345e-01 0.0000000000000000e+00  1.2712112484108415e-01 -1.8503631745425100e-01 0.0000000000000000e+00  -8.1939090037505477e-02 -2.0890766924307941e-01 0.0000000000000000e+00  -9.2579254489360788e-02 2.0445623522116566e-01 0.0000000000000000e+00  1.2948268573967442e-01 1.8358099591154639e-01 0.0000000000000000e+00  2.2003387585405432e-02 2.2358756050657150e-01 0.0000000000000000e+00  1.6177478557890843e-01 1.5608152420211591e-01 0.0000000000000000e+00  1.2075729432007168e-01 -1.8988973334729672e-01 0.0000000000000000e+00  -2.4625739266253423e-02 -2.2349089157245686e-01 0.0000000000000000e+00  -1.7848887063545785e-01 -1.3876259985602094e-01 0.0000000000000000e+00  -1.6479879535509928e-01 1.5386877817433212e-01 0.0000000000000000e+00  -1.9107877792228176e-01 -1.1978724594155526e-01 0.0000000000000000e+00  -1.4602499468453578e-01 1.7258278900496218e-01 0.0000000000000000e+00  4.9543011497416946e-02 2.2006605663147291e-01 0.0000000000000000e+00  1.3361682325509167e-01 1.8677529043657309e-01 0.0000000000000000e+00  -1.4886081498436590e-01 1.7123909998765285e-01 0.0000000000000000e+00  -2.1617569337810577e-01 6.7343936664818735e-02 0.0000000000000000e+00  7.2070523843697411e-03 -2.2545209318175549e-01 0.0000000000000000e+00  -1.3212702397278966e-01 -1.9225640080074899e-01 0.0000000000000000e+00  -2.2596524736293871e-01 2.2922811789174314e-02 0.0000000000000000e+00  2.8288545648922078e-02 2.2552626809430637e-01 0.0000000000000000e+00  2.1932759595320067e-01 4.8299449922330054e-02 0.0000000000000000e+00  2.2153115999724843e-01 -4.3305779300388293e-02 0.0000000000000000e+00  -2.0670341198317385e-01 -8.7698501596524286e-02 0.0000000000000000e+00  -2.0964320276890316e-01 8.0758015054649149e-02 0.0000000000000000e+00  -2.1888311293656984e-01 -5.2144237921730577e-02 0.0000000000000000e+00  -3.9628250994718763e-02 2.2328821485668804e-01 0.0000000000000000e+00  -2.2171860832744952e-01 -3.9925778827940198e-02 0.0000000000000000e+00  4.4262059527661976e-02 2.2153333992679927e-01 0.0000000000000000e+00  -2.2745843090516993e-01 -3.4140997203236615e-04 0.0000000000000000e+00  -4.3208694604886667e-02 -2.2179967271344167e-01 0.0000000000000000e+00  2.1306839044078846e-01 -8.2276800411511503e-02 0.0000000000000000e+00  1.6499969259178865e-01 -1.5731461540175598e-01 0.0000000000000000e+00  1.5493518851442553e-01 -1.6531355261952141e-01 0.0000000000000000e+00  -9.4016234978737748e-02 -2.2189099612365465e-01 0.0000000000000000e+00  -1.5535893288188282e-01 -1.6451673586351984e-01 0.0000000000000000e+00  2.0426089322622673e-01 -1.0563387333476353e-01 0.0000000000000000e+00  2.0968635153749060e-01 -8.2054458127164304e-02 0.0000000000000000e+00  2.2481334727996680e-01 -1.1511168064509907e-02 0.0000000000000000e+00  1.0307417451230474e-01 -2.0075461142079301e-01 0.0000000000000000e+00  1.5062862857711640e-01 1.6840245146637989e-01 0.0000000000000000e+00  2.1985694667681499e-01 -4.9764148243019862e-02 0.0000000000000000e+00  1.8628714139791386e-01 1.2437930728288032e-01 0.0000000000000000e+00  -2.0634475381564948e-01 -1.0224203662785308e-01 0.0000000000000000e+00  2.0289998057884467e-01 1.0824126267719322e-01 0.0000000000000000e+00  9.8766713293923197e-02 2.0203361363930561e-01 0.0000000000000000e+00  2.2441783517016364e-01 7.4580971048215840e-03 0.0000000000000000e+00  1.7852928148668679e-01 -1.3675962994822732e-01 0.0000000000000000e+00  2.2277275534700899e-01 -2.9350119079489957e-02 0.0000000000000000e+00  6.3157798767217360e-02 -2.1601004122264778e-01 0.0000000000000000e+00  1.8666612811716252e-01 1.2608285635734306e-01 0.0000000000000000e+00  -2.1831649576706952e-01 -8.9294738076523050e-02 0.0000000000000000e+00  -3.33519068721