<?xml version="1.0"?>
<VTKFile type="UnstructuredGrid"  version="0.1"  >
<UnstructuredGrid>
<Piece  NumberOfPoints="2549" NumberOfCells="4928">
<Points>
<DataArray  type="Float64"  NumberOfComponents="3"  format="ascii">-136.6216755224034 8.046081814791268 0  -136.7686603276997 -0.8168422577233858 0  -140.7954466478184 -12.65883689890621 0  -139.2357569864221 -23.14491946124586 0  -137.4041772616174 -33.89375331343101 0  -132.8534878447952 -43.16875979607131 0  -128.137983063535 -52.0422058812728 0  -120.2405903424337 -58.29962258602691 0  -118.5151410634916 -67.95256783940832 0  -112.5123698870145 -82.6175872867573 0  -98.33775713258187 -80.64893320311207 0  -90.06428626127465 -85.36201015801025 0  -79.698628505402 -86.53192329402796 0  -69.97821634401882 -87.69865105698625 0  -60.15836816571324 -88.1742173581149 0  -49.87352808679167 -86.33203301406913 0  -43.51614612001629 -88.75123337439082 0  -32.64607328493972 -93.49164035038586 0  -20.13960536461327 -84.26542042464814 0  -10.62056954299694 -80.87310155920316 0  -0.6620846319224549 -74.61252361896194 0  8.599888182235608 -68.33181462050503 0  17.59313469353063 -60.98569089182874 0  26.24053016495601 -52.11926087018505 0  33.08643470761761 -43.25653141980658 0  40.17293062705288 -36.53457614106298 0  47.01877733637275 -26.18920847991058 0  52.78613387222357 -15.59552578095803 0  57.65719339817723 -4.459938389399627 0  61.54762451999745 7.084843820382472 0  64.40272625364686 18.86350944638471 0  66.19661956611438 31.09166515397035 0  66.47109412239261 42.68739907238989 0  66.16284433959498 53.78209748974132 0  64.43138213139301 65.76343278462937 0  61.42949993223523 76.70301550698079 0  57.23566670285139 87.08150947286052 0  51.90191700170234 96.55494843851123 0  45.51037408148007 104.940358404472 0  38.20268371403824 112.3418925025522 0  29.9118683392531 117.9378282754411 0  21.33021071390731 121.9665825719535 0  12.13101956170534 124.8638141802906 0  2.749985162906492 125.7376274885767 0  -6.611242410713412 124.933765490269 0  -15.71393314631489 122.2917676680165 0  -24.32945512582312 118.0243014557886 0  -32.2452476570451 111.7186185553826 0  -39.05783046755332 104.7190959149299 0  -45.32360838101872 96.19382638795528 0  -50.16491967643468 85.98344115913882 0  -53.78936270628812 75.057571493518 0  -56.11517722161205 63.37905140682719 0  -57.10152927986331 51.06673535255616 0  -56.80089078619776 38.78201816019913 0  -54.97399919077073 25.05449373819587 0  -51.67674874414539 14.8382660723073 0  -48.79962034045953 3.569010106712784 0  -43.77226196377995 -8.864811720410081 0  -37.8735715312119 -20.10316264861017 0  -31.16566381278938 -30.55311695101801 0  -23.49934542002601 -40.94629418108775 0  -15.56132299833604 -48.85487573858457 0  -5.57185738869171 -61.52377709166957 0  5.194647875873983 -64.13952783570562 0  12.24169092865409 -65.79939082960779 0  21.99010841794464 -71.12474060509047 0  31.62046448380061 -74.14937465533224 0  41.69752298639332 -77.00314871189646 0  50.95649230845439 -76.75359059735995 0  62.26561883795272 -79.89252734408466 0  66.67814645891883 -67.10364942534129 0  71.59542193861927 -71.31087896236224 0  90.24802324358369 -82.55416220229266 0  99.93372066365642 -79.14813428550769 0  111.7396724044543 -77.05185574095248 0  120.0296078914995 -71.05155367488517 0  131.4310325858395 -66.76016059325771 0  133.6699099609266 -54.19385654505818 0  154.7322838962293 -54.71336171178115 0  145.2555695568237 -25.3383747309383 0  129.1851565477561 -12.87719157288135 0  143.2070371906337 -6.90064005513479 0  138.5690318881525 3.513799402513532 0  142.6128305388063 13.4210000201364 0  137.5988319703294 23.27909700468751 0  142.0677506250184 33.57246002878215 0  126.3117296080277 39.10867674183178 0  143.4662364671809 51.7036468945273 0  153.3386615856584 82.52187960176968 0  129.8638570146666 80.38642843055153 0  127.4847920154733 93.01452366908224 0  115.0103540256793 96.50988844538506 0  106.1153140650823 102.0083515656751 0  93.593826825279 103.4469565362829 0  83.60501416994245 106.700612807723 0  63.56409798379572 94.44347139704327 0  57.55131543436033 87.33816423084282 0  53.37413447523711 100.9888269340729 0  41.40656305630174 96.81431047851375 0  31.78415976929183 96.74476965955657 0  21.18307020367608 93.2558391382636 0  11.10869515158862 89.75624795673836 0  0.8867854665867116 83.88030776186997 0  -6.565394527665344 82.40094780760286 0  -18.34855857137621 79.19164627973409 0  -29.16751718110696 64.42075194527314 0  -37.67385759973166 55.66974836828468 0  -46.0012781142748 43.91839881472556 0  -53.33046798139335 32.1651274250104 0  -59.77993637168603 19.56970626002925 0  -65.17209683681685 6.077337516508424 0  -68.93545064720517 -5.669758720791121 0  -73.28986972509919 -18.90986638792949 0  -75.37117635907066 -36.29561460365668 0  -75.76699312585249 -50.66298282932011 0  -74.80129008131867 -65.70934232688217 0  -72.31707023692961 -79.96182052761084 0  -68.35183667464177 -93.56626913656953 0  -62.9775550685021 -106.7295280876911 0  -55.69589738805652 -117.7531356365114 0  -47.99796312979458 -126.9784305663238 0  -38.79596971188654 -136.0241544943287 0  -28.60700204455068 -142.5990928256328 0  -17.68303402143853 -147.3178333655077 0  -6.276824626703907 -149.8530299324726 0  5.327491805489638 -150.2608178296529 0  16.8677128256093 -148.4357504445178 0  28.04465118592544 -144.4916335688493 0  38.54961117521599 -138.485951513374 0  48.22275981576602 -130.6874238235015 0  56.81224094506483 -121.1547506208805 0  64.1548983294465 -110.1969938149917 0  70.11576873779038 -97.93517729712794 0  74.62420098743509 -84.98154812168877 0  77.52285392233566 -70.28067651960698 0  78.51313134640645 -57.71260307666972 0  79.35088686641039 -44.06339626183668 0  78.00556515764278 -29.15405970070234 0  75.41230675865215 -15.06027616185098 0  71.5994125897172 -1.282917653214374 0  66.64277719984722 11.94581601047974 0  60.65199140750028 24.52221535964069 0  53.48461283387581 36.61400373870553 0  46.02066178356632 45.0275437636456 0  38.6558825308795 55.5277360756559 0  29.50183606057061 65.76506339095531 0  19.95228696847105 74.40634102530741 0  10.13305057276637 81.83527295714612 0  -0.4219863751606763 89.21201428756241 0  -10.4739063557651 93.45614031255359 0  -23.68942501454245 103.9491357118463 0  -35.22147119245452 99.71544438290985 0  -41.9719071013312 97.68592447332674 0  -52.76605963173832 100.1769385052474 0  -63.08797238746824 100.2794089697822 0  -73.33951729951531 99.70360057302675 0  -84.27517670321753 99.12053734607287 0  -93.02257481419156 94.82453054848422 0  -107.9895150880071 97.57431155290762 0  -114.4069981059682 82.9028675972498 0  -116.4908988711059 73.5327177498408 0  -125.0316649784703 67.70007191518438 0  -130.3564135738164 59.15307306530426 0  -135.5396268815991 50.14556327609429 0  -138.2358248626583 39.66085482790545 0  -139.9168720821635 29.07941551105645 0  -137.6245133171358 17.58343055936331 0  6.248579718192064 77.58124742874904 0  -7.990327766742627 -1.005406732505044 0  25.99677645826641 22.87200186992449 0  0.3883488730035637 -96.48399174842037 0  -16.31407278678755 -4.116899829737663 0  -87.36367433575172 -30.60318772652997 0  35.349821088143 -12.44604980687243 0  105.2311902230307 10.93357414498605 0  -84.89175178110149 40.93215342332092 0  60.96680525032678 52.21607577354937 0  74.25352671265719 8.573207602700174 0  45.06338868548493 -0.6737673531041017 0  69.52318642793061 -33.24289017677767 0  11.85468694016871 -68.3580343804466 0  -23.59002240955025 -39.93860530036215 0  5.691889404150912 51.1672290194562 0  -51.55300808734331 2.048855491719843 0  -68.78163141459325 1.980998347911093 0  0.3402222154739113 -43.69588341427186 0  8.901756570450791 38.81163003199521 0  29.38616789437202 25.13490513592034 0  -49.7102006267543 41.32355598211004 0  -54.57973259388631 -35.74930564231386 0  -41.57561723414987 -7.913503195681186 0  -11.28521589279234 8.505481180966861 0  51.94311029594005 8.532199103767331 0  8.750207468289538 -31.65764913444482 0  -82.24823078011831 3.920903733833376 0  -109.8320287185692 6.405834098042807 0  -28.75761912223667 25.23869769325903 0  -64.94243212957392 18.64823886837845 0  -49.11911101785413 9.024945799815107 0  -58.89108026237592 2.898554001558877 0  -27.39544512623586 -7.790262249917874 0  -72.66208601464201 25.67128044236473 0  -75.09848594799342 2.915327708343487 0  77.34485492461256 -9.498864079170735 0  92.31584724525274 -15.91530488086773 0  88.45559397215249 10.16711806872217 0  72.62491100491097 27.9813759682642 0  88.45930622605681 36.91694865048328 0  96.12464620983141 54.79356842999041 0  118.6206741181102 33.0880380750881 0  120.0378926570286 -9.106314637408538 0  100.0475308701696 -32.68858633716614 0  4.080338239720427 -65.05164097717012 0  12.88503952056044 -42.56132631673828 0  -3.43209755966378 -76.1014397592766 0  28.15524891568733 -14.22238832448189 0  25.11267754280481 -18.43632618995558 0  60.99204325076307 72.07328018007894 0  69.57691315474085 -51.21459048914182 0  -11.89757913128719 -33.64370905599111 0  -32.9460051930379 -20.44441898101699 0  -4.83664466394775 -53.20795083376083 0  52.38156920272097 -26.97115114927385 0  64.35781964644046 -6.71191438006984 0  -92.66583068963315 60.60691966779947 0  -61.62975303599845 71.11896956313906 0  -66.87867721759237 -60.79499631736231 0  -96.11800522605793 -48.17569461330142 0  -17.05020621094263 11.80333384189869 0  7.856528350316516 49.06906533359316 0  18.5901208238553 -35.21999297533932 0  -4.701279034922681 -3.54281301681956 0  17.61638658155822 18.97769537397667 0  33.73537729931415 -25.77589591942647 0  24.73997961918734 15.21076943546049 0  8.485234172185573 -21.16923340878047 0  5.475580683819548 -124.4611486544071 0  -17.64640446982813 -112.7987627232505 0  -9.395089065005203 95.98145189903876 0  8.680536635979092 101.991103071655 0  4.691137000429208 -33.67433064924618 0  -61.75140774099033 -1.690691256990998 0  -54.90884122351917 -8.277166082397638 0  -36.4543188472441 4.819405732897314 0  40.81426778110225 5.653200525237
[...]
<PointData  Vectors="f_44"> 
<DataArray  type="Float64"  Name="f_44"  NumberOfComponents="3" format="ascii">2.3103968792640367e-01 3.5507277712102783e-02 0.0000000000000000e+00  1.9225411894955041e-01 -1.1560856580250729e-01 0.0000000000000000e+00  1.8616792023088075e-01 -5.4781882662657121e-02 0.0000000000000000e+00  2.3072328819323781e-01 8.7993508722781416e-02 0.0000000000000000e+00  1.6584408391936109e-01 1.1815159376240036e-01 0.0000000000000000e+00  1.5329107345090826e-01 1.8645015166547807e-01 0.0000000000000000e+00  5.1328809551895319e-03 2.2366694253379571e-01 0.0000000000000000e+00  4.7591090321532657e-02 1.2811061658472847e-01 0.0000000000000000e+00  2.7341960101752383e-01 1.5411366127067908e-01 0.0000000000000000e+00  -4.6986973562455209e-02 3.5924828904862878e-02 0.0000000000000000e+00  -2.2056519463554289e-01 1.5976523804853940e-02 0.0000000000000000e+00  -1.3742566210272542e-01 1.6830915586091552e-01 0.0000000000000000e+00  -2.3916180792263628e-01 1.7763498424963626e-02 0.0000000000000000e+00  -2.1413940297739337e-01 6.5346275435757190e-02 0.0000000000000000e+00  -2.2379380454303227e-01 -5.5620938482064432e-02 0.0000000000000000e+00  -1.8713046459842003e-01 -1.7419716860826339e-02 0.0000000000000000e+00  -1.7457638869531286e-01 2.6209593388720742e-01 0.0000000000000000e+00  -8.7112968480194508e-02 -6.7482138121061228e-02 0.0000000000000000e+00  -1.0591048413573928e-01 -2.2788016547150663e-01 0.0000000000000000e+00  -1.5256925248218975e-01 -1.4948718639216985e-01 0.0000000000000000e+00  -7.8922133639154235e-02 -2.1740013090859062e-01 0.0000000000000000e+00  -6.9723442547495740e-02 -2.0968179236529755e-01 0.0000000000000000e+00  -2.3197202322854309e-02 -2.2489989099767688e-01 0.0000000000000000e+00  4.6511310290361062e-02 -2.1878747350442349e-01 0.0000000000000000e+00  1.7768509012715164e-02 -2.2048664031701964e-01 0.0000000000000000e+00  2.9289618700354906e-02 -2.1664863411433347e-01 0.0000000000000000e+00  1.1568325294539421e-01 -1.9681910625725765e-01 0.0000000000000000e+00  1.3435275075732464e-01 -1.7713398801140526e-01 0.0000000000000000e+00  1.6648194727271279e-01 -1.5058606710462744e-01 0.0000000000000000e+00  1.8908316549859805e-01 -1.1911262346883536e-01 0.0000000000000000e+00  2.0749734760097474e-01 -8.6221847782660732e-02 0.0000000000000000e+00  2.1999722702380228e-01 -3.5533335923635966e-02 0.0000000000000000e+00  2.2481436594147766e-01 1.6224996289903215e-03 0.0000000000000000e+00  2.2061983699478191e-01 3.4575557381471479e-02 0.0000000000000000e+00  2.0555630703553920e-01 9.0029084542942728e-02 0.0000000000000000e+00  1.7818270406498982e-01 1.3594049599916772e-01 0.0000000000000000e+00  1.4128236067447653e-01 1.7436330651658227e-01 0.0000000000000000e+00  8.7724542127935887e-02 2.0565600712169171e-01 0.0000000000000000e+00  3.4476003978992122e-02 2.2302493412808852e-01 0.0000000000000000e+00  -3.8988531275118615e-02 2.1977402094712839e-01 0.0000000000000000e+00  -1.1879933298200201e-01 1.9109988944063983e-01 0.0000000000000000e+00  -1.6384106458166200e-01 1.5516761586920524e-01 0.0000000000000000e+00  -2.0442471074201329e-01 8.8494217792491808e-02 0.0000000000000000e+00  -2.2694953775297666e-01 3.9923281583640030e-04 0.0000000000000000e+00  -2.0805943469500932e-01 -8.0466222156732020e-02 0.0000000000000000e+00  -1.6823634694028539e-01 -1.5245000447432230e-01 0.0000000000000000e+00  -9.1767331813073755e-02 -2.0287628660304802e-01 0.0000000000000000e+00  -1.8436901422886971e-02 -2.2473829657395078e-01 0.0000000000000000e+00  3.2925570881153429e-02 -2.2263971121856743e-01 0.0000000000000000e+00  1.0741355749728042e-01 -1.9546078883530058e-01 0.0000000000000000e+00  1.6527553985403337e-01 -1.5342300368329487e-01 0.0000000000000000e+00  1.9410073272944581e-01 -1.1085322003455569e-01 0.0000000000000000e+00  2.1629733788500383e-01 -6.0245048166166312e-02 0.0000000000000000e+00  2.2286676831698185e-01 -1.1038352322913086e-02 0.0000000000000000e+00  2.2451926975742015e-01 3.0291163122373392e-02 0.0000000000000000e+00  1.9675821765615936e-01 1.0001376869621803e-01 0.0000000000000000e+00  1.8871037741024266e-01 1.2134041718579180e-01 0.0000000000000000e+00  1.8367774383039287e-01 1.2454647805890159e-01 0.0000000000000000e+00  1.4326857489510356e-01 1.7477565468353745e-01 0.0000000000000000e+00  1.0728059778682779e-01 1.9424075392095602e-01 0.0000000000000000e+00  8.8484637830195029e-02 2.1000979177640350e-01 0.0000000000000000e+00  1.6352733963048073e-02 2.1670408765161150e-01 0.0000000000000000e+00  5.3402503305034779e-02 2.3452401413854548e-01 0.0000000000000000e+00  -3.7607586119374301e-02 1.7289536063064256e-01 0.0000000000000000e+00  -2.6123361709644788e-01 6.6855884624662118e-02 0.0000000000000000e+00  -1.3287460933957396e-01 1.6749583456232792e-01 0.0000000000000000e+00  -1.4450374034431063e-01 1.6270059460334954e-01 0.0000000000000000e+00  -1.9597048635780501e-01 1.3689410042465452e-01 0.0000000000000000e+00  -1.9268042040316907e-01 2.6916034778467435e-02 0.0000000000000000e+00  -2.7304653305807053e-01 9.2095687586345315e-02 0.0000000000000000e+00  2.5636158776571855e-02 -3.3565135225999375e-02 0.0000000000000000e+00  1.7050989460541341e-01 -6.8248870936892622e-02 0.0000000000000000e+00  -1.0729729660260140e-01 2.8999404376966464e-01 0.0000000000000000e+00  -1.1640758384810390e-01 5.8057880956766866e-02 0.0000000000000000e+00  -2.3344539711032952e-01 -1.3914943878283439e-01 0.0000000000000000e+00  -1.1142820248872040e-01 -1.2357319937754833e-01 0.0000000000000000e+00  -1.9004066693202207e-01 -2.0808218771322204e-01 0.0000000000000000e+00  1.1258386734379534e-01 -1.0805559308491132e-01 0.0000000000000000e+00  -1.1047794344399600e-01 -3.2881811270541454e-02 0.0000000000000000e+00  -2.0093842345011402e-03 6.3789352383444478e-02 0.0000000000000000e+00  1.6917420741986608e-01 2.2239738903849932e-01 0.0000000000000000e+00  -1.8967425710910663e-01 2.7985507157124494e-02 0.0000000000000000e+00  -2.7667399682448465e-02 -4.4499836864362416e-02 0.0000000000000000e+00  2.1057532609349494e-01 2.2169816605364798e-02 0.0000000000000000e+00  1.1698096695323752e-01 1.7633671517484843e-02 0.0000000000000000e+00  1.9468740563421583e-01 -2.8658294997239652e-03 0.0000000000000000e+00  -4.0999763692054020e-02 3.8226478748785965e-02 0.0000000000000000e+00  -2.0932212307022416e-01 -3.5604748527520901e-02 0.0000000000000000e+00  1.6771802663114541e-01 -2.1366200766962415e-01 0.0000000000000000e+00  -4.5422197415513179e-03 -7.8930797515336493e-02 0.0000000000000000e+00  -1.1899454878101914e-01 1.1726521816704029e-02 0.0000000000000000e+00  9.7356715149689479e-02 1.0037088746178477e-01 0.0000000000000000e+00  -2.2318021472160240e-01 1.7922276415354421e-01 0.0000000000000000e+00  -1.3120972766908912e-01 1.0501495810031569e-01 0.0000000000000000e+00  -2.3686177868320071e-01 1.1701248949468343e-01 0.0000000000000000e+00  -1.2647243869164557e-01 -6.3179289748158243e-02 0.0000000000000000e+00  -7.6053261542591441e-02 -2.8996339558354089e-01 0.0000000000000000e+00  1.9491655365051602e-01 3.4282490681362007e-02 0.0000000000000000e+00  3.3877515760885692e-02 1.9824646512134985e-02 0.0000000000000000e+00  -2.6272853163111243e-01 -1.1732585005692574e-01 0.0000000000000000e+00  -1.8968603997399283e-01 -4.1634072007824562e-02 0.0000000000000000e+00  -1.8503868294424258e-01 -1.5053435101448620e-01 0.0000000000000000e+00  -1.3528737904564300e-01 -1.7308187880280301e-01 0.0000000000000000e+00  -1.3101604420874341e-01 -1.6040294357563745e-01 0.0000000000000000e+00  -2.6524722390241889e-01 -6.8568240146039433e-02 0.0000000000000000e+00  -2.1819217592494240e-02 -1.7734741856540304e-01 0.0000000000000000e+00  6.6391418129181243e-02 -2.2946503087296918e-01 0.0000000000000000e+00  2.3364913748002956e-02 -2.1655675469445779e-01 0.0000000000000000e+00  9.5850684159469748e-02 -2.0655313636695255e-01 0.0000000000000000e+00  1.1101966629409493e-01 -1.9265509059359426e-01 0.0000000000000000e+00  1.4785484695109330e-01 -1.6926871490587858e-01 0.0000000000000000e+00  1.7611485429852830e-01 -1.3654471444925603e-01 0.0000000000000000e+00  1.7717818853217218e-01 -1.4025188508300937e-01 0.0000000000000000e+00  1.9920261245639276e-01 -9.3559442660609851e-02 0.0000000000000000e+00  2.2503206499837750e-01 -2.7582620181964369e-02 0.0000000000000000e+00  2.2290328139559742e-01 6.5136939357359905e-03 0.0000000000000000e+00  2.1852270700965845e-01 5.1395459633719956e-02 0.0000000000000000e+00  1.9981076034294676e-01 9.9621509316948104e-02 0.0000000000000000e+00  1.7954043877423226e-01 1.3700038067454368e-01 0.0000000000000000e+00  1.2690619668069053e-01 1.8234643438578216e-01 0.0000000000000000e+00  5.8712670625177051e-02 2.1766901460399388e-01 0.0000000000000000e+00  2.3491789300996751e-02 2.2389590318797484e-01 0.0000000000000000e+00  -4.5052904648076354e-02 2.1782699008953021e-01 0.0000000000000000e+00  -1.2762574613756072e-01 1.8746988048957539e-01 0.0000000000000000e+00  -1.8022676822305081e-01 1.3228596340014159e-01 0.0000000000000000e+00  -2.1845690788374428e-01 5.6622540691732712e-02 0.0000000000000000e+00  -2.2271307245557306e-01 -2.7283220551807947e-02 0.0000000000000000e+00  -1.9790751949790214e-01 -1.0768036109800289e-01 0.0000000000000000e+00  -1.4571573307513666e-01 -1.7051587522790035e-01 0.0000000000000000e+00  -8.1142744563042157e-02 -2.0991277624026761e-01 0.0000000000000000e+00  -1.1515240327661944e-02 -2.2378128455754134e-01 0.0000000000000000e+00  5.5737674352828594e-02 -2.1777011157216983e-01 0.0000000000000000e+00  1.1410468119946597e-01 -1.9255217619863293e-01 0.0000000000000000e+00  1.5822350569864804e-01 -1.5942597726816737e-01 0.0000000000000000e+00  1.9332291177074284e-01 -1.1368901398257619e-01 0.0000000000000000e+00  2.1656646670877538e-01 -5.4441532792818804e-02 0.0000000000000000e+00  2.2246389118924748e-01 -3.4289418486605286e-02 0.0000000000000000e+00  2.2182346797907279e-01 3.0992890156565441e-03 0.0000000000000000e+00  2.1604103907620090e-01 6.4604718929817131e-02 0.0000000000000000e+00  2.0115356924693958e-01 9.6797419132349904e-02 0.0000000000000000e+00  1.8162421515338983e-01 1.3182097418428121e-01 0.0000000000000000e+00  1.5350818325112794e-01 1.6142825879748746e-01 0.0000000000000000e+00  1.3292878129790672e-01 1.8397627479066192e-01 0.0000000000000000e+00  5.9432641541541320e-02 2.1212716716562779e-01 0.0000000000000000e+00  4.8824418424937024e-02 2.1711283575179366e-01 0.0000000000000000e+00  6.3145437729475118e-02 2.1376731745517605e-01 0.0000000000000000e+00  -1.7832676790202470e-03 2.2611417730998895e-01 0.0000000000000000e+00  -4.7113745059316231e-02 2.1594933859447363e-01 0.0000000000000000e+00  -5.7667079848936049e-02 2.2354781317016770e-01 0.0000000000000000e+00  -1.3432195410988065e-01 1.6612164526241974e-01 0.0000000000000000e+00  -8.6180256575239658e-02 2.3605150912501868e-01 0.0000000000000000e+00  -8.3899352606795319e-02 7.9439893921469842e-02 0.0000000000000000e+00  -2.0369173721096226e-01 -2.3792752935632056e-01 0.0000000000000000e+00  -1.8740010192070197e-01 4.0350498858780511e-02 0.0000000000000000e+00  -2.1616776125935583e-01 7.7918451965271071e-02 0.0000000000000000e+00  -2.2037346614291226e-01 -3.7590090069418679e-02 0.0000000000000000e+00  -2.3970150658596362e-01 1.0695744044511653e-02 0.0000000000000000e+00  -1.5650860881573569e-01 -1.4796643604865714e-01 0.0000000000000000e+00  -2.2553374582089875e-01 5.4410558822749573e-03 0.0000000000000000e+00  -4.9490108331690659e-02 -2.4619684270995708e-02 0.0000000000000000e+00  2.6685506238534701e-01 -1.7516795293553833e-01 0.0000000000000000e+00  2.5709634189307336e-02 -1.3024065955736050e-01 0.0000000000000000e+00  -2.7009807160930085e-02 -2.2390317103652690e-01 0.0000000000000000e+00  1.2807000217343728e-01 -2.0237624994891354e-01 0.0000000000000000e+00  1.4543790143596702e-01 -1.4952626862464613e-01 0.0000000000000000e+00  2.1814230229733622e-01 -9.9964898709852229e-02 0.0000000000000000e+00  2.0744731760625024e-01 1.8149998326958884e-02 0.0000000000000000e+00  2.0896774079708949e-01 8.9172746710794351e-02 0.0000000000000000e+00  -1.9354683551748122e-01 -1.1944514702710980e-01 0.0000000000000000e+00  -3.2778362380788358e-02 2.2270178681102831e-01 0.0000000000000000e+00  -1.1280650805929751e-01 -1.9463235791785655e-01 0.0000000000000000e+00  -2.0965064585550253e-01 8.6845771387088280e-02 0.0000000000000000e+00  -1.2237331742503536e-01 -1.8925174880177839e-01 0.0000000000000000e+00  8.0245213243484589e-02 2.1018419420508214e-01 0.0000000000000000e+00  -1.2856744521008409e-01 1.8467332125286759e-01 0.0000000000000000e+00  2.2736813961898619e-01 -8.0342113807912216e-02 0.0000000000000000e+00  2.9071288366289701e-02 -2.2298918017798450e-01 0.0000000000000000e+00  -1.5145985279263796e-01 1.6551091650441072e-01 0.0000000000000000e+00  2.2571638662410079e-01 -8.0573566169669916e-02 0.0000000000000000e+00  1.9415787909207891e-01 -1.1720976952893251e-01 0.0000000000000000e+00  -1.7986242568332078e-01 -1.3389177534519039e-01 0.0000000000000000e+00  1.9936318348371429e-01 -1.0457316448424593e-01 0.0000000000000000e+00  2.1945102737083208e-01 -4.3455921864327181e-02 0.0000000000000000e+00  2.2459318719810722e-01 1.9067986098652043e-02 0.0000000000000000e+00  -3.1068627923663650e-02 -2.2506704985860715e-01 0.0000000000000000e+00  2.1125143278128286e-01 -1.0527644054165156e-01 0.0000000000000000e+00  2.2424190054283724e-01 1.3595102113631225e-02 0.0000000000000000e+00  2.2446232906868371e-01 1.0316454505720793e-02 0.0000000000000000e+00  1.1769722396492342e-01 1.9099534453909880e-01 0.0000000000000000e+00  -2.2377359352506418e-01 -2.1759727330733059e-02 0.0000000000000000e+00  -2.0355003591539253e-01 9.6091271374889084e-02 0.0000000000000000e+00  -6.2591848725258387e-02 2.1603597241622141e-01 0.0000000000000000e+00  -7.1805490130159534e-03 -2.2516744156301222e-01 0.0000000000000000e+00  -9.5150985911106115e-03 2.2416213270517246e-01 0.0000000000000000e+00  2.0249917189252431e-01 9.4893991257799265e-02 0.0000000000000000e+00  2.1839166408469857e-01 -5.3234200817028038e-02 0.0000000000000000e+00  2.2363960936565333e-01 -1.3660810119594887e-02 0.0000000000000000e+00  -1.8800225172697982e-01 1.2355774559787371e-01 0.0000000000000000e+00  -1.4680524994767219e-01 -1.7228109587454762e-01 0.0000000000000000e+00  -2.2631119211245362e-01 -1.0484811755072142e-02 0.0000000000000000e+00  -1.9016011505818498e-01 -1.2885996398142893e-01 0.0000000000000000e+00  -8.1922268452307476e-02 2.1024976802381465e-01 0.0000000000000000e+00  -1.4998293507254767e-02 -2.2509678249067344e-01 0.0000000000000000e+00  2.1644166804333825e-01 -7.0079846093950834e-02 0.0000000000000000e+00  -2.1666972772291935e-02 -2.2500512791138183e-01 0.0000000000000000e+00  -3.3486883708258169e-02 -2.2323281103108888e-01 0.0000000000000000e+00  2.2459116915649679e-01 -2.6591228003558978e-02 0.0000000000000000e+00  -2.1223823870678425e-03 2.2632836177311855e-01 0.0000000000000000e+00  7.4869366845516733e-02 2.1276932930620898e-01 0.0000000000000000e+00  -7.7054428862364452e-02 2.1237264224740893e-01 0.0000000000000000e+00  -8.9401408777055227e-02 -2.3761553377687331e-01 0.0000000000000000e+00  -6.7113346355439890e-02 2.2029376774298046e-01 0.0000000000000000e+00  -2.2566201417773804e-01 2.5237861254898855e-03 0.0000000000000000e+00  1.4292955283262315e-01 1.7564111913110528e-01 0.0000000000000000e+00  2.0903024346794891e-01 8.1510451367929240e-02 0.0000000000000000e+00  7.5614027831304997e-02 2.1199654652284519e-01 0.0000000000000000e+00  2.1772326823256044e-01 5.3676295807577316e-02 0.0000000000000000e+00  1.7861056083438021e-01 -1.3617550941783774e-01 0.0000000000000000e+00  -1.8666138495019788e-01 1.2601218266245037e-01 0.0000000000000000e+00  -2.1318725397221971e-01 -6.9812344796932338e-02 0.0000000000000000e+00  1.7122643615297850e-01 1.4640367760093714e-01 0.0000000000000000e+00  1.8761753169919573e-01 1.2396221766456049e-01 0.0000000000000000e+00  2.0252274736836839e-01 -9.8845993197271442e-02 0.0000000000000000e+00  -2.2494193039561397e-01 -4.4029450214513634e-03 0.0000000000000000e+00  -2.1004057232939249e-01 -8.4687645133049341e-02 0.0000000000000000e+00  -8.8904454382565598e-03 -2.2454743284477957e-01 0.0000000000000000e+00  -1.7944914329368059e-01 -1.3493924839679600e-01 0.0000000000000000e+00  -1.5469134058597192e-01 1.6288535044047042e-01 0.0000000000000000e+00  2.3016855540996081e-02 2.2355181856895931e-01 0.0000000000000000e+00  7.8845212287895233e-02 -2.1012865225388216e-01 0.0000000000000000e+00  -1.2358061665900648e-01 -1.8752435312331600e-01 0.0000000000000000e+00  -1.2096303960438529e-01 1.8895976995294086e-01 0.0000000000000000e+00  7.3585927001893203e-02 2.1203922263860434e-01 0.0000000000000000e+00  2.5484958125918031e-02 2.2305899442334923e-01 0.0000000000000000e+00  1.7924401994955655e-01 1.3525118392627739e-01 0.0000000000000000e+00  1.3474325731789843e-01 -1.7984998664023311e-01 0.0000000000000000e+00  -3.5421229736678855e-02 -2.2190465480499647e-01 0.0000000000000000e+00  -2.1964020968478234e-01 -5.1792736005683522e-02 0.0000000000000000e+00  -7.8523947743343619e-02 2.1099246860062457e-01 0.0000000000000000e+00  -9.5065103048876123e-02 -2.0433491992969191e-01 0.0000000000000000e+00  -2.0613278135713378e-01 9.2418470846989953e-02 0.0000000000000000e+00  1.7617074868141122e-01 1.4005979440048066e-01 0.0000000000000000e+00  1.0576565651285065e-01 2.1365889552688586e-01 0.0000000000000000e+00  -1.8002512019578290e-01 1.3900664270215538e-01 0.0000000000000000e+00  -1.8578745509595115e-01 -1.2899900794348801e-01 0.0000000000000000e+00  -4.9217715992974004e-02 -2.1947384314833326e-01 0.0000000000000000e+00  1.4319535273251158e-01 -1.7980270170106255e-01 0.0000000000000000e+00  -2.2373512566928733e-01 3.9749633479591817e-02 0.0000000000000000e+00  1.3760758299343448e-01 -1.7640615960539874e-01 0.0000000000000000e+00  1.9247225189172051e-01 -1.1430604968825589e-01 0.0000000000000000e+00  2.2040591976294077e-01 -4.2356636910698076e-02 0.0000000000000000e+00  -2.2134578229593238e-01 -3.8275637541474387e-02 0.0000000000000000e+00  -2.1709035286837486e-01 5.7239297477185563e-02 0.0000000000000000e+00  -2.2485781891612855e-01 1.0776855284227508e-02 0.0000000000000000e+00  -3.0662079602983432e-02 2.2495934445009333e-01 0.0000000000000000e+00  -2.2203054592576418e-01 -3.8133700846823063e-02 0.0000000000000000e+00  8.5815105552321094e-02 2.0895660622991322e-01 0.0000000000000000e+00  8.5699310001771237e-02 -2.0834173125488809e-01 0.0000000000000000e+00  1.0206939142704481e-01 -2.0084805992534244e-01 0.0000000000000000e+00  1.0280370626583697e-01 -2.0524111039740864e-01 0.0000000000000000e+00  -5.7388443693784472e-02 -2.1855298333698320e-01 0.0000000000000000e+00  2.2421078401781627e-01 1.2636883335173705e-02 0.0000000000000000e+00  2.2597485038182713e-01 -3.1385697983087574e-02 0.0000000000000000e+00  1.0985090023543748e-01 -1.9654517691191434e-01 0.0000000000000000e+00  -6.7704112688738846e-03 2.3881587894732292e-01 0.0000000000000000e+00  2.2400297419081111e-01 3.1373851424971472e-03 0.0000000000000000e+00  2.1260029157285806e-01 -7.2730783835302168e-02 0.0000000000000000e+00  2.2448504531692039e-02 -2.2399092204673912e-01 0.0000000000000000e+00  8.0517066071707777e-02 2.1040556691263207e-01 0.0000000000000000e+00  2.2470498320670518e-01 8.1048763155438658e-03 0.0000000000000000e+00  2.6388003197076970e-01 6.7274586648947018e-02 0.0000000000000000e+00  2.1249672166646946e-01 -7.4517117933014090e-02 0.0000000000000000e+00  9.1429901063334110e-03 2.2674053686811274e-01 0.0000000000000000e+00  1.6958117145219287e-01 1.4732093959150089e-01 0.0000000000000000e+00  2.1586844221889723e-01 -6.1413449436623975e-02 0.0000000000000000e+00  1.2058397755526370e-01 -1.8959012265414585e-01 0.0000000000000000e+00  2.1485575660208003e-01 6.5088468004390290e-02 0.0000000000000000e+00  1.6709069419358097e-01 -1.5029291812190393e-01 0.0000000000000000e+00  1.0132310861865451e-01 2.0064142028638485e-01 0.0000000000000000e+00  -1.9958702941337078e-01 1.1147741168625780e-01 0.0000000000000000e+00  -1.1563310454610119e-0