<?xml version="1.0"?>
<VTKFile type="UnstructuredGrid"  version="0.1"  >
<UnstructuredGrid>
<Piece  NumberOfPoints="2549" NumberOfCells="4928">
<Points>
<DataArray  type="Float64"  NumberOfComponents="3"  format="ascii">-67.3108377612017 4.023040907395634 0  -67.38598709534079 -0.3796499733411927 0  -69.40428187525629 -6.272247460091426 0  -68.63239067667276 -11.48758664381889 0  -67.72732777696714 -16.83525085569029 0  -65.46516318188679 -21.44711876052883 0  -63.12272012514942 -25.859416187146 0  -59.1911594964404 -28.96494181347605 0  -58.34712776829994 -33.76946638267631 0  -55.36576031408286 -41.0812282795189 0  -48.29960112901428 -40.07730433853752 0  -44.1849776913838 -42.41534047911723 0  -39.02508865958262 -42.98283085936954 0  -34.18853611040041 -43.54970728214825 0  -29.3028838660053 -43.77192699600917 0  -24.18527400444325 -42.83614428883673 0  -21.03186413447274 -44.03187965235892 0  -15.62252266557745 -46.38900083428693 0  -9.395348822002111 -41.7635517130584 0  -4.662214479642591 -40.05576051685389 0  0.290356930062452 -36.91451476831755 0  4.894416021629477 -33.76384912919107 0  9.363882923944583 -30.08109520733224 0  13.66021916894768 -25.63878319900065 0  17.05562590879122 -21.19889481173341 0  20.57116302034134 -17.82994720432746 0  23.96622692924407 -12.64982935216547 0  26.82191215840401 -7.346073900321755 0  29.2293288324361 -1.771871563920419 0  31.14632354570385 4.006435741348861 0  32.54555702447288 9.901204017797447 0  33.41410004911182 16.020247086635 0  33.52285695775421 21.82261837674621 0  33.34018378848035 27.37401935078178 0  32.44584474120769 33.36829354078364 0  30.91624378367126 38.84125264664592 0  28.79062272734295 44.03323413487504 0  26.09500583091376 48.77225961887393 0  22.87046140970096 52.96684604727917 0  19.18781880395873 56.66907317728191 0  15.01359550495823 59.4680822382658 0  10.69393902652913 61.48308339763386 0  6.065509780191532 62.93190709014528 0  1.346158910555628 63.36860585592643 0  -3.36328254201011 62.96605084564158 0  -7.943443522755084 61.64401075989871 0  -12.28000193586456 59.50881757270585 0  -16.2666711639081 56.35409467692218 0  -19.70170461634368 52.85202735532645 0  -22.86329801603767 48.58665808631292 0  -25.31261352302195 43.4782977269394 0  -27.15344298243183 38.01175635124967 0  -28.3448985192718 32.16844454217895 0  -28.86655491648887 26.00778218418017 0  -28.74463929984968 19.86045837303641 0  -27.85951088879578 12.99126069870911 0  -26.2391065117358 7.877230665551858 0  -24.8286553960618 2.236194042673451 0  -22.3429692437336 -3.987630972617033 0  -19.42148347047869 -9.614240457562932 0  -16.09524045673711 -14.84718757595479 0  -12.28962679193416 -20.05229985299304 0  -8.347977071892707 -24.01568762917577 0  -3.380400620499501 -30.35983036316244 0  1.975924696171728 -31.67801687500068 0  5.472775163285895 -32.51890515596433 0  10.32060032634122 -35.19321181347724 0  15.10971822990046 -36.717868003991 0  20.1225525202034 -38.15783734617765 0  24.72675605195592 -38.04692311654411 0  30.35650912373021 -39.63108203726614 0  32.53850107533152 -33.25220652812779 0  34.9734852707097 -35.37230877030386 0  44.27684609242262 -41.01141657309989 0  49.09758281942535 -39.32690494579065 0  54.97941151216542 -38.29836256593244 0  59.10436113548936 -35.31895935193593 0  64.78638058563901 -33.19521085793229 0  65.88868355422009 -26.9352415477527 0  76.40456119899439 -27.21941973346211 0  71.65302392459267 -12.5575615643951 0  63.60709045735282 -6.353722699598697 0  70.61007714666989 -3.39314903817979 0  68.28617287556872 1.785670856790474 0  70.30641526940313 6.710500010068189 0  67.80107291665718 11.6107773468099 0  70.04043386386229 16.72905902500321 0  62.17037698748869 19.46946528407374 0  70.7583573797713 25.74019764618957 0  75.70775004370898 41.12367867845628 0  63.98565708109013 40.03152749049935 0  62.81326030045602 46.32239239584444 0  56.59473420257928 48.04812673718586 0  52.16723234247947 50.77661047829368 0  45.92763590023665 51.47631607117823 0  40.95534155560206 53.08464187581502 0  30.95782329329795 46.93860498764436 0  27.97508556305234 43.36946393087852 0  25.91076694237243 50.17923183226026 0  19.95179142587963 48.07728305712099 0  15.16587091165268 48.02864782000769 0  9.891021089838397 46.27110024545658 0  4.879893693163579 44.50896548930103 0  -0.2046775677475872 41.55936362209533 0  -3.904096505597914 40.80872686094929 0  -9.768751211841666 39.19376495719467 0  -15.15107416327802 31.79862573252 0  -19.3768828817869 27.41402694659148 0  -23.51304760747979 21.52982850780856 0  -27.14993169556937 15.64522284576304 0  -30.34680644768658 9.340078242426603 0  -33.01489364424043 2.586979768937144 0  -34.86845746326568 -3.292976989793772 0  -37.01744615595995 -9.91894702357593 0  -38.02978208628603 -18.61725659476521 0  -38.19928683948334 -25.80590592256216 0  -37.68795494912495 -33.33359000220646 0  -36.41729674775245 -40.46388086829611 0  -34.40607202212541 -47.26971171565476 0  -31.69027135977931 -53.85450893618081 0  -28.02073807659527 -59.3690472161172 0  -24.14302890028283 -63.98400068239279 0  -19.51325922889625 -68.50874409197594 0  -14.38997797187296 -71.79767333870686 0  -8.899178347372652 -74.15808478326095 0  -3.167245984249554 -75.42630707787438 0  2.663745902083698 -75.63040891482646 0  8.462690082380147 -74.71766733391604 0  14.07998692829442 -72.74498488496991 0  19.36128253454763 -69.74110268269281 0  24.22665427684396 -65.84037875679397 0  28.55016780259503 -61.07216071005859 0  32.25023854064053 -55.59097630594063 0  35.25937818644885 -49.45733354171949 0  37.54225416922875 -42.97735120931333 0  39.02018857985071 -35.62330886571461 0  39.54387556976114 -29.33522037888613 0  39.99123369926 -22.50611264056814 0  39.34697647647118 -15.0464791449562 0  38.0786646650317 -7.994151912083016 0  36.20043842820673 -1.09955645738644 0  33.75023382221634 5.521219015082732 0  30.78283396480819 11.81633279203062 0  27.22700412375301 17.86966100314879 0  23.52273944676559 22.08440098365293 0  19.86789535190951 27.3430208017361 0  15.31823360746471 32.47078145689557 0  10.57061541474728 36.8011123315923 0  5.687924532406878 40.52588943740963 0  0.4370771042757379 44.22521688103359 0  -4.562499317577664 46.35891165701128 0  -11.14419853037862 51.61774851501725 0  -16.88452667069185 49.51398515661844 0  -20.23446351171298 48.51309001846555 0  -25.60672959901783 49.77328756957544 0  -30.74341413212507 49.84008623854623 0  -35.84553305663927 49.56866949886894 0  -41.29042291235518 49.29460407314859 0  -45.64200996981911 47.16510301122361 0  -53.10433291457908 48.55959041259415 0  -56.29305628953822 41.24461626159706 0  -57.31631376077641 36.58148939538309 0  -61.56956108261708 33.6883492041018 0  -64.21662604639737 29.43927539514539 0  -66.79505258695801 24.96115583702193 0  -68.13242461479084 19.74555432714883 0  -68.96499459242875 14.48253676616679 0  -67.81391359005882 8.762944124161283 0  3.066644649317046 39.09413363712872 0  -3.638198142998944 -0.761981091708782 0  12.54729802557883 11.2003659873311 0  0.1499081274682466 -48.53859447183579 0  -7.800070653021418 -1.799172189412569 0  -42.97293617546498 -15.18702547883793 0  17.21480570686406 -5.989560316982785 0  51.84260027169631 5.465609274904903 0  -41.73628826056478 20.35128676474129 0  29.85214537652602 25.92339219549296 0  36.62227563441989 4.28094836969956 0  22.22857796881357 -0.4056157059206459 0  34.12072872965305 -16.44567129316829 0  6.091592817873067 -34.47432189809111 0  -11.70814716777401 -20.05543399960119 0  2.990599026716855 25.87725617266495 0  -25.56229106866546 1.117060618338355 0  -33.97787820607174 0.9918384832911986 0  -0.07520449192069489 -22.11696767400245 0  4.184920723408199 19.68633205107272 0  14.51846152580415 12.67957117677171 0  -24.30455797816797 20.47080644771945 0  -26.73943840125142 -17.68327177412958 0  -20.53207170548714 -4.058645519956613 0  -5.623680531478516 4.361600234030405 0  25.62979926036979 4.360093254087107 0  4.264848991096286 -15.91207629359716 0  -40.53763666096852 1.960757315591371 0  -54.08324339406806 3.202905514458079 0  -13.92505552332756 12.3942242122336 0  -31.98947614656992 9.229303317189267 0  -24.17460388812844 4.38350369184725 0  -29.11120292478162 1.398999694389255 0  -13.39137123713785 -4.075716948745077 0  -35.76253247517111 12.74030717385192 0  -37.04953485883895 1.458486233176911 0  38.09975135919581 -4.664372857800356 0  45.45099396056073 -7.870354441617654 0  43.58905570521237 5.080142419741763 0  35.74458301718245 13.89553742266597 0  43.5275270688002 18.36556258080672 0  47.26371283570623 27.25462996076251 0  58.43645921223602 16.48761723821295 0  59.1450684816952 -4.497933316961304 0  49.22515516587531 -16.2033167119385 0  1.962908593819204 -32.71574565058524 0  6.264734588927152 -21.45680200498977 0  -1.860839734177483 -38.33353216188436 0  13.87093889935498 -7.187186040112617 0  12.28212278460913 -9.387042093095342 0  29.76828015176289 35.80275188895997 0  34.05591148591433 -25.37784299152201 0  -5.738796435955347 -17.02045384298747 0  -16.3017021222245 -10.31622212627657 0  -2.292765639578961 -26.79469344552438 0  25.64029994060064 -13.28095638379994 0  31.69661354366215 -3.242052612633468 0  -45.52290014810066 30.14265609192622 0  -30.09697824023854 35.3302212906917 0  -32.72178364982305 -30.16834544904939 0  -47.24933073510059 -23.92715434592326 0  -8.951014277080045 5.554800632434666 0  3.392019452498451 24.22084167155494 0  8.754308372441294 -17.29739067301688 0  -2.781058005896616 -1.425625400483961 0  9.242880438456513 9.144523375175266 0  17.18982646812222 -13.257046242717 0  12.6921276280588 7.974483000734013 0  4.677304233770174 -10.24029239257717 0  2.744487855058856 -62.62845767628896 0  -8.931730080714336 -56.7939203593688 0  -4.812761828675607 48.38872060982723 0  4.340276380765893 51.39689054747723 0  2.606176044295145 -17.11445654128513 0  -30.56212863237963 -0.7983595375884559 0  -27.06946899096096 -4.008274523802862 0  -17.94157006593278 2.585658165416005 0  20.03003060180949 2.6744167741187
[...]
<PointData  Vectors="f_44"> 
<DataArray  type="Float64"  Name="f_44"  NumberOfComponents="3" format="ascii">2.3115403861818182e-01 3.5675947853363262e-02 0.0000000000000000e+00  1.9177584376504239e-01 -1.1637128026784417e-01 0.0000000000000000e+00  1.8579366562762101e-01 -5.5407202416626604e-02 0.0000000000000000e+00  2.3100242200667029e-01 8.7630996380869575e-02 0.0000000000000000e+00  1.6587822559450652e-01 1.1785633440495623e-01 0.0000000000000000e+00  1.5352129900798392e-01 1.8641566850783634e-01 0.0000000000000000e+00  4.7280720812755746e-03 2.2371909314306487e-01 0.0000000000000000e+00  4.7429924300957292e-02 1.2717824975544723e-01 0.0000000000000000e+00  2.7396346260883014e-01 1.5352031238336106e-01 0.0000000000000000e+00  -4.6563849463870231e-02 3.5021476384233148e-02 0.0000000000000000e+00  -2.2065891864921147e-01 1.4738728474124734e-02 0.0000000000000000e+00  -1.3790668519812932e-01 1.6775911989270811e-01 0.0000000000000000e+00  -2.3938724263719155e-01 1.6338069310434324e-02 0.0000000000000000e+00  -2.1448398755179618e-01 6.4193001821000545e-02 0.0000000000000000e+00  -2.2343464110784250e-01 -5.7138963296139142e-02 0.0000000000000000e+00  -1.8683954668434286e-01 -1.8779327118158377e-02 0.0000000000000000e+00  -1.7522966365653270e-01 2.6222271742402592e-01 0.0000000000000000e+00  -8.6183448676953850e-02 -6.7918220642244301e-02 0.0000000000000000e+00  -1.0444038856712984e-01 -2.2878676194931988e-01 0.0000000000000000e+00  -1.5126822509221788e-01 -1.5069745702558801e-01 0.0000000000000000e+00  -7.7166932813958797e-02 -2.1804643399930312e-01 0.0000000000000000e+00  -6.7901407327332547e-02 -2.1026844558924065e-01 0.0000000000000000e+00  -2.1324880994679753e-02 -2.2510131227065425e-01 0.0000000000000000e+00  4.8443742018193681e-02 -2.1834127428457037e-01 0.0000000000000000e+00  2.0062649572716154e-02 -2.2029078016215015e-01 0.0000000000000000e+00  3.1367540828404789e-02 -2.1639880282545340e-01 0.0000000000000000e+00  1.1740712075877932e-01 -1.9576342882412556e-01 0.0000000000000000e+00  1.3601851550101166e-01 -1.7587060910923760e-01 0.0000000000000000e+00  1.6787848138334954e-01 -1.4902420373513542e-01 0.0000000000000000e+00  1.9020641495881160e-01 -1.1730795121593859e-01 0.0000000000000000e+00  2.0830070915012003e-01 -8.4272679227171368e-02 0.0000000000000000e+00  2.2032254824419767e-01 -3.3443383814241480e-02 0.0000000000000000e+00  2.2478211145226928e-01 3.9281124191920831e-03 0.0000000000000000e+00  2.2028815092108128e-01 3.6712787207715751e-02 0.0000000000000000e+00  2.0470501142392514e-01 9.1910753297054157e-02 0.0000000000000000e+00  1.7690541605155199e-01 1.3761185637147239e-01 0.0000000000000000e+00  1.3971084613509638e-01 1.7561649934850304e-01 0.0000000000000000e+00  8.5962762335417220e-02 2.0640087685427011e-01 0.0000000000000000e+00  3.2708786825671417e-02 2.2327797929672513e-01 0.0000000000000000e+00  -4.0492410627715525e-02 2.1950655319008328e-01 0.0000000000000000e+00  -1.1984250447258187e-01 1.9043273795752791e-01 0.0000000000000000e+00  -1.6449064867378371e-01 1.5445082068664340e-01 0.0000000000000000e+00  -2.0464648428587545e-01 8.7998062633887333e-02 0.0000000000000000e+00  -2.2691553594947425e-01 3.5313877942326775e-04 0.0000000000000000e+00  -2.0821285498786832e-01 -8.0073155851224820e-02 0.0000000000000000e+00  -1.6880824040076209e-01 -1.5177495076927780e-01 0.0000000000000000e+00  -9.2924030404809357e-02 -2.0234950144014768e-01 0.0000000000000000e+00  -2.0056527992063228e-02 -2.2459100980006128e-01 0.0000000000000000e+00  3.1140120340006915e-02 -2.2288596268338468e-01 0.0000000000000000e+00  1.0576720927275136e-01 -1.9636277453318901e-01 0.0000000000000000e+00  1.6390209381241316e-01 -1.5488060390448238e-01 0.0000000000000000e+00  1.9308219643706118e-01 -1.1262608996628190e-01 0.0000000000000000e+00  2.1573444454985766e-01 -6.2193668602547485e-02 0.0000000000000000e+00  2.2277514106400548e-01 -1.3128022114992253e-02 0.0000000000000000e+00  2.2472730915817690e-01 2.8372591944626564e-02 0.0000000000000000e+00  1.9773407833593781e-01 9.8198777807293164e-02 0.0000000000000000e+00  1.9001515748833792e-01 1.1928011668161194e-01 0.0000000000000000e+00  1.8477049401844070e-01 1.2288245295082306e-01 0.0000000000000000e+00  1.4476333198787106e-01 1.7355502268803097e-01 0.0000000000000000e+00  1.0904358335915239e-01 1.9325553131464357e-01 0.0000000000000000e+00  9.0248909122994825e-02 2.0924739379715010e-01 0.0000000000000000e+00  1.8355917789445841e-02 2.1652996298606397e-01 0.0000000000000000e+00  5.5231681154310194e-02 2.3418859824591001e-01 0.0000000000000000e+00  -3.6381987298208164e-02 1.7308468037269070e-01 0.0000000000000000e+00  -2.6082002818814154e-01 6.8700324360666809e-02 0.0000000000000000e+00  -1.3133329682480810e-01 1.6887048422840059e-01 0.0000000000000000e+00  -1.4319369258639289e-01 1.6379190470324315e-01 0.0000000000000000e+00  -1.9495395809203037e-01 1.3842601363624601e-01 0.0000000000000000e+00  -1.9237938771461008e-01 2.8258415199928232e-02 0.0000000000000000e+00  -2.7264713694515003e-01 9.3592061328760037e-02 0.0000000000000000e+00  2.6171772728966095e-02 -3.2454860468895258e-02 0.0000000000000000e+00  1.7251169175976527e-01 -6.7361717103450611e-02 0.0000000000000000e+00  -1.0513266677032172e-01 2.9033291064062905e-01 0.0000000000000000e+00  -1.1626344586556731e-01 5.8902365114572822e-02 0.0000000000000000e+00  -2.3412039407834495e-01 -1.3810693110250599e-01 0.0000000000000000e+00  -1.1173202878955084e-01 -1.2288920612376641e-01 0.0000000000000000e+00  -1.9090477762660940e-01 -2.0771273402599461e-01 0.0000000000000000e+00  1.1258288402836689e-01 -1.0719796512669848e-01 0.0000000000000000e+00  -1.1062297380276030e-01 -3.1825728246138524e-02 0.0000000000000000e+00  -2.0008514798822729e-03 6.4657176173745973e-02 0.0000000000000000e+00  1.6834654181045958e-01 2.2234738669263690e-01 0.0000000000000000e+00  -1.9081200032025045e-01 2.8279601993468087e-02 0.0000000000000000e+00  -2.8722428835456400e-02 -4.3501493111471001e-02 0.0000000000000000e+00  2.0987654194237026e-01 2.2263826119857975e-02 0.0000000000000000e+00  1.1638309565008023e-01 1.7673179784766423e-02 0.0000000000000000e+00  1.9382143577788313e-01 -2.9142581341093112e-03 0.0000000000000000e+00  -4.1951550737937021e-02 3.7172956370161409e-02 0.0000000000000000e+00  -2.1032278102066884e-01 -3.5877090717915117e-02 0.0000000000000000e+00  1.6689592516077395e-01 -2.1358691420953296e-01 0.0000000000000000e+00  -4.4774550669073390e-03 -7.9744341354009443e-02 0.0000000000000000e+00  -1.1906701242466206e-01 1.0727709109424475e-02 0.0000000000000000e+00  9.7349483702252243e-02 9.9431368418270938e-02 0.0000000000000000e+00  -2.2405930338129959e-01 1.7863541846330735e-01 0.0000000000000000e+00  -1.3151943785994638e-01 1.0421313245492277e-01 0.0000000000000000e+00  -2.3742827795946742e-01 1.1590033612935526e-01 0.0000000000000000e+00  -1.2629378174759931e-01 -6.4132574381135107e-02 0.0000000000000000e+00  -7.4194248630537557e-02 -2.8985701872975334e-01 0.0000000000000000e+00  1.9645360929966255e-01 3.3799841670105087e-02 0.0000000000000000e+00  3.4536182365984568e-02 1.8634132620714144e-02 0.0000000000000000e+00  -2.6217705444085465e-01 -1.1871846796770635e-01 0.0000000000000000e+00  -1.8929061545818793e-01 -4.2980313623516030e-02 0.0000000000000000e+00  -1.8393757889808243e-01 -1.5193871017245159e-01 0.0000000000000000e+00  -1.3394100565136829e-01 -1.7407603952665604e-01 0.0000000000000000e+00  -1.2960940362692919e-01 -1.6167737358474288e-01 0.0000000000000000e+00  -2.6487904186921968e-01 -7.0313885885934915e-02 0.0000000000000000e+00  -2.0681322754737615e-02 -1.7743755316664242e-01 0.0000000000000000e+00  6.8015455670653521e-02 -2.2907487361639836e-01 0.0000000000000000e+00  2.5203712896766296e-02 -2.1633886365631821e-01 0.0000000000000000e+00  9.7405113591833736e-02 -2.0581147580887091e-01 0.0000000000000000e+00  1.1259338231990237e-01 -1.9174063574151504e-01 0.0000000000000000e+00  1.4915682363516078e-01 -1.6813115617445376e-01 0.0000000000000000e+00  1.7728334221197539e-01 -1.3502224465547280e-01 0.0000000000000000e+00  1.7843257134217086e-01 -1.3859447175698247e-01 0.0000000000000000e+00  1.9989218596103964e-01 -9.2180836302880501e-02 0.0000000000000000e+00  2.2519455065167049e-01 -2.5982858007477915e-02 0.0000000000000000e+00  2.2286342252833710e-01 8.2781045550468103e-03 0.0000000000000000e+00  2.1812489175806923e-01 5.3009974130941800e-02 0.0000000000000000e+00  1.9905197412715012e-01 1.0114110680591500e-01 0.0000000000000000e+00  1.7853174420862675e-01 1.3830225169431892e-01 0.0000000000000000e+00  1.2564231002952234e-01 1.8322811633004246e-01 0.0000000000000000e+00  5.7211693503130795e-02 2.1805932229718941e-01 0.0000000000000000e+00  2.2055515229229057e-02 2.2403909999212518e-01 0.0000000000000000e+00  -4.6210770303827954e-02 2.1758219798715217e-01 0.0000000000000000e+00  -1.2839763450170597e-01 1.8692253412228849e-01 0.0000000000000000e+00  -1.8058870666687282e-01 1.3178586643114229e-01 0.0000000000000000e+00  -2.1850420123490991e-01 5.6373527926132955e-02 0.0000000000000000e+00  -2.2272203902276386e-01 -2.7146839487340840e-02 0.0000000000000000e+00  -1.9814046800679533e-01 -1.0722176189903664e-01 0.0000000000000000e+00  -1.4635588415138673e-01 -1.6995955343149335e-01 0.0000000000000000e+00  -8.2184113701706404e-02 -2.0949773082568190e-01 0.0000000000000000e+00  -1.2833759268223716e-02 -2.2370603301872688e-01 0.0000000000000000e+00  5.4298995325271986e-02 -2.1813135574155074e-01 0.0000000000000000e+00  1.1274549774687653e-01 -1.9334292573314457e-01 0.0000000000000000e+00  1.5702923781111258e-01 -1.6061835588908202e-01 0.0000000000000000e+00  1.9246976097301410e-01 -1.1508097259139091e-01 0.0000000000000000e+00  2.1614019303145757e-01 -5.6192182752835960e-02 0.0000000000000000e+00  2.2215038740796894e-01 -3.6260547743736000e-02 0.0000000000000000e+00  2.2183601744698378e-01 1.3724043183075659e-03 0.0000000000000000e+00  2.1654383649852216e-01 6.2914682504047165e-02 0.0000000000000000e+00  2.0193013781381017e-01 9.5160466423019466e-02 0.0000000000000000e+00  1.8267748025210859e-01 1.3035493648740121e-01 0.0000000000000000e+00  1.5483113309112878e-01 1.6017083552258762e-01 0.0000000000000000e+00  1.3435252064495215e-01 1.8291008996733360e-01 0.0000000000000000e+00  6.1272864145355835e-02 2.1163490612850447e-01 0.0000000000000000e+00  5.0836568606420947e-02 2.1665672052978413e-01 0.0000000000000000e+00  6.4845626044133575e-02 2.1323971295198352e-01 0.0000000000000000e+00  -3.8720164058769372e-05 2.2612978327727024e-01 0.0000000000000000e+00  -4.5363338317216957e-02 2.1631912393475908e-01 0.0000000000000000e+00  -5.5970077461694398e-02 2.2398561236502074e-01 0.0000000000000000e+00  -1.3294447168010212e-01 1.6715039489004885e-01 0.0000000000000000e+00  -8.4702461155488198e-02 2.3678302424047820e-01 0.0000000000000000e+00  -8.3011680753491274e-02 7.9827038981632154e-02 0.0000000000000000e+00  -2.0444936130295022e-01 -2.3781505294815408e-01 0.0000000000000000e+00  -1.8702283348605672e-01 4.1756252239145288e-02 0.0000000000000000e+00  -2.1563544781074437e-01 7.9387566308757443e-02 0.0000000000000000e+00  -2.2058199516961621e-01 -3.6310879534945911e-02 0.0000000000000000e+00  -2.3973977755405806e-01 1.2188362667918125e-02 0.0000000000000000e+00  -1.5699735973555637e-01 -1.4725170344573121e-01 0.0000000000000000e+00  -2.2555686999946631e-01 6.6941679113175076e-03 0.0000000000000000e+00  -4.9036065878921432e-02 -2.3747243360614276e-02 0.0000000000000000e+00  2.6741989677908556e-01 -1.7468755008461198e-01 0.0000000000000000e+00  2.5505628398538791e-02 -1.2929586273047294e-01 0.0000000000000000e+00  -2.7579925895371882e-02 -2.2389707313270482e-01 0.0000000000000000e+00  1.2814231177925944e-01 -2.0245405728513721e-01 0.0000000000000000e+00  1.4540676144735634e-01 -1.4940017405070405e-01 0.0000000000000000e+00  2.1836840631086299e-01 -9.9720478319951081e-02 0.0000000000000000e+00  2.0729608598770144e-01 1.8703166985483230e-02 0.0000000000000000e+00  2.0866731795975038e-01 8.9898387746751504e-02 0.0000000000000000e+00  -2.1395221765871339e-01 -7.6954942909597007e-02 0.0000000000000000e+00  -2.6177140025114887e-02 2.2355811187420108e-01 0.0000000000000000e+00  -8.6875686210949349e-02 -2.0748479654092256e-01 0.0000000000000000e+00  -2.1783316209957990e-01 5.8871012759938307e-02 0.0000000000000000e+00  -1.2421242554759797e-01 -1.8806229174317080e-01 0.0000000000000000e+00  7.9711325197570113e-02 2.1039771317238734e-01 0.0000000000000000e+00  -1.3632890330588265e-01 1.7913520351032872e-01 0.0000000000000000e+00  2.2641483802893078e-01 -1.4832353262490631e-02 0.0000000000000000e+00  2.7404545869777284e-02 -2.2320472218286616e-01 0.0000000000000000e+00  -1.6655355158089699e-01 1.5027875610936486e-01 0.0000000000000000e+00  2.3464678547140477e-01 -4.9762633317020896e-02 0.0000000000000000e+00  1.9853906183249317e-01 -1.0630491711851119e-01 0.0000000000000000e+00  -1.4861151458783081e-01 -1.6808662768957355e-01 0.0000000000000000e+00  1.9536086207569686e-01 -1.1179569017538157e-01 0.0000000000000000e+00  2.0041514095433507e-01 -9.9886722826119295e-02 0.0000000000000000e+00  2.2526701444908270e-01 7.6385365125172487e-03 0.0000000000000000e+00  -1.1753231118286943e-01 -1.9390392093497791e-01 0.0000000000000000e+00  2.0802932417944633e-01 -1.1194353574928120e-01 0.0000000000000000e+00  2.1698111664484257e-01 5.8497698315805480e-02 0.0000000000000000e+00  2.2474628780275341e-01 3.0338998450675607e-03 0.0000000000000000e+00  1.6609732337617394e-01 1.5076055771991942e-01 0.0000000000000000e+00  -2.2411929939804898e-01 -1.7764910124248853e-02 0.0000000000000000e+00  -2.0398767290016853e-01 9.5169783949244774e-02 0.0000000000000000e+00  -4.8676152799952792e-02 2.1967518624720722e-01 0.0000000000000000e+00  -8.3280381616034113e-02 -2.0958151412789980e-01 0.0000000000000000e+00  -5.7296516063362927e-04 2.2453348462241626e-01 0.0000000000000000e+00  1.0516379489598883e-01 1.9863147664082095e-01 0.0000000000000000e+00  2.1792803632772001e-01 -5.5192306138392405e-02 0.0000000000000000e+00  2.2362767181343404e-01 -1.3889704738087304e-02 0.0000000000000000e+00  -1.8490441273579578e-01 1.2812760875988999e-01 0.0000000000000000e+00  -1.5151382124020493e-01 -1.6815495115413864e-01 0.0000000000000000e+00  -2.2653235158002266e-01 -1.6731059201932714e-03 0.0000000000000000e+00  -1.9695166990342070e-01 -1.1817144456626082e-01 0.0000000000000000e+00  -7.1382349360096853e-02 2.1404922082791025e-01 0.0000000000000000e+00  -1.9133918396027783e-02 -2.2479310531802185e-01 0.0000000000000000e+00  2.1542115006217458e-01 -7.3358732280751779e-02 0.0000000000000000e+00  1.1159358882872112e-02 -2.2591957634047977e-01 0.0000000000000000e+00  7.2664284790272177e-02 -2.1322347539874620e-01 0.0000000000000000e+00  2.2503868867685786e-01 2.0263783836095374e-02 0.0000000000000000e+00  -3.5315887963850059e-02 2.2349170996362938e-01 0.0000000000000000e+00  5.7194692109906332e-02 2.1791479589314061e-01 0.0000000000000000e+00  -8.7264812964773352e-03 2.2582119914556742e-01 0.0000000000000000e+00  2.2335408136698656e-01 -2.7418446849775777e-02 0.0000000000000000e+00  1.6321679149188231e-01 -1.5794851226681925e-01 0.0000000000000000e+00  -4.9177662366457882e-02 -2.2032137468759772e-01 0.0000000000000000e+00  -1.7672377026517569e-01 1.4412513664897300e-01 0.0000000000000000e+00  1.2859191690289148e-01 1.8468147768251400e-01 0.0000000000000000e+00  2.0358561775052152e-02 2.2418683680373763e-01 0.0000000000000000e+00  2.0800304759510749e-01 8.4005777863357209e-02 0.0000000000000000e+00  2.1126571829459753e-01 -7.7322324029490269e-02 0.0000000000000000e+00  -1.8749371267068760e-01 1.2477833165626766e-01 0.0000000000000000e+00  -1.7898548254561431e-01 -1.3656146026510091e-01 0.0000000000000000e+00  1.8117832199996345e-01 1.3393572702003589e-01 0.0000000000000000e+00  1.9950262443430081e-01 1.0460851124177296e-01 0.0000000000000000e+00  1.8466595068086783e-01 -1.2949720790311012e-01 0.0000000000000000e+00  -2.2371948752650136e-01 -2.5097116805974897e-02 0.0000000000000000e+00  -2.0274088421454523e-01 -1.0131383528746285e-01 0.0000000000000000e+00  -9.6652246170592423e-03 -2.2451892467344120e-01 0.0000000000000000e+00  -1.8032920189976498e-01 -1.3375292188002585e-01 0.0000000000000000e+00  -1.5547355697665288e-01 1.6213868474858165e-01 0.0000000000000000e+00  2.2657699245916506e-02 2.2359360642341566e-01 0.0000000000000000e+00  9.5159276361177214e-02 -2.0324382914425593e-01 0.0000000000000000e+00  -1.0638355909815912e-01 -1.9761751727024640e-01 0.0000000000000000e+00  -1.2740771327799730e-01 1.8484256807043353e-01 0.0000000000000000e+00  7.1130541121479499e-02 2.1292006832763108e-01 0.0000000000000000e+00  2.9201489176288956e-02 2.2259327078237723e-01 0.0000000000000000e+00  1.8169924793318390e-01 1.3191618288781493e-01 0.0000000000000000e+00  1.3459547681174300e-01 -1.7997303549316976e-01 0.0000000000000000e+00  -3.4460943789042513e-02 -2.2206371152759138e-01 0.0000000000000000e+00  -2.1862733716164451e-01 -5.5546242126999913e-02 0.0000000000000000e+00  -9.0871177716245949e-02 2.0590896611272497e-01 0.0000000000000000e+00  -1.0360332174781421e-01 -2.0016608374710806e-01 0.0000000000000000e+00  -2.0217832727844759e-01 1.0070387010183650e-01 0.0000000000000000e+00  1.8073177424212281e-01 1.3408954937552628e-01 0.0000000000000000e+00  1.2206296394414892e-01 2.0556114127308497e-01 0.0000000000000000e+00  -1.7780937229550225e-01 1.4185421606621212e-01 0.0000000000000000e+00  -1.9156110944834495e-01 -1.2029255758338382e-01 0.0000000000000000e+00  -7.8792760738028347e-03 -2.2493817550719902e-01 0.0000000000000000e+00  1.6563431752082736e-01 -1.5921143335334861e-01 0.0000000000000000e+00  -2.2718924722014031e-01 6.8505001586725914e-03 0.0000000000000000e+00  8.4756244932175470e-02 -2.0708845910082779e-01 0.0000000000000000e+00  1.6839411072157395e-01 -1.4781140728243006e-01 0.0000000000000000e+00  2.1242419167080542e-01 -7.4922006237494496e-02 0.0000000000000000e+00  -2.1871659803108276e-01 -5.1248316927969252e-02 0.0000000000000000e+00  -2.2132990368539449e-01 3.8961615077048553e-02 0.0000000000000000e+00  -2.2445314797351454e-01 -1.6604603910668720e-02 0.0000000000000000e+00  -2.9693378702077368e-02 2.2511929707896741e-01 0.0000000000000000e+00  -2.2205101020266410e-01 -3.8065358352848432e-02 0.0000000000000000e+00  8.5669986999623970e-02 2.0904098751091463e-01 0.0000000000000000e+00  6.5698881914925442e-02 -2.1542445922351697e-01 0.0000000000000000e+00  9.6987917565449777e-02 -2.0335813565562422e-01 0.0000000000000000e+00  -7.7305509631769576e-02 -2.1368965667631978e-01 0.0000000000000000e+00  -6.2666112419866804e-02 -2.1688614628802219e-01 0.0000000000000000e+00  2.2466353123223190e-01 -3.9249797302595606e-03 0.0000000000000000e+00  2.0348756425742295e-01 -1.0296041235858905e-01 0.0000000000000000e+00  9.0901415800656069e-02 -2.0611393142109899e-01 0.0000000000000000e+00  -1.1764078819759434e-01 1.9494301518061827e-01 0.0000000000000000e+00  8.9585682999884619e-02 -2.4850821988577715e-01 0.0000000000000000e+00  2.1131044604914720e-01 -7.6350723439836399e-02 0.0000000000000000e+00  2.0365139284039963e-02 -2.2415324314064961e-01 0.0000000000000000e+00  8.4939871481127679e-02 2.0865056333431814e-01 0.0000000000000000e+00  2.2477673707868492e-01 6.0763187210286108e-03 0.0000000000000000e+00  2.8413441247447552e-01 -5.4025886376410578e-02 0.0000000000000000e+00  1.8330736896832694e-01 -1.3113082226168643e-01 0.0000000000000000e+00  3.2453856748050423e-02 2.2456066477189093e-01 0.0000000000000000e+00  1.5709647048667091e-01 1.6054359396795595e-01 0.0000000000000000e+00  2.2026402036350023e-01 -4.2966095563248624e-02 0.0000000000000000e+00  1.4831482979942895e-01 -1.6881753011513567e-01 0.0000000000000000e+00  2.1531664446000837e-01 6.3656847259671287e-02 0.0000000000000000e+00  1.6331670944005811e-01 -1.5442812764001337e-01 0.0000000000000000e+00  1.0008033506417781e-01 2.0133950628284891e-01 0.0000000000000000e+00  -2.0889661975885174e-01 9.3223497256053722e-02 0.0000000000000000e+00  -1.2112222300145721