<?xml version="1.0"?>
<VTKFile type="UnstructuredGrid"  version="0.1"  >
<UnstructuredGrid>
<Piece  NumberOfPoints="2549" NumberOfCells="4928">
<Points>
<DataArray  type="Float64"  NumberOfComponents="3"  format="ascii">-0.165963680037553 0.1257200283561136 0  -0.1715224014931205 0.04388005215405688 0  -0.2440910018367126 -0.08523894123960099 0  -0.2353795641030791 -0.194545476936508 0  -0.2278798387122143 -0.3098265997539603 0  -0.1827236646942585 -0.4042790073470471 0  -0.1391841535884069 -0.4948386709606684 0  -0.04952336438441463 -0.5469698150673903 0  -0.05936488858302424 -0.6545868464671678 0  -0.004982290305365789 -0.8428804912567158 0  0.1748624994418297 -0.7735388759809341 0  0.2606024856979601 -0.8107542276896157 0  0.3774030660548897 -0.794647563294176 0  0.4827166159174237 -0.780418000273935 0  0.5883665493367747 -0.757208207719243 0  0.7002221378317945 -0.6995020862678484 0  0.7497840390225613 -0.710005734140522 0  0.8690419969297529 -0.758318803066086 0  1.013149703652452 -0.5898663987058413 0  1.109941987981937 -0.5139613820780247 0  1.213034693235331 -0.3945686942557813 0  1.30473986604229 -0.2761325594806878 0  1.391795272158101 -0.1422681379762619 0  1.473042891564614 0.01417954495924623 0  1.525779884928162 0.1694406523374687 0  1.581950651339544 0.2901620781350794 0  1.634068722338148 0.4664441778376051 0  1.669072373141308 0.6455826090446322 0  1.689835034374364 0.8321931732625651 0  1.695063226856936 1.024227914785052 0  1.68392433371058 1.21897063385354 0  1.656034267015596 1.419810833903884 0  1.604252204510759 1.609862077841402 0  1.543231379588063 1.791193653664728 0  1.459855394465664 1.985502398308076 0  1.356526889749906 2.162669875696511 0  1.234486376069144 2.330217401201605 0  1.094560634212315 2.482779824850304 0  0.9380460089149489 2.617505951248672 0  0.7671684223192039 2.736029455926323 0  0.5808936967350756 2.825515764752207 0  0.3900508293815295 2.889693572511767 0  0.1895471793500318 2.93537209656704 0  -0.01379777140927116 2.948616149296464 0  -0.2168214192037861 2.934827283658746 0  -0.4157816999315225 2.891496255159585 0  -0.6070941580922066 2.821942560969461 0  -0.7874251861816365 2.719712169663686 0  -0.9504576979843516 2.605804688210609 0  -1.104872349962278 2.467213794096877 0  -1.236941936903377 2.301440026996207 0  -1.349895749946057 2.123622932177227 0  -1.442441026379683 1.933169142050949 0  -1.513923501969895 1.731921302315921 0  -1.565145672449977 1.530197329222529 0  -1.592350346257546 1.305003691706304 0  -1.596390599089012 1.133727615257522 0  -1.606783106176509 0.9450284806353479 0  -1.583341921188692 0.737137876807482 0  -1.546023161643387 0.5469029150140746 0  -1.495767830561463 0.3679315061377052 0  -1.43021187097019 0.188757152348711 0  -1.360048205650725 0.04727585181402338 0  -1.257426876313299 -0.1697569699211462 0  -1.142213384164832 -0.2309281318177688 0  -1.08461198441454 -0.2784346596222125 0  -0.9842356373995882 -0.3845432966019383 0  -0.8850672035653212 -0.4560959355041784 0  -0.7782001189180723 -0.5264419606375492 0  -0.6833009465269768 -0.5498389945037679 0  -0.5554409119228367 -0.6278068962857127 0  -0.5342803900186719 -0.4586212214522045 0  -0.5040158763276932 -0.5568188967473033 0  -0.2577317727646755 -0.7668817448193923 0  -0.1499257171735022 -0.7500890229397674 0  -0.00709122723946054 -0.7559160526317794 0  0.08302834060455733 -0.7030086015788531 0  0.2243739604448025 -0.6791658018357846 0  0.2256204727231865 -0.5284582691130102 0  0.5245798360480427 -0.5846634419655343 0  0.350557843368851 -0.1761488093063726 0  0.07833893227465416 -0.03411222860612059 0  0.2817721040799503 0.004732884495365561 0  0.1996532071281929 0.1115463281212613 0  0.2595754771688479 0.2097031253146104 0  0.184493833412239 0.3070926782409694 0  0.2639707514923297 0.4120143025923569 0  0.03344163634151043 0.4439791843706442 0  0.3225995138432005 0.5881061868624125 0  0.5028044874454822 1.019171533996411 0  0.1661508954379005 0.9377172048238062 0  0.1627139515329998 1.089390224895331 0  0.004602498951148171 1.100795082367879 0  -0.09497182629198075 1.145861299892907 0  -0.2489865583981148 1.1297581206081 0  -0.3615287895401831 1.144170035529132 0  -0.6295053131217765 0.9182656535391691 0  -0.6768871247772918 0.7747855152880951 0  -0.6943703550902307 0.9574365773792564 0  -0.8325185910917793 0.8632877426467488 0  -0.9330964191852437 0.8349047879447179 0  -1.048151489191862 0.7546344430497822 0  -1.154257719685676 0.6756605989711059 0  -1.262032382258939 0.5609489866886372 0  -1.325964046720092 0.5162628188786466 0  -1.457062832292576 0.4458174259845925 0  -1.572644989756245 0.1959409639153904 0  -1.651688623777927 0.04129681932618823 0  -1.727574304022134 -0.1590989770172864 0  -1.787537168677393 -0.3584347153828429 0  -1.833461833812113 -0.5698738996259611 0  -1.862603051432018 -0.7943042990225343 0  -1.866057816324284 -0.9904696878900898 0  -1.878535823356315 -1.208993889358414 0  -1.855306384525928 -1.491347273651587 0  -1.805571374563229 -1.725612669140399 0  -1.734411539812295 -1.969579937676853 0  -1.639391180112092 -2.20025182333496 0  -1.521112515000191 -2.419921714143582 0  -1.380715266954104 -2.631834133155259 0  -1.210427493617183 -2.809461558860324 0  -1.033561365443315 -2.958146732334645 0  -0.8331334484994147 -3.103190264696653 0  -0.6172359014664233 -3.208798210747341 0  -0.3898181631213339 -3.284578344209352 0  -0.1548416743718992 -3.325419312482337 0  0.08324205815919514 -3.332200278588327 0  0.3203242998769063 -3.303274320520584 0  0.5517184287143651 -3.240418972461709 0  0.7725891639001461 -3.144530377970412 0  0.9804270360132128 -3.019803848421007 0  1.171284445827406 -2.867151733949821 0  1.342599370234751 -2.691396844047399 0  1.492249839836755 -2.494422403667556 0  1.619118189091364 -2.285785450449624 0  1.72073152931842 -2.048983951006375 0  1.792409036135997 -1.844630890408272 0  1.861569693583068 -1.622494132464238 0  1.896468691586186 -1.37976048157713 0  1.911698886836891 -1.148844045120302 0  1.907682209243449 -0.9219252989281304 0  1.885582425136426 -0.7026093242081185 0  1.847087692200236 -0.4924909453416371 0  1.78994568582153 -0.28892102192181 0  1.727877182989892 -0.1417685844649743 0  1.667032772282324 0.03907788012628577 0  1.577868731018367 0.2169458332752061 0  1.482121097077372 0.3710470345557819 0  1.381708680808619 0.507424152664919 0  1.269294849979764 0.644256893458802 0  1.164176250666411 0.7334713969546865 0  1.008989626155096 0.9217171680890951 0  0.8793883347657316 0.8813215311486415 0  0.8236849657296773 0.8769066403187844 0  0.7038713701801537 0.9447507256432014 0  0.590376677738617 0.9769923426614313 0  0.4767641786468908 1.000455020778547 0  0.3510573225427265 1.025731215003193 0  0.2579122231666982 0.9950325845023915 0  0.06568731592927879 1.076579307915465 0  0.00482484512829684 0.8881852801834613 0  0.009065564855236907 0.7849869270021772 0  -0.09064793350925981 0.7394928277405541 0  -0.1437068792101175 0.6540339021789843 0  -0.1987462390244232 0.5637611304205872 0  -0.2197556246691681 0.4526069670408616 0  -0.2303632742482429 0.3418104820549319 0  -0.1848951044530307 0.2180978900593148 0  -0.01585494865562896 1.809742151496547 0  0.5779274300027502 -0.5261625021874027 0  -0.4818842060872586 -0.1065312739312455 0  -0.08108134476909191 -2.091490860144478 0  0.447868914064524 0.4461264621523657 0  0.03059141731280124 -0.2526183013862747 0  -0.3534904437499241 0.2651638763478102 0  0.1224037563411304 0.1685183070137917 0  0.07056702495515399 0.4135721892422611 0  -0.2901813762184702 0.4523549792508177 0  0.1670011523775126 0.1228222377302158 0  0.1073550870381966 -0.145843797711673 0  -0.1754021655533244 -0.1733654996716976 0  0.5085953868991639 -1.649475430809235 0  -0.1975805273032751 -0.7936118019890167 0  0.3737239735776112 1.37759497733593 0  -0.3837839568213046 0.2143843347500385 0  -0.2617422853165178 0.03358986444067613 0  -0.4776491147092196 -1.212393050616451 0  -0.3845140034143132 1.158699632054057 0  0.1153709812540304 0.6134664038464863 0  0.3071583376500244 0.2697053362785664 0  0.2308465978636297 -0.1818014643260531 0  -0.1461369745951359 -0.3242521465984337 0  -0.1390681502057511 0.3472155666857126 0  0.1387791946611104 0.3183657122093902 0  -0.08034203368467679 -0.6585526040259824 0  -0.1304986080421804 0.06186547291942839 0  -0.07660761095755353 0.1000684491103738 0  0.4439904631156334 -0.04885947250978456 0  -0.06630003803481088 0.1047095019747445 0  -0.009612606206668373 -0.112893350246612 0  -0.2619467539871451 -0.05369354068131729 0  0.1750753429258443 -0.4772511882339299 0  -0.01608998380866677 0.2134268199801383 0  -0.1896134912205625 0.04717105410929068 0  0.0810572801983227 0.01904051290219699 0  0.05066734101534243 -0.0768087035941391 0  0.1245967591141435 0.1521347597919893 0  0.01676527907044334 0.2498813316176953 0  -0.0001339897921370792 0.3939073258075481 0  -0.07031637047753714 0.5762833186979766 0  0.1330010221703606 0.4059595524901558 0  0.1551450618409502 -0.03356391277804666 0  -0.009021297659770999 -0.2332117624992251 0  -0.0883513756476048 -1.390347052956129 0  -0.148685813592593 -1.011794077983403 0  -0.3386837157376327 -1.745871676910629 0  0.03301357103301128 -0.3718338271298812 0  -0.147477137392927 -0.620548124261993 0  -0.4797403503935314 0.6656776069384718 0  -0.3550588807613535 -0.3484938532028111 0  0.2275243001473796 -0.9166753553901973 0  -0.1775335223740152 -0.5045314232467771 0  0.1716171652783041 -1.20685035067032 0  -0.2653046570784345 -0.018580204747081 0  0.05607013159567509 0.1193759745705177 0  0.1468138140089397 0.6304007527990194 0  0.4503973431538728 0.6598714017583214 0  0.3677069939534876 -0.4987774203712407 0  0.09219767801432233 -0.4363809619006628 0  -1.104922091150666 -0.4984659142336049 0  -0.9329735422628005 0.1491249989554114 0  -0.7741349398660214 0.06513030735798508 0  -0.9208438840276159 0.6254001028411508 0  1.131046362326734 -0.3813619986635888 0  1.161324100405034 -1.129410618404698 0  1.020771011653029 0.9643305170927339 0  0.988372105930
[...]
<PointData  Vectors="f_44"> 
<DataArray  type="Float64"  Name="f_44"  NumberOfComponents="3" format="ascii">2.4066761822266361e-01 4.9768678648577168e-02 0.0000000000000000e+00  1.4054838678793274e-01 -1.7664372313969923e-01 0.0000000000000000e+00  1.4680027844783594e-01 -1.0188735710428004e-01 0.0000000000000000e+00  2.5341139998362355e-01 4.9849634762424502e-02 0.0000000000000000e+00  1.6662905065979466e-01 9.0141499729627636e-02 0.0000000000000000e+00  1.7458041249967321e-01 1.8376498375859424e-01 0.0000000000000000e+00  -2.8769047987160339e-02 2.2351344345463836e-01 0.0000000000000000e+00  1.8153963135917651e-02 3.2425295521741136e-02 0.0000000000000000e+00  2.9765485290278526e-01 9.6231024169149623e-02 0.0000000000000000e+00  -2.2963949056828666e-03 -2.5895897890861563e-02 0.0000000000000000e+00  -2.1351822263208892e-01 -8.0066946920320820e-02 0.0000000000000000e+00  -1.7101694683077243e-01 1.0509326941479338e-01 0.0000000000000000e+00  -2.2651843262667204e-01 -1.0643927230346700e-01 0.0000000000000000e+00  -2.1783824118564532e-01 -4.6998828265614301e-02 0.0000000000000000e+00  -1.5821688284228574e-01 -1.6515571023195844e-01 0.0000000000000000e+00  -1.3663381425535756e-01 -1.3372077632785265e-01 0.0000000000000000e+00  -2.3384340972060294e-01 2.5618969225734028e-01 0.0000000000000000e+00  -1.7466029438261518e-02 -8.7438072749640633e-02 0.0000000000000000e+00  1.5224788422749110e-02 -2.6405080913054807e-01 0.0000000000000000e+00  -2.6584693267462808e-02 -2.0842375608180275e-01 0.0000000000000000e+00  5.5816316378697960e-02 -2.2386820456197051e-01 0.0000000000000000e+00  6.9708335428775678e-02 -2.0961602236854210e-01 0.0000000000000000e+00  1.0704256825414951e-01 -1.9990732348669135e-01 0.0000000000000000e+00  1.6112144256963348e-01 -1.5233042734100843e-01 0.0000000000000000e+00  1.6308933313505389e-01 -1.5141319342693088e-01 0.0000000000000000e+00  1.6097278842207266e-01 -1.5296281708002563e-01 0.0000000000000000e+00  2.0265190044859344e-01 -9.9279173511041555e-02 0.0000000000000000e+00  2.1284960872602776e-01 -6.7303449725827399e-02 0.0000000000000000e+00  2.2203520759150272e-01 -3.0951156513266572e-02 0.0000000000000000e+00  2.2330789445009358e-01 7.5728110175789717e-03 0.0000000000000000e+00  2.2098747459125662e-01 4.0962898367974586e-02 0.0000000000000000e+00  2.0458103642489475e-01 8.8343708725299633e-02 0.0000000000000000e+00  1.8467987220748569e-01 1.2770921938327967e-01 0.0000000000000000e+00  1.6927174101714743e-01 1.4655966704004952e-01 0.0000000000000000e+00  1.3372840973934272e-01 1.7923326942786530e-01 0.0000000000000000e+00  8.9102495345883742e-02 2.0596905491884612e-01 0.0000000000000000e+00  4.5708981489031186e-02 2.1932865013352415e-01 0.0000000000000000e+00  -8.2993308834097678e-03 2.2351716097215593e-01 0.0000000000000000e+00  -5.4398856378746134e-02 2.1828131577137583e-01 0.0000000000000000e+00  -1.0905652745545281e-01 1.9499240152811984e-01 0.0000000000000000e+00  -1.6340626432127273e-01 1.5384938183707786e-01 0.0000000000000000e+00  -1.9064140467637347e-01 1.1916896165394231e-01 0.0000000000000000e+00  -2.1337516296104103e-01 6.5106561166544730e-02 0.0000000000000000e+00  -2.2551722739307761e-01 -1.6348119511673919e-03 0.0000000000000000e+00  -2.1437020289717301e-01 -6.2221421278514780e-02 0.0000000000000000e+00  -1.9172153129275316e-01 -1.1916598833206586e-01 0.0000000000000000e+00  -1.4300354794688799e-01 -1.7089232390826078e-01 0.0000000000000000e+00  -9.4310834360544993e-02 -2.0422626892839060e-01 0.0000000000000000e+00  -5.5537699831570600e-02 -2.1753326022329988e-01 0.0000000000000000e+00  1.4540842499383734e-02 -2.2284218515193271e-01 0.0000000000000000e+00  7.5995478854371662e-02 -2.1179631603436661e-01 0.0000000000000000e+00  1.1637436084299183e-01 -1.9109817065472962e-01 0.0000000000000000e+00  1.5827196406635924e-01 -1.5836665625355487e-01 0.0000000000000000e+00  1.8575613397840371e-01 -1.2582786838265755e-01 0.0000000000000000e+00  2.0853324632866804e-01 -8.1860859572822020e-02 0.0000000000000000e+00  2.2228286024867988e-01 -2.3998418992176883e-02 0.0000000000000000e+00  2.2342079235037812e-01 -2.3206181501331493e-02 0.0000000000000000e+00  2.2078269838126499e-01 7.9017261071912693e-03 0.0000000000000000e+00  2.1401653146086896e-01 7.3718453549878979e-02 0.0000000000000000e+00  1.9863914521343229e-01 9.9572387907972279e-02 0.0000000000000000e+00  1.8571479809745736e-01 1.2979835393018718e-01 0.0000000000000000e+00  1.4362064176164649e-01 1.6361281649885312e-01 0.0000000000000000e+00  1.6643098485841487e-01 1.7767173021678520e-01 0.0000000000000000e+00  4.6438845393201242e-02 1.7302484832224441e-01 0.0000000000000000e+00  -1.6249138983454334e-01 1.9995594223760962e-01 0.0000000000000000e+00  2.7412526999250005e-02 2.2850265487600957e-01 0.0000000000000000e+00  -2.7837288431772161e-02 2.1359805310734759e-01 0.0000000000000000e+00  -7.7605024466526867e-02 2.2624142866320196e-01 0.0000000000000000e+00  -1.3720329409530715e-01 1.3550935060794178e-01 0.0000000000000000e+00  -2.0593647919039648e-01 1.9644352499127538e-01 0.0000000000000000e+00  7.5428638347345422e-02 6.2128223379595907e-02 0.0000000000000000e+00  2.7788901051303921e-01 -4.7352136588089830e-02 0.0000000000000000e+00  3.0101702787557541e-02 2.5223350884137891e-01 0.0000000000000000e+00  -9.7349347597424973e-02 1.3272045719078104e-01 0.0000000000000000e+00  -2.6996461562238139e-01 -4.0033680684506384e-02 0.0000000000000000e+00  -1.3000504191092727e-01 -6.1201388248460060e-02 0.0000000000000000e+00  -2.5654146354039742e-01 -1.6640676841814583e-01 0.0000000000000000e+00  1.0987254151144675e-01 -2.7029110630131321e-02 0.0000000000000000e+00  -1.1673098554394068e-01 4.3354733610034432e-02 0.0000000000000000e+00  1.9835015503437761e-03 1.2184626056275491e-01 0.0000000000000000e+00  1.0985449770459289e-01 2.1029761758172064e-01 0.0000000000000000e+00  -2.5192944296870712e-01 4.4746295795086280e-02 0.0000000000000000e+00  -1.0452291377438676e-01 3.4627066469316715e-02 0.0000000000000000e+00  1.3143845970946055e-01 2.3840034263405630e-02 0.0000000000000000e+00  6.0163697552549009e-02 1.8726106427996707e-02 0.0000000000000000e+00  1.0159913610639641e-01 -4.0293551178416107e-03 0.0000000000000000e+00  -1.0811983007118790e-01 -4.1565681564131589e-02 0.0000000000000000e+00  -2.6169147828869738e-01 -5.0263445502788627e-02 0.0000000000000000e+00  1.0945742993544989e-01 -2.0128587719438268e-01 0.0000000000000000e+00  2.6419390718103197e-03 -1.3212442736848712e-01 0.0000000000000000e+00  -1.2103402057804721e-01 -5.8458973313647938e-02 0.0000000000000000e+00  9.6698317232856323e-02 1.5755601821646738e-02 0.0000000000000000e+00  -2.8518402199641202e-01 1.1963388403851861e-01 0.0000000000000000e+00  -1.4822660946622315e-01 3.4465264637527152e-02 0.0000000000000000e+00  -2.6181384497738552e-01 1.4932258055284994e-02 0.0000000000000000e+00  -1.0433404879871232e-01 -1.3800980559159756e-01 0.0000000000000000e+00  3.7354995939802786e-02 -2.4589540145048541e-01 0.0000000000000000e+00  2.6970677980036539e-01 1.9575001088971537e-02 0.0000000000000000e+00  8.8038302481483047e-02 -7.0619128579510332e-02 0.0000000000000000e+00  -1.8777762204986742e-01 -2.0991881932074372e-01 0.0000000000000000e+00  -1.2879854891099846e-01 -1.4504260588009235e-01 0.0000000000000000e+00  -6.8207562377131298e-02 -2.2825899794957494e-01 0.0000000000000000e+00  -2.0459269045510740e-02 -2.1579248291139716e-01 0.0000000000000000e+00  1.2608577055759854e-02 -2.2343618703158827e-01 0.0000000000000000e+00  -1.8097172198914202e-01 -1.9693751781689234e-01 0.0000000000000000e+00  5.4006448553565255e-02 -1.7216867005288367e-01 0.0000000000000000e+00  1.6564925028325700e-01 -1.7667025089673541e-01 0.0000000000000000e+00  1.3937421473059211e-01 -1.6769752954701858e-01 0.0000000000000000e+00  1.8208414709312587e-01 -1.3458624165642347e-01 0.0000000000000000e+00  1.9431159900265041e-01 -1.0860588945358761e-01 0.0000000000000000e+00  2.1096469946770996e-01 -7.8667040820934869e-02 0.0000000000000000e+00  2.2104144362196493e-01 -2.5777959199487683e-02 0.0000000000000000e+00  2.2316308714053981e-01 -1.9467893865717643e-02 0.0000000000000000e+00  2.2285599263243369e-01 -5.9061764976711076e-04 0.0000000000000000e+00  2.1422282512126106e-01 6.7775104664021410e-02 0.0000000000000000e+00  1.9693211589126133e-01 1.0704096365196220e-01 0.0000000000000000e+00  1.7635412113622118e-01 1.3779082356293743e-01 0.0000000000000000e+00  1.3976794835245693e-01 1.7451645300955143e-01 0.0000000000000000e+00  1.1004196831601552e-01 1.9665979557367813e-01 0.0000000000000000e+00  5.0730044105045530e-02 2.1674460498136561e-01 0.0000000000000000e+00  -2.1455287811886475e-02 2.2390091104834145e-01 0.0000000000000000e+00  -5.0562205953779887e-02 2.1908591466139479e-01 0.0000000000000000e+00  -1.0174850651553488e-01 1.9788146760397646e-01 0.0000000000000000e+00  -1.6261733896843267e-01 1.5681053077447993e-01 0.0000000000000000e+00  -1.9626123280185093e-01 1.0686940983388159e-01 0.0000000000000000e+00  -2.2046128275779139e-01 4.4607260460796133e-02 0.0000000000000000e+00  -2.2309755968186212e-01 -2.0726070074373854e-02 0.0000000000000000e+00  -2.0801461715182448e-01 -8.4908999810858019e-02 0.0000000000000000e+00  -1.7456602169593000e-01 -1.4043958839854750e-01 0.0000000000000000e+00  -1.3031270520282756e-01 -1.8292849947278467e-01 0.0000000000000000e+00  -7.7666337365446425e-02 -2.0999549552963648e-01 0.0000000000000000e+00  -2.1751529075170292e-02 -2.2356007594833205e-01 0.0000000000000000e+00  3.4549322279295781e-02 -2.2080354490605381e-01 0.0000000000000000e+00  8.0770871190601543e-02 -2.1005402272761264e-01 0.0000000000000000e+00  1.3062253651538186e-01 -1.8091769260077914e-01 0.0000000000000000e+00  1.6933013486626405e-01 -1.4681579939017489e-01 0.0000000000000000e+00  1.7674886140610183e-01 -1.3924639171900469e-01 0.0000000000000000e+00  1.9970941606110590e-01 -9.6462804055849713e-02 0.0000000000000000e+00  2.2154992194754791e-01 -4.2194176388112577e-02 0.0000000000000000e+00  2.2279908960490297e-01 -1.2338950335717188e-02 0.0000000000000000e+00  2.2262118761519906e-01 2.6767991634170096e-02 0.0000000000000000e+00  2.1452052811269104e-01 6.2324916505066268e-02 0.0000000000000000e+00  2.0406373374633172e-01 9.5018968851137350e-02 0.0000000000000000e+00  1.6935407104934103e-01 1.4435495844961710e-01 0.0000000000000000e+00  1.6926434779266442e-01 1.4586077761911642e-01 0.0000000000000000e+00  1.6263562638420556e-01 1.5088595517671641e-01 0.0000000000000000e+00  1.1433766128763492e-01 1.9529757641141349e-01 0.0000000000000000e+00  7.9507882141902742e-02 2.0644724551226534e-01 0.0000000000000000e+00  6.5644808277981484e-02 2.2042093886349168e-01 0.0000000000000000e+00  -1.2207933390856530e-02 2.1079583866034740e-01 0.0000000000000000e+00  2.9613470037912929e-02 2.6092114939416156e-01 0.0000000000000000e+00  -1.9475492373987754e-02 9.6680483551796856e-02 0.0000000000000000e+00  -2.6631964314004986e-01 -2.0749284801376244e-01 0.0000000000000000e+00  -1.2957431972180991e-01 1.5664160202058541e-01 0.0000000000000000e+00  -1.4152563304959712e-01 1.7615294549246019e-01 0.0000000000000000e+00  -2.0876216217148852e-01 7.7745293204433227e-02 0.0000000000000000e+00  -2.1019801336416749e-01 1.3163222691271725e-01 0.0000000000000000e+00  -1.8633206121408213e-01 -7.2084677914386913e-02 0.0000000000000000e+00  -2.1353934897017812e-01 1.0070080557998307e-01 0.0000000000000000e+00  -4.3390328378962416e-03 3.2876092301821556e-02 0.0000000000000000e+00  2.9538949218677962e-01 -1.2504975228972309e-01 0.0000000000000000e+00  -3.5139085043395524e-03 -3.0778052003410137e-02 0.0000000000000000e+00  -7.4345178418149430e-02 -2.1737939443941676e-01 0.0000000000000000e+00  1.3302167849816085e-01 -2.1126743098105785e-01 0.0000000000000000e+00  1.4189361224656064e-01 -1.3698047876148367e-01 0.0000000000000000e+00  2.3834957669794962e-01 -7.4712157799910542e-02 0.0000000000000000e+00  1.8798293728910589e-01 6.4388273503055676e-02 0.0000000000000000e+00  1.7261980365255306e-01 1.5249727781415529e-01 0.0000000000000000e+00  -2.1746540696130504e-01 5.5956032615248640e-02 0.0000000000000000e+00  -1.8210942051813554e-02 2.2613728000679462e-01 0.0000000000000000e+00  -1.5227620036167946e-02 -2.2484643736645496e-01 0.0000000000000000e+00  -2.0559094455665786e-01 8.9569507301212895e-02 0.0000000000000000e+00  -1.7370379033527344e-01 -1.4818568090953979e-01 0.0000000000000000e+00  6.6085102272371604e-02 2.1747598132612547e-01 0.0000000000000000e+00  -1.3361072660081214e-01 1.8482519617678606e-01 0.0000000000000000e+00  1.3025072853354985e-01 1.8390599292504053e-01 0.0000000000000000e+00  -4.6672817403264049e-03 -2.2565425183924326e-01 0.0000000000000000e+00  -2.2529217877934010e-01 -1.5872381055521280e-02 0.0000000000000000e+00  -5.8265763073956797e-02 2.1593709324903054e-01 0.0000000000000000e+00  -9.3045808903044910e-02 -2.0516093292625573e-01 0.0000000000000000e+00  -2.1408803615667821e-01 -7.5843948857301058e-02 0.0000000000000000e+00  1.2894531774805264e-02 -2.2531174988949343e-01 0.0000000000000000e+00  1.9124778381320498e-01 -1.2580353267497837e-01 0.0000000000000000e+00  1.7289928044548794e-01 1.4555823537303075e-01 0.0000000000000000e+00  2.1762620068473704e-01 -5.7503336254401356e-02 0.0000000000000000e+00  2.0331688253407254e-01 -9.3289228495468113e-02 0.0000000000000000e+00  1.7916227872547560e-01 1.3603890279071132e-01 0.0000000000000000e+00  1.2655858505994647e-01 -1.8661316214843710e-01 0.0000000000000000e+00  1.6151419144121584e-01 -1.5990607308731231e-01 0.0000000000000000e+00  -2.0565854092549932e-01 -9.3438126724504855e-02 0.0000000000000000e+00  -1.5525989561342418e-01 1.6501386016995198e-01 0.0000000000000000e+00  -1.6943396855720275e-01 -1.4948703269618829e-01 0.0000000000000000e+00  1.8287223521420426e-01 -1.3026814382361421e-01 0.0000000000000000e+00  -2.2342027171150866e-01 4.6765266887764875e-02 0.0000000000000000e+00  1.9747821273830751e-01 -1.1095216154861218e-01 0.0000000000000000e+00  2.0886624160826237e-01 -8.3006444844002589e-02 0.0000000000000000e+00  2.1368172977214173e-01 -6.7522539789672639e-02 0.0000000000000000e+00  -2.1125429174598398e-01 8.1878326340373411e-02 0.0000000000000000e+00  4.7933997797431134e-02 -2.2287045996301996e-01 0.0000000000000000e+00  -1.7958890614804490e-01 -1.4122776717974503e-01 0.0000000000000000e+00  4.7546424730281145e-02 -2.2199232768719679e-01 0.0000000000000000e+00  -1.7868990712884977e-01 1.4340300980311693e-01 0.0000000000000000e+00  8.2982562560335496e-02 -2.0929555906829722e-01 0.0000000000000000e+00  2.0089232571245336e-01 -1.0072710437925383e-01 0.0000000000000000e+00  2.2607638039188765e-01 -5.6498905107354086e-02 0.0000000000000000e+00  1.2899579298157574e-01 -1.8913334499812540e-01 0.0000000000000000e+00  9.5987305004689563e-02 2.0220139894619732e-01 0.0000000000000000e+00  -5.5772195969137878e-02 2.2015462912871653e-01 0.0000000000000000e+00  1.1009355125525012e-02 2.2718888218769290e-01 0.0000000000000000e+00  -6.9685710750446675e-02 2.2148515152550646e-01 0.0000000000000000e+00  1.6112905927386503e-01 -1.5735624569037535e-01 0.0000000000000000e+00  -3.0549179079572289e-02 2.2688512526592922e-01 0.0000000000000000e+00  -1.9121491352069800e-01 -1.3679951188896991e-01 0.0000000000000000e+00  -2.4681434973285916e-02 2.2525558526458692e-01 0.0000000000000000e+00  2.0155039990359713e-01 1.0321896164853135e-01 0.0000000000000000e+00  -4.5799822841515500e-02 2.1992091607249409e-01 0.0000000000000000e+00  6.9150942450625572e-02 -2.1459604680541633e-01 0.0000000000000000e+00  1.8877079627299154e-01 -1.2330820533023591e-01 0.0000000000000000e+00  -1.1932527389441644e-01 -1.9633947101764149e-01 0.0000000000000000e+00  -1.2143143933255428e-01 1.9495134154218485e-01 0.0000000000000000e+00  1.8960072953967447e-01 1.4125743893281831e-01 0.0000000000000000e+00  -1.3231091979654341e-01 -1.8149818982482080e-01 0.0000000000000000e+00  -1.8506242204670856e-01 -1.3176606125982326e-01 0.0000000000000000e+00  -2.2641480688082069e-01 -2.7567631393392529e-02 0.0000000000000000e+00  2.1741741273575127e-01 -9.7517117069537335e-02 0.0000000000000000e+00  -1.0107536020102337e-01 -2.0094035279324385e-01 0.0000000000000000e+00  -2.2025346361190831e-01 -4.5666203921640246e-02 0.0000000000000000e+00  -2.1289195788035886e-01 7.3203599360561311e-02 0.0000000000000000e+00  -5.3405421891386716e-02 2.1904213189246616e-01 0.0000000000000000e+00  1.8709338744709006e-01 -1.2388434801177943e-01 0.0000000000000000e+00  5.2749487374414449e-02 -2.1812613306576534e-01 0.0000000000000000e+00  -3.3175457306630678e-02 2.2215043376584384e-01 0.0000000000000000e+00  1.7643965526446515e-01 1.3969595669899409e-01 0.0000000000000000e+00  8.5671718451034884e-02 2.0830623136015147e-01 0.0000000000000000e+00  2.2180959856182764e-01 3.7963551178691574e-02 0.0000000000000000e+00  1.8975150587190945e-01 -1.2202131659983753e-01 0.0000000000000000e+00  1.8434446775442252e-02 -2.2517034428669205e-01 0.0000000000000000e+00  -2.2358925789797296e-01 -1.9040719159186131e-02 0.0000000000000000e+00  -1.4114730014619539e-01 1.7443105389720531e-01 0.0000000000000000e+00  -1.8526205319094441e-01 -1.2679362228021884e-01 0.0000000000000000e+00  -2.0808842332806016e-01 8.4162160708849909e-02 0.0000000000000000e+00  2.2170369979994925e-01 4.8482780206714517e-02 0.0000000000000000e+00  2.0965303526890725e-01 -8.2988066488496715e-02 0.0000000000000000e+00  6.1798906403323868e-02 2.2153477930911683e-01 0.0000000000000000e+00  -1.2226987369584727e-01 1.9899263375803108e-01 0.0000000000000000e+00  -4.4920308604279889e-02 -2.2118071948302070e-01 0.0000000000000000e+00  -2.2324586178673644e-01 3.2828691938548205e-02 0.0000000000000000e+00  -2.2469276921939108e-01 3.3006665951255891e-02 0.0000000000000000e+00  2.0321618912786008e-01 -9.8152624600952559e-02 0.0000000000000000e+00  1.3649474740164097e-01 -1.7715251154666706e-01 0.0000000000000000e+00  1.1794453643849176e-01 -1.9022975733166975e-01 0.0000000000000000e+00  -4.3604853396269537e-02 -2.1964640318932666e-01 0.0000000000000000e+00  -9.2577964392278334e-02 2.0393282646296948e-01 0.0000000000000000e+00  -1.8502289038528635e-01 -1.2919917017191160e-01 0.0000000000000000e+00  1.8998309838890259e-01 1.2730932211237977e-01 0.0000000000000000e+00  -2.2223718845395199e-01 4.8664953340422486e-02 0.0000000000000000e+00  1.6374484798472511e-01 1.5382535452828283e-01 0.0000000000000000e+00  2.4444736757243452e-01 -7.3151188892678840e-02 0.0000000000000000e+00  1.3091493551782168e-01 -1.8639848659675390e-01 0.0000000000000000e+00  -1.8939819106488340e-01 1.2499757048947466e-01 0.0000000000000000e+00  -2.0247343379999574e-01 -9.6623337660005831e-02 0.0000000000000000e+00  1.6072808970986233e-01 -1.6049271006775348e-01 0.0000000000000000e+00  -2.1106063380916606e-01 -1.3649836572362492e-01 0.0000000000000000e+00  -1.6359585880357236e-01 -1.5455116275528810e-01 0.0000000000000000e+00  1.3038857691312528e-01 -1.8289926056070174e-01 0.0000000000000000e+00  2.2831985374034341e-01 -9.7882049485503476e-03 0.0000000000000000e+00  1.2880202651340028e-01 -1.8426874919509437e-01 0.0000000000000000e+00  -1.1221388892273379e-01 -1.9449670049706291e-01 0.0000000000000000e+00  -4.2017666358582173e-02 2.2075344938398184e-01 0.0000000000000000e+00  1.9072671495384247e-01 1.1972224096715894e-01 0.0000000000000000e+00  1.1838553836129534e-01 -1.9023880024099202e-01 0.0000000000000000e+00  2.2430191360271903e-01 2.5592631401990161e-02 0.0000000000000000e+00  -8.1027528207907928e-02 2.0983207830137213e-01 0.0000000000000000e+00  5.6423440563649785e-02 2.1724919747154489e-01 0.0000000000000000e+00  2.1382400423476258e-01 6.8247609224818373e-02 0.0000000000000000e+00  1.9343094494408750e-01 -1.1503250583486861e-01 0.0000000000000000e+00  2.0359281844293209e-01 -9.5158593146187173e-02 0.0000000000000000e+00  4.4758194996283437e-04 -2.2465537375201391e-01 0.0000000000000000e+00  1.9310947550919355e-01 1.1757032073037287e-01 0.0000000000000000e+00  -1.6219512699146810e-01 1.5377746240071435e-01 0.0000000000000000e+00  -9.0967010487991593