<?xml version="1.0"?>
<VTKFile type="UnstructuredGrid"  version="0.1"  >
<UnstructuredGrid>
<Piece  NumberOfPoints="2549" NumberOfCells="4928">
<Points>
<DataArray  type="Float64"  NumberOfComponents="3"  format="ascii">-2.331927360075106 0.2514400567122271 0  -2.339730940004336 0.03021779326711335 0  -2.475064900979279 -0.2848198612025631 0  -2.441734761282746 -0.5588371274811009 0  -2.405281385107535 -0.842904801558358 0  -2.288608810410147 -1.08308028970775 0  -2.170911120412955 -1.313050848902131 0  -1.957318078321704 -1.463678589209605 0  -1.939615304057764 -1.722808766990043 0  -1.790813839459479 -2.140891710232915 0  -1.388829875669658 -2.041402277998889 0  -1.173125907111129 -2.152837655155023 0  -0.8936450541269656 -2.155556701877252 0  -0.6357108913831517 -2.160072493237623 0  -0.3758673350290986 -2.144779781535047 0  -0.1025358022415939 -2.058748608931361 0  0.04715022697432558 -2.107485537954019 0  0.3370560400746818 -2.230276287944178 0  0.6773916866958534 -1.918049795943021 0  0.9237433922521132 -1.78950328965144 0  1.183270894423302 -1.572631470838419 0  1.420535871061231 -1.356381481084249 0  1.648959389957665 -1.108036753116777 0  1.866177610189875 -0.8133353822652665 0  2.026742659891486 -0.5198604916648178 0  2.194505889049279 -0.2943575761379057 0  2.35446092256092 0.04333858009557034 0  2.48045430169817 0.3877872377747487 0  2.578205802053774 0.7481910849663398 0  2.645103882303611 1.120428167254852 0  2.679460872122267 1.499042678496892 0  2.680488001921926 1.890792648508113 0  2.633884615905709 2.261886474580267 0  2.568939521810395 2.616446095507214 0  2.459403437908955 2.997850499678255 0  2.31006614439253 3.345849965081976 0  2.123394000303783 3.675476005513651 0  1.901026608299458 3.97598885046397 0  1.645543279908046 4.241678212410946 0  1.361382950759189 4.47580505984102 0  1.04646472280679 4.652695328413936 0  0.7224343196120975 4.779802921709254 0  0.3790943600223383 4.87074419313408 0  0.03007179897669333 4.897648075316785 0  -0.3183201651007643 4.871318366303353 0  -0.6586095006677664 4.786738658538266 0  -0.9836395702784115 4.650551432315796 0  -1.286755701592168 4.449853540865573 0  -1.555336630834653 4.226650580698218 0  -1.806757048867936 3.954937803523201 0  -2.013576504197525 3.629725759252439 0  -2.182268241316566 3.281304655373112 0  -2.310262235827816 2.908500606571207 0  -2.396266450825346 2.515013588827671 0  -2.441903531398355 2.121496072571364 0  -2.439678105694263 1.681979724190265 0  -2.391316918851811 1.35125997171863 0  -2.355875760688938 0.9866789826365772 0  -2.253007318690141 0.5847259784389492 0  -2.1226509135413 0.2191240965438486 0  -1.966718560438097 -0.1228787868330204 0  -1.78051557809806 -0.4641801704042486 0  -1.58546526585208 -0.728948776605002 0  -1.325909900319305 -1.143630305186994 0  -1.041628284799137 -1.245350349339798 0  -0.8730833667467841 -1.318449836923571 0  -0.6195635095369815 -1.507403571339851 0  -0.3691063831309414 -1.625830518358592 0  -0.1039822918496376 -1.740357940816262 0  0.1363783114886004 -1.759422353279263 0  0.4417187666466165 -1.885977062123791 0  0.5325835282184312 -1.516478811990126 0  0.6404196445444807 -1.679899215249128 0  1.178867513209108 -2.065092545731666 0  1.438703590458719 -1.994502439805925 0  1.766666925644568 -1.966962714351155 0  1.986942301729874 -1.819652174171017 0  2.307019335451067 -1.728070481064704 0  2.343783797932764 -1.380289987778806 0  2.972321170336635 -1.443849128788004 0  2.650637394376071 -0.5755492207608477 0  2.127653497599757 -0.2379706308962037 0  2.55042710545382 -0.1048762097844782 0  2.395992551271436 0.1655503451751069 0  2.519150954337696 0.4194062506292419 0  2.365673803839495 0.6717276675496446 0  2.514824400278457 0.9383705839604487 0  2.037858905733355 1.057704542425583 0  2.594720735324752 1.399463975872966 0  2.928770473131402 2.312865312849955 0  2.224844643362166 2.198807859200437 0  2.183699317627291 2.548519327184012 0  1.830090618423023 2.615225135749104 0  1.590905727539357 2.746853208873577 0  1.240581908009458 2.75384063514262 0  0.9712734796579539 2.819669127151257 0  0.389440770956279 2.402792728832885 0  0.2473700587010832 2.14880739966198 0  0.1638598803117906 2.545236424310902 0  -0.1620569776410885 2.386319849565273 0  -0.4137748923840203 2.35728359543062 0  -0.6952749543844347 2.222907533450002 0  -0.959607674109894 2.089638176078523 0  -1.227924162435992 1.883478491056595 0  -1.409129609909699 1.81601972346157 0  -1.725181812278031 1.69575121731395 0  -2.010658834063399 1.215382408063926 0  -2.2234690837137 0.9242881137541008 0  -2.430331507359478 0.54054384507387 0  -2.605678927609392 0.1578123027186372 0  -2.753247143937096 -0.2501980240758784 0  -2.867515651200031 -0.6852306194109318 0  -2.930651353322394 -1.064744116983757 0  -3.012049059891916 -1.489960119494463 0  -3.022224955550447 -2.043795961429446 0  -2.979562196012265 -2.502396322476585 0  -2.894203262693348 -2.98132219782297 0  -2.761259101648878 -3.434562437688545 0  -2.581917660391327 -3.866689133547168 0  -2.358442882851691 -4.284178481639954 0  -2.075276222100347 -4.633964321997643 0  -1.779028060115557 -4.926722666207488 0  -1.435718151092861 -5.213046839770179 0  -1.061517903737602 -5.421342569713778 0  -0.6643136529358926 -5.570820487404565 0  -0.2520160069485977 -5.651254401688532 0  0.1664841176406307 -5.664400557176654 0  0.5829812606028173 -5.60696441772689 0  0.9881141867653345 -5.482501743832941 0  1.372224433921033 -5.2928069039292 0  1.730305334104527 -5.046274006755619 0  2.054474231529587 -4.744732668663007 0  2.339619988634937 -4.397834891205246 0  2.581512044566177 -4.00935502102407 0  2.777929027160312 -3.598416603961356 0  2.923939821271074 -3.132026690190512 0  3.010198279156163 -2.731424099714009 0  3.091558855056518 -2.29615924562888 0  3.104549587872799 -1.820622373944197 0  3.07837520226253 -1.36966042792555 0  3.013900151790652 -0.9276553362977532 0  2.913474405687391 -0.501840668101962 0  2.780498862284364 -0.09543211510382232 0  2.610495958012867 0.2968396885643383 0  2.430937256014915 0.5752046274097967 0  2.254157371625137 0.9198502324362797 0  2.021106307677926 1.257392143714573 0  1.77529833313124 1.546210431234379 0  1.520618869569853 1.798342387656684 0  1.242449116247376 2.050094312412828 0  0.9794447807230535 2.205259792440383 0  0.6169512985249763 2.557073017990004 0  0.3063588184606483 2.450117131970248 0  0.1443898535541077 2.413557717033196 0  -0.1448576933423618 2.519864817382951 0  -0.4203907677408569 2.553221178012554 0  -0.6949228289429854 2.567171616845979 0  -0.9922162334217219 2.582791629782077 0  -1.222730428219941 2.484389695041786 0  -1.649474626990346 2.608289343550261 0  -1.811235836635139 2.19000563442261 0  -1.840140219842558 1.939712813078981 0  -2.073838680254673 1.802359162461885 0  -2.210575239441964 1.582590079371449 0  -2.347014185731958 1.350773862891598 0  -2.410486882415028 1.074960107689506 0  -2.447609445802453 0.7979629428327338 0  -2.366476345924185 0.4937380911593783 0  0.08358052224671537 3.012464457484682 0  0.44192337926076 -0.5337695534622859 0  -0.06158800506577178 0.2582073473997979 0  -0.07363007147111325 -3.589784525037746 0  0.1818063473843323 0.3736974733922065 0  -1.35661915019616 -0.7343733716266507 0  0.213228786915043 0.06339857978875879 0  1.79079719232033 0.3393922092038276 0  -1.278041210061618 1.056724272322875 0  0.6821517448378036 1.274001341065081 0  1.342977748572428 0.256955338761485 0  0.8209429219341765 -0.154223536686156 0  0.930924637517849 -0.6982785897844908 0  0.6886920782209027 -2.708341445882844 0  -0.5688891286087827 -1.414960905137796 0  0.4581392978724256 2.167906628798156 0  -1.195993863654987 0.24350292454321 0  -1.349359573082815 0.06450111021004783 0  -0.4646670301031382 -1.88673416749987 0  -0.2371128831942321 1.756365193957885 0  0.5799868052717763 1.002695590069881 0  -0.4867679951182982 0.9213537592282723 0  -0.6391625956562106 -0.7463650227068119 0  -0.8037477723658458 -0.4447164489648266 0  -0.315991130246808 0.4767118462774769 0  0.9610701645226809 0.4487440200118972 0  0.05982541872761232 -1.150601755302472 0  -1.433954674265611 0.1231200484894911 0  -1.818757152348215 0.2001599673473966 0  -0.01952714935027622 0.3525303237722601 0  -1.096079912503686 0.3990512379494066 0  -0.7891284540105964 0.0321517156273835 0  -1.192567920786967 -0.006832468582266576 0  -0.2625519661084684 -0.5933307288955798 0  -1.169201031917133 0.6175197346211635 0  -1.37864321275664 0.09269735020824618 0  1.307466766617596 -0.1320373377656273 0  1.515194006161968 -0.3282134048207041 0  1.526676079956022 0.3111027488226271 0  1.16927552868696 0.6900637861676397 0  1.403984108872132 0.9736381404849406 0  1.456587797463875 1.436875145861348 0  2.01375773797893 0.9247227036425041 0  2.058045817320119 -0.1775758290420227 0  1.579177943099425 -0.7483764382875888 0  -0.0221816992131916 -2.400843781911907 0  0.05819871552094713 -1.671310462725544 0  -0.3877855227840795 -2.926118789329136 0  0.4793982590433973 -0.5916838985164211 0  0.2534776988006878 -0.9033382522888753 0  0.4960022464502243 1.799131616035939 0  0.7549724213894751 -1.15589221250343 0  0.03506234091825938 -1.436152080796561 0  -0.6976679933369339 -0.8210375749574155 0  0.09212094576677948 -2.032264644052709 0  0.5703600073628259 -0.4463987911681409 0  1.076732822307497 0.01094279433813106 0  -1.326402765413951 1.582408989545058 0  -0.5350018692136245 1.778269785272301 0  -0.6996959300393037 -1.45586026000602 0  -1.434948399828094 -1.19414784525623 0  -1.358021839083872 -0.3031992514378542 0  -0.7934576392059859 0.9256319883941059 0  -0.4667658007593338 -0.4949510145895911 0  -0.9808507911846804 0.5592379898306633 0  1.392718429298662 -0.07407537370104511 0  1.678372563879782 -1.520624670801869 0  1.397266386375796 1.190464468177936 0  1.107369916505738 0.005589810113433846 0  0.1840883280957055 -4.660309884303226 0  -0.7617228409201564 -4.289380643229713 0  -0.5168300446166112 3.770535026191427 0  0.2712823915035187 3.964816306060557 0  0.65152514791946
[...]
<PointData  Vectors="f_44"> 
<DataArray  type="Float64"  Name="f_44"  NumberOfComponents="3" format="ascii">2.3524335662323284e-01 4.1484416400420061e-02 0.0000000000000000e+00  1.7332203530975976e-01 -1.4214346369884970e-01 0.0000000000000000e+00  1.7150074202354434e-01 -7.6030220063026552e-02 0.0000000000000000e+00  2.4054081105090999e-01 7.3946274015278604e-02 0.0000000000000000e+00  1.6672847883836431e-01 1.0721755402849426e-01 0.0000000000000000e+00  1.6174525231328185e-01 1.8523131307866750e-01 0.0000000000000000e+00  -9.2397842452391701e-03 2.2495205283670283e-01 0.0000000000000000e+00  3.9466622501045691e-02 9.2021684714635232e-02 0.0000000000000000e+00  2.8890396160665333e-01 1.3147674771384485e-01 0.0000000000000000e+00  -3.0139545493006452e-02 6.5014182939097777e-03 0.0000000000000000e+00  -2.2088367953169258e-01 -2.6538142723220491e-02 0.0000000000000000e+00  -1.5361274906406552e-01 1.4593791350947868e-01 0.0000000000000000e+00  -2.4191951016592314e-01 -3.4070112735472696e-02 0.0000000000000000e+00  -2.2258493262393289e-01 2.1474479497460407e-02 0.0000000000000000e+00  -2.0448803991186024e-01 -1.0716405395281225e-01 0.0000000000000000e+00  -1.7236675973621229e-01 -6.6185675831669871e-02 0.0000000000000000e+00  -1.9870277268533970e-01 2.6396678613186236e-01 0.0000000000000000e+00  -5.5563654590992620e-02 -7.9508039217675533e-02 0.0000000000000000e+00  -5.3521428614418810e-02 -2.5241746636906903e-01 0.0000000000000000e+00  -1.0226320726973298e-01 -1.8502058704607255e-01 0.0000000000000000e+00  -1.7880283106859424e-02 -2.3078243315013022e-01 0.0000000000000000e+00  -6.4142531956037398e-03 -2.2067159374777365e-01 0.0000000000000000e+00  3.8984655190360533e-02 -2.2316217413025524e-01 0.0000000000000000e+00  1.0617880375813844e-01 -1.9581814568998482e-01 0.0000000000000000e+00  9.1571991529696417e-02 -2.0171975214220264e-01 0.0000000000000000e+00  9.5870410442396678e-02 -1.9821254574379574e-01 0.0000000000000000e+00  1.6516540115566264e-01 -1.5598348349183461e-01 0.0000000000000000e+00  1.8091091382011126e-01 -1.2989495133065745e-01 0.0000000000000000e+00  2.0283181430072747e-01 -9.5924419288006241e-02 0.0000000000000000e+00  2.1558798113216138e-01 -5.8719277764219376e-02 0.0000000000000000e+00  2.2354862015605134e-01 -2.3419439217248480e-02 0.0000000000000000e+00  2.2097506238314060e-01 2.8577055290893133e-02 0.0000000000000000e+00  2.1360383492545496e-01 6.9698752213864776e-02 0.0000000000000000e+00  2.0193439993271392e-01 9.6193516399161696e-02 0.0000000000000000e+00  1.7362315671255438e-01 1.4147684649548117e-01 0.0000000000000000e+00  1.3527285432418124e-01 1.7894120416328760e-01 0.0000000000000000e+00  9.2480753101928548e-02 2.0425495169584468e-01 0.0000000000000000e+00  3.6289866650699679e-02 2.2067433831983144e-01 0.0000000000000000e+00  -1.4805173394825377e-02 2.2480391791083021e-01 0.0000000000000000e+00  -7.9105530993056686e-02 2.0884886593888349e-01 0.0000000000000000e+00  -1.4527244908453324e-01 1.7140164760195767e-01 0.0000000000000000e+00  -1.7997579687566795e-01 1.3530722321923086e-01 0.0000000000000000e+00  -2.0986079610527855e-01 7.5256932803066973e-02 0.0000000000000000e+00  -2.2609548959039252e-01 -7.8415581947850982e-04 0.0000000000000000e+00  -2.1185552917982750e-01 -7.0075375186082436e-02 0.0000000000000000e+00  -1.8239406724445462e-01 -1.3394236341383620e-01 0.0000000000000000e+00  -1.2170374797743076e-01 -1.8653453769023640e-01 0.0000000000000000e+00  -6.1794459335974543e-02 -2.1657303191586424e-01 0.0000000000000000e+00  -1.6463680775643651e-02 -2.2415820823934621e-01 0.0000000000000000e+00  5.8449934623537071e-02 -2.1539834701002855e-01 0.0000000000000000e+00  1.2100948606876938e-01 -1.9002431766970096e-01 0.0000000000000000e+00  1.5809674366318635e-01 -1.5818720293263389e-01 0.0000000000000000e+00  1.9237996586419881e-01 -1.1514250584507085e-01 0.0000000000000000e+00  2.1167261006292523e-01 -7.2662337258458276e-02 0.0000000000000000e+00  2.2349251533336267e-01 -2.7932001042360759e-02 0.0000000000000000e+00  2.1871544186909114e-01 4.0122143710640788e-02 0.0000000000000000e+00  2.1827083719493828e-01 5.1978806678665036e-02 0.0000000000000000e+00  2.1029057780506952e-01 6.9042850358023808e-02 0.0000000000000000e+00  1.8490373329498264e-01 1.3042988104934147e-01 0.0000000000000000e+00  1.5850895608791754e-01 1.5536936276707888e-01 0.0000000000000000e+00  1.4104947351688543e-01 1.7838546757651724e-01 0.0000000000000000e+00  8.0320364101291786e-02 2.0177302316777751e-01 0.0000000000000000e+00  1.1079264357980183e-01 2.1600208088141895e-01 0.0000000000000000e+00  2.3005233792303408e-03 1.7600039025217654e-01 0.0000000000000000e+00  -2.3511257730451063e-01 1.3087728542194380e-01 0.0000000000000000e+00  -7.1376484838757026e-02 2.0797963434378502e-01 0.0000000000000000e+00  -9.5736136851676340e-02 1.9372459392496733e-01 0.0000000000000000e+00  -1.5298355343040965e-01 1.8513736212319204e-01 0.0000000000000000e+00  -1.7685656400322708e-01 7.4463407500945711e-02 0.0000000000000000e+00  -2.5259068556642450e-01 1.4170212275337088e-01 0.0000000000000000e+00  4.5349746427567152e-02 7.2281116336868527e-03 0.0000000000000000e+00  2.3238362269457433e-01 -4.8998606502502144e-02 0.0000000000000000e+00  -3.7296668238974609e-02 2.8653118573076014e-01 0.0000000000000000e+00  -1.1068909954616271e-01 8.9223721575763235e-02 0.0000000000000000e+00  -2.5388884557978941e-01 -1.0014278438514032e-01 0.0000000000000000e+00  -1.2103776281783066e-01 -9.8418741951565053e-02 0.0000000000000000e+00  -2.1964280312912321e-01 -1.9322291541979539e-01 0.0000000000000000e+00  1.1204814775765122e-01 -7.5913821666443421e-02 0.0000000000000000e+00  -1.1429476114974042e-01 2.2603717410025351e-03 0.0000000000000000e+00  -9.9354649291171480e-04 9.1652874510753116e-02 0.0000000000000000e+00  1.4182055408794106e-01 2.1877391153523959e-01 0.0000000000000000e+00  -2.2330251385153579e-01 3.6690627485011770e-02 0.0000000000000000e+00  -6.3137400946247271e-02 -9.4427611397048007e-03 0.0000000000000000e+00  1.8211830357206765e-01 2.4368987940091805e-02 0.0000000000000000e+00  9.4867777064663164e-02 1.8685259898287593e-02 0.0000000000000000e+00  1.6017152718227301e-01 -4.0505445335627102e-03 0.0000000000000000e+00  -7.2421627633870306e-02 2.0646789987463147e-03 0.0000000000000000e+00  -2.3830528386605923e-01 -4.3484517056648575e-02 0.0000000000000000e+00  1.4069485057353101e-01 -2.0953879839815459e-01 0.0000000000000000e+00  -1.8452380335032342e-03 -1.0476645230993233e-01 0.0000000000000000e+00  -1.2062916216060887e-01 -2.0990107413208774e-02 0.0000000000000000e+00  9.7072891076957116e-02 6.5880040944670357e-02 0.0000000000000000e+00  -2.5230141537754786e-01 1.5659605685876504e-01 0.0000000000000000e+00  -1.4061459700268231e-01 7.5998030768446384e-02 0.0000000000000000e+00  -2.5303416351937791e-01 7.5863086885020900e-02 0.0000000000000000e+00  -1.1894254590201778e-01 -9.6279003602886395e-02 0.0000000000000000e+00  -1.8211531412016715e-02 -2.7757219056616567e-01 0.0000000000000000e+00  2.3907660583532361e-01 2.3452416971726633e-02 0.0000000000000000e+00  5.7459700721670927e-02 -2.1204808418588881e-02 0.0000000000000000e+00  -2.3773791422283772e-01 -1.6257415426455635e-01 0.0000000000000000e+00  -1.7071008974170868e-01 -8.8267367017240625e-02 0.0000000000000000e+00  -1.4056502443106778e-01 -1.9365212993522479e-01 0.0000000000000000e+00  -8.6161391515384739e-02 -2.0051049070785276e-01 0.0000000000000000e+00  -7.5722218083261406e-02 -1.9874369503636971e-01 0.0000000000000000e+00  -2.4264316237403746e-01 -1.2900754812698462e-01 0.0000000000000000e+00  1.4756537405289450e-02 -1.7760244335979963e-01 0.0000000000000000e+00  1.1686197541237643e-01 -2.1086801579150369e-01 0.0000000000000000e+00  8.1640169184614447e-02 -2.0178732420969001e-01 0.0000000000000000e+00  1.4207796823975294e-01 -1.7729221252680563e-01 0.0000000000000000e+00  1.5695515365998716e-01 -1.5760680023396018e-01 0.0000000000000000e+00  1.8432122004392654e-01 -1.2896210404501426e-01 0.0000000000000000e+00  2.0596386257840280e-01 -8.4833471966803145e-02 0.0000000000000000e+00  2.0871038377925019e-01 -8.3795305701792375e-02 0.0000000000000000e+00  2.1602043556126374e-01 -4.8840775720709273e-02 0.0000000000000000e+00  2.2476152508095043e-01 2.1243913598416785e-02 0.0000000000000000e+00  2.1558795533681077e-01 5.9255534043847473e-02 0.0000000000000000e+00  2.0153040585998006e-01 9.8084457955745538e-02 0.0000000000000000e+00  1.7266473121057560e-01 1.4181055155049593e-01 0.0000000000000000e+00  1.4620257007994464e-01 1.7183655440889617e-01 0.0000000000000000e+00  8.8128126607166526e-02 2.0417681974653804e-01 0.0000000000000000e+00  1.5553872537966881e-02 2.2464274620017466e-01 0.0000000000000000e+00  -1.6985056082233219e-02 2.2436027453306212e-01 0.0000000000000000e+00  -7.6717721402769085e-02 2.0878621707222458e-01 0.0000000000000000e+00  -1.4784311131923161e-01 1.7135517001219924e-01 0.0000000000000000e+00  -1.8957351616430598e-01 1.1837518478836333e-01 0.0000000000000000e+00  -2.1964782494904672e-01 4.9896537050738307e-02 0.0000000000000000e+00  -2.2294050963623754e-01 -2.3607393277103331e-02 0.0000000000000000e+00  -2.0385393097611942e-01 -9.5089824413140511e-02 0.0000000000000000e+00  -1.6242101894375860e-01 -1.5447889941145651e-01 0.0000000000000000e+00  -1.0905718083778605e-01 -1.9657625534113948e-01 0.0000000000000000e+00  -4.8092299673566541e-02 -2.1875443395287589e-01 0.0000000000000000e+00  1.4210612240263411e-02 -2.2426476099100007e-01 0.0000000000000000e+00  7.3042153241046265e-02 -2.1136413260669801e-01 0.0000000000000000e+00  1.2001582698071270e-01 -1.9019650413274583e-01 0.0000000000000000e+00  1.6410981810608227e-01 -1.5190040990301185e-01 0.0000000000000000e+00  1.9775391135599960e-01 -1.0483615692776699e-01 0.0000000000000000e+00  2.0566358511395355e-01 -9.1405891747969800e-02 0.0000000000000000e+00  2.1632050784640167e-01 -4.8802520188626242e-02 0.0000000000000000e+00  2.2528459682539317e-01 1.1364313620359936e-02 0.0000000000000000e+00  2.1883251388177291e-01 4.3770282452920181e-02 0.0000000000000000e+00  2.0860705260162499e-01 8.2550412153662003e-02 0.0000000000000000e+00  1.8987772541648909e-01 1.1703815444238648e-01 0.0000000000000000e+00  1.7335884254376066e-01 1.4518077775429200e-01 0.0000000000000000e+00  1.1644457647323350e-01 1.8826860738672380e-01 0.0000000000000000e+00  1.1138854240787625e-01 1.9302178839528522e-01 0.0000000000000000e+00  1.1503661431483558e-01 1.9027589397942857e-01 0.0000000000000000e+00  5.4765702284110943e-02 2.1959032707402568e-01 0.0000000000000000e+00  1.1931065406655486e-02 2.2066678334148568e-01 0.0000000000000000e+00  -3.2617014842155193e-04 2.3079602524355633e-01 0.0000000000000000e+00  -8.3281001457755646e-02 1.9494372770239118e-01 0.0000000000000000e+00  -3.4779027969819860e-02 2.5478548274312640e-01 0.0000000000000000e+00  -5.4214245924916665e-02 9.0007990239027558e-02 0.0000000000000000e+00  -2.3078114888686696e-01 -2.3056208035667741e-01 0.0000000000000000e+00  -1.6956447067905839e-01 9.0052607495990741e-02 0.0000000000000000e+00  -1.9135852315279606e-01 1.2623414049068551e-01 0.0000000000000000e+00  -2.2306700230348467e-01 9.6365671360977897e-03 0.0000000000000000e+00  -2.3531489591064955e-01 6.3435415541540155e-02 0.0000000000000000e+00  -1.7218345177349084e-01 -1.1983052882607231e-01 0.0000000000000000e+00  -2.2352077128406930e-01 4.8033551096457239e-02 0.0000000000000000e+00  -3.1936751393735613e-02 3.3391830347545052e-03 0.0000000000000000e+00  2.8357813780689078e-01 -1.5627917366976943e-01 0.0000000000000000e+00  1.6684258043263411e-02 -9.3318060363539929e-02 0.0000000000000000e+00  -4.7221461313296548e-02 -2.2282736357006916e-01 0.0000000000000000e+00  1.3048693133809233e-01 -2.0546780373138906e-01 0.0000000000000000e+00  1.4419111030506382e-01 -1.4477627326738360e-01 0.0000000000000000e+00  2.2635201486416387e-01 -9.0593810027270849e-02 0.0000000000000000e+00  2.0097297139439135e-01 3.7714571802256514e-02 0.0000000000000000e+00  1.9652188054637712e-01 1.1529151353512461e-01 0.0000000000000000e+00  -1.8110528552096433e-01 1.3382067343712686e-01 0.0000000000000000e+00  -7.7655244934669437e-02 2.1205398213965737e-01 0.0000000000000000e+00  2.9420366996707269e-02 -2.2326002040580545e-01 0.0000000000000000e+00  -2.2331978040804204e-01 -2.2764788132654392e-02 0.0000000000000000e+00  -1.2497257125375567e-01 -1.8803910649021258e-01 0.0000000000000000e+00  2.4199825017015873e-02 2.2406364162500864e-01 0.0000000000000000e+00  2.2002084847281018e-03 2.2549787117080378e-01 0.0000000000000000e+00  2.2495187362253338e-01 -1.5127121054286211e-02 0.0000000000000000e+00  -7.5459724734490599e-02 -2.1208029846066725e-01 0.0000000000000000e+00  -2.1682070916522261e-01 5.8370741226335496e-02 0.0000000000000000e+00  2.1837309417788481e-01 9.6700089920919122e-02 0.0000000000000000e+00  1.8548221121483532e-01 -1.2685880491793411e-01 0.0000000000000000e+00  -2.0950804135552820e-01 -8.0698791212991366e-02 0.0000000000000000e+00  1.8443738131118476e-01 -1.3091770541337253e-01 0.0000000000000000e+00  2.0999325468311006e-01 8.8365309466493958e-02 0.0000000000000000e+00  2.2647150674800698e-01 -1.9046656522136357e-02 0.0000000000000000e+00  -5.9403933168204567e-02 2.2022305269101189e-01 0.0000000000000000e+00  2.3018352379099838e-01 -4.6532239449538965e-02 0.0000000000000000e+00  8.8392323387541563e-02 2.0694184250845729e-01 0.0000000000000000e+00  5.8697004484932799e-02 -2.1778091547913411e-01 0.0000000000000000e+00  2.2146028131069431e-01 -4.7273047159062095e-02 0.0000000000000000e+00  -2.2322479347737195e-01 -2.6411594132193624e-02 0.0000000000000000e+00  -2.1298592386052270e-01 7.2380309668038059e-02 0.0000000000000000e+00  -1.4447301605586843e-01 -1.7458315365044341e-01 0.0000000000000000e+00  -1.2910085450417602e-01 1.8725938240131526e-01 0.0000000000000000e+00  1.1707719257944932e-01 1.9189570427178279e-01 0.0000000000000000e+00  1.1744190144057649e-01 1.9134735155517638e-01 0.0000000000000000e+00  2.1927209541433187e-01 -5.7522711214628194e-02 0.0000000000000000e+00  2.1789116705817685e-01 -5.4880400227974947e-02 0.0000000000000000e+00  -2.0295903852100661e-01 9.8030711296364897e-02 0.0000000000000000e+00  -9.3918216757570949e-02 -2.0597638641090732e-01 0.0000000000000000e+00  -1.9380938653775889e-01 -1.1846169672406284e-01 0.0000000000000000e+00  6.4714038706680480e-02 -2.1948325264248189e-01 0.0000000000000000e+00  -2.1147702913369482e-01 8.3009711754558513e-02 0.0000000000000000e+00  -5.9090857846253710e-02 -2.1734087572784033e-01 0.0000000000000000e+00  2.2274025553347196e-01 -5.7994456621954751e-02 0.0000000000000000e+00  -7.7036553691472193e-02 -2.1370704841976584e-01 0.0000000000000000e+00  1.2954436345358802e-02 -2.2588382925399747e-01 0.0000000000000000e+00  2.2504546664531322e-01 3.7815101472466355e-02 0.0000000000000000e+00  -1.2805097275045188e-01 1.8684079016488622e-01 0.0000000000000000e+00  2.5817749819777363e-03 2.2627335436916690e-01 0.0000000000000000e+00  -4.5720413650021115e-02 2.2831633275705548e-01 0.0000000000000000e+00  1.1103006661728410e-01 -1.9652564274804654e-01 0.0000000000000000e+00  2.1715402670942643e-01 5.5728327061465195e-02 0.0000000000000000e+00  -3.3839345064446462e-02 -2.2478802027559991e-01 0.0000000000000000e+00  -2.1485598648628212e-01 7.2292209360716730e-02 0.0000000000000000e+00  8.0606500814781965e-03 2.2576313828741001e-01 0.0000000000000000e+00  -1.5801514136571898e-01 1.5988774738047820e-01 0.0000000000000000e+00  2.1973918531694436e-01 4.6515469124041940e-02 0.0000000000000000e+00  2.0727383853798123e-01 8.7437634558797675e-02 0.0000000000000000e+00  -2.1841343789020881e-01 4.8173448685140542e-02 0.0000000000000000e+00  -2.1001005146927001e-01 -7.5486256969331283e-02 0.0000000000000000e+00  -1.2157995362543167e-02 2.3064567032069921e-01 0.0000000000000000e+00  -6.3633480450183022e-02 -2.2027419419756011e-01 0.0000000000000000e+00  9.1099517685558573e-02 -2.1641107336368229e-01 0.0000000000000000e+00  -2.0593748940775033e-01 9.0816482981310148e-02 0.0000000000000000e+00  -2.2796389380770335e-01 -1.4129590498803834e-02 0.0000000000000000e+00  -1.5690988889863225e-01 -1.5983796409578307e-01 0.0000000000000000e+00  -2.1477464135194971e-01 -6.4312911990547339e-02 0.0000000000000000e+00  -1.9526684409822659e-01 1.1101219432478665e-01 0.0000000000000000e+00  -6.2777209552544316e-03 2.2518109728826172e-01 0.0000000000000000e+00  1.7368635847035657e-01 -1.4240767557435388e-01 0.0000000000000000e+00  -4.0965180210588772e-02 -2.2064470490211577e-01 0.0000000000000000e+00  -5.1774800023696332e-02 2.1843441820202122e-01 0.0000000000000000e+00  1.7629432552408553e-01 1.3943659688528615e-01 0.0000000000000000e+00  4.1583191695654713e-02 2.2095698588600943e-01 0.0000000000000000e+00  1.8972763974219573e-01 1.2072497298247077e-01 0.0000000000000000e+00  1.6277192747386290e-01 -1.5531704017396797e-01 0.0000000000000000e+00  1.0415735013767146e-02 -2.2468190331765442e-01 0.0000000000000000e+00  -2.1541165142179133e-01 -6.4440352943876927e-02 0.0000000000000000e+00  -1.5566673064633535e-01 1.6204579854683621e-01 0.0000000000000000e+00  -1.9258961753567821e-01 -1.1612306232818663e-01 0.0000000000000000e+00  -1.8992811273593269e-01 1.2052255109515671e-01 0.0000000000000000e+00  1.4534506933253830e-01 1.7331347623917673e-01 0.0000000000000000e+00  1.2281280045167035e-01 1.9239959808703316e-01 0.0000000000000000e+00  -1.6543127892046677e-01 1.5567261582278810e-01 0.0000000000000000e+00  -2.2655745838416425e-01 -8.3367682156352263e-03 0.0000000000000000e+00  1.1981168215399028e-01 -1.9175389098165097e-01 0.0000000000000000e+00  -2.3805963221040510e-01 -5.1000732378900671e-03 0.0000000000000000e+00  -2.1969638753686180e-01 -5.9270490376643309e-02 0.0000000000000000e+00  -8.2891500686064504e-02 2.1335322778909485e-01 0.0000000000000000e+00  1.4172077826118334e-01 1.7344744469085543e-01 0.0000000000000000e+00  2.1167486281696479e-01 8.0272206114254382e-02 0.0000000000000000e+00  -1.7850617744100886e-01 -1.3591745474548514e-01 0.0000000000000000e+00  -1.8991861839717658e-01 1.1977187593195758e-01 0.0000000000000000e+00  -1.9208147243934789e-01 -1.1709428342467863e-01 0.0000000000000000e+00  -3.9133136258038222e-02 2.2337677935294420e-01 0.0000000000000000e+00  -2.1714396917719730e-01 -6.0758563603316357e-02 0.0000000000000000e+00  4.2508108115839613e-03 2.2541013676519325e-01 0.0000000000000000e+00  -1.7520003344357155e-01 -1.4705048404182669e-01 0.0000000000000000e+00  5.9148228144658525e-02 -2.1827532308224895e-01 0.0000000000000000e+00  -2.0823890372385090e-01 -8.8760069220600216e-02 0.0000000000000000e+00  -1.0257186927255793e-01 -2.0007153896414390e-01 0.0000000000000000e+00  2.7161037365986476e-02 -2.2645336764756563e-01 0.0000000000000000e+00  -2.4436379204712219e-01 1.3198501478232120e-03 0.0000000000000000e+00  -2.1312762045510261e-01 -7.4439731655798785e-02 0.0000000000000000e+00  2.2832089518418547e-01 -2.7415812304643447e-02 0.0000000000000000e+00  5.7656129939014554e-02 2.1799144586420102e-01 0.0000000000000000e+00  2.0274693043945954e-01 -9.7503306793393779e-02 0.0000000000000000e+00  -1.8577913739129509e-02 -2.2421314584262939e-01 0.0000000000000000e+00  4.7448061337316862e-02 2.2015944489221720e-01 0.0000000000000000e+00  2.2203329508981340e-01 3.7360729342932705e-02 0.0000000000000000e+00  8.7951388802124955e-02 2.0616366888328014e-01 0.0000000000000000e+00  -1.1805244620817297e-03 -2.3600686787097047e-01 0.0000000000000000e+00  2.0922715704222303e-02 2.2485582470674204e-01 0.0000000000000000e+00  4.8771844463851514e-02 2.1934904784433060e-01 0.0000000000000000e+00  2.1096104223228881e-01 7.7039534655888642e-02 0.0000000000000000e+00  2.2324252538821798e-01 -2.8902969574927384e-02 0.0000000000000000e+00  2.0202122386870777e-01 -9.8513936441428612e-02 0.0000000000000000e+00  1.6191342440795196e-03 -2.2499716344608275e-01 0.0000000000000000e+00  2.2226990436873401e-01 3.7739632169376716e-02 0.0000000000000000e+00  -2.1690974609286579e-01 6.4141901773379612e-02 0.0000000000000000e+00  5.2215969698530033e