<?xml version="1.0"?>
<VTKFile type="UnstructuredGrid"  version="0.1"  >
<UnstructuredGrid>
<Piece  NumberOfPoints="11902" NumberOfCells="23402">
<Points>
<DataArray  type="Float64"  NumberOfComponents="3"  format="ascii">-5 -5 0  5 -5 0  5 5 0  -5 5 0  1.093140182132612 0.000620472565442025 0  -4.9 -5 0  -4.8 -5 0  -4.7 -5 0  -4.6 -5 0  -4.5 -5 0  -4.4 -5 0  -4.3 -5 0  -4.2 -5 0  -4.1 -5 0  -4 -5 0  -3.9 -5 0  -3.8 -5 0  -3.7 -5 0  -3.6 -5 0  -3.5 -5 0  -3.4 -5 0  -3.3 -5 0  -3.2 -5 0  -3.1 -5 0  -3 -5 0  -2.9 -5 0  -2.8 -5 0  -2.7 -5 0  -2.6 -5 0  -2.5 -5 0  -2.4 -5 0  -2.3 -5 0  -2.2 -5 0  -2.1 -5 0  -2 -5 0  -1.9 -5 0  -1.8 -5 0  -1.7 -5 0  -1.6 -5 0  -1.5 -5 0  -1.4 -5 0  -1.3 -5 0  -1.2 -5 0  -1.1 -5 0  -1 -5 0  -0.9000000000000004 -5 0  -0.7999999999999998 -5 0  -0.7000000000000002 -5 0  -0.5999999999999996 -5 0  -0.5 -5 0  -0.4000000000000004 -5 0  -0.2999999999999998 -5 0  -0.2000000000000002 -5 0  -0.09999999999999964 -5 0  0 -5 0  0.09999999999999964 -5 0  0.2000000000000002 -5 0  0.2999999999999998 -5 0  0.4000000000000004 -5 0  0.5 -5 0  0.5999999999999996 -5 0  0.7000000000000002 -5 0  0.7999999999999998 -5 0  0.9000000000000004 -5 0  1 -5 0  1.1 -5 0  1.2 -5 0  1.3 -5 0  1.4 -5 0  1.5 -5 0  1.6 -5 0  1.7 -5 0  1.8 -5 0  1.9 -5 0  2 -5 0  2.1 -5 0  2.2 -5 0  2.3 -5 0  2.4 -5 0  2.5 -5 0  2.6 -5 0  2.7 -5 0  2.8 -5 0  2.9 -5 0  3 -5 0  3.1 -5 0  3.199999999999999 -5 0  3.300000000000001 -5 0  3.4 -5 0  3.5 -5 0  3.6 -5 0  3.699999999999999 -5 0  3.800000000000001 -5 0  3.9 -5 0  4 -5 0  4.1 -5 0  4.199999999999999 -5 0  4.300000000000001 -5 0  4.4 -5 0  4.5 -5 0  4.6 -5 0  4.699999999999999 -5 0  4.800000000000001 -5 0  4.9 -5 0  5 -4.9 0  5 -4.8 0  5 -4.7 0  5 -4.6 0  5 -4.5 0  5 -4.4 0  5 -4.3 0  5 -4.2 0  5 -4.1 0  5 -4 0  5 -3.9 0  5 -3.8 0  5 -3.7 0  5 -3.6 0  5 -3.5 0  5 -3.4 0  5 -3.3 0  5 -3.2 0  5 -3.1 0  5 -3 0  5 -2.9 0  5 -2.8 0  5 -2.7 0  5 -2.6 0  5 -2.5 0  5 -2.4 0  5 -2.3 0  5 -2.2 0  5 -2.1 0  5 -2 0  5 -1.9 0  5 -1.8 0  5 -1.7 0  5 -1.6 0  5 -1.5 0  5 -1.4 0  5 -1.3 0  5 -1.2 0  5 -1.1 0  5 -1 0  5 -0.9000000000000004 0  5 -0.7999999999999998 0  5 -0.7000000000000002 0  5 -0.5999999999999996 0  5 -0.5 0  5 -0.4000000000000004 0  5 -0.2999999999999998 0  5 -0.2000000000000002 0  5 -0.09999999999999964 0  5 0 0  5 0.09999999999999964 0  5 0.2000000000000002 0  5 0.2999999999999998 0  5 0.4000000000000004 0  5 0.5 0  5 0.5999999999999996 0  5 0.7000000000000002 0  5 0.7999999999999998 0  5 0.9000000000000004 0  5 1 0  5 1.1 0  5 1.2 0  5 1.3 0  5 1.4 0  5 1.5 0  5 1.6 0  5 1.7 0  5 1.8 0  5 1.9 0  5 2 0  5 2.1 0  5 2.2 0  5 2.3 0  5 2.4 0  5 2.5 0  5 2.6 0  5 2.7 0  5 2.8 0  5 2.9 0  5 3 0  5 3.1 0  5 3.199999999999999 0  5 3.300000000000001 0  5 3.4 0  5 3.5 0  5 3.6 0  5 3.699999999999999 0  5 3.800000000000001 0  5 3.9 0  5 4 0  5 4.1 0  5 4.199999999999999 0  5 4.300000000000001 0  5 4.4 0  5 4.5 0  5 4.6 0  5 4.699999999999999 0  5 4.800000000000001 0  5 4.9 0  4.9 5 0  4.8 5 0  4.7 5 0  4.6 5 0  4.5 5 0  4.4 5 0  4.3 5 0  4.2 5 0  4.1 5 0  4 5 0  3.9 5 0  3.8 5 0  3.7 5 0  3.6 5 0  3.5 5 0  3.4 5 0  3.3 5 0  3.2 5 0  3.1 5 0  3 5 0  2.9 5 0  2.8 5 0  2.7 5 0  2.6 5 0  2.5 5 0  2.4 5 0  2.3 5 0  2.2 5 0  2.1 5 0  2 5 0  1.9 5 0  1.8 5 0  1.7 5 0  1.6 5 0  1.5 5 0  1.4 5 0  1.3 5 0  1.2 5 0  1.1 5 0  1 5 0  0.9000000000000004 5 0  0.7999999999999998 5 0  0.7000000000000002 5 0  0.5999999999999996 5 0  0.5 5 0  0.4000000000000004 5 0  0.2999999999999998 5 0  0.2000000000000002 5 0  0.09999999999999964 5 0  0 5 0  -0.09999999999999964 5 0  -0.2000000000000002 5 0  -0.2999999999999998 5 0  -0.4000000000000004 5 0  -0.5 5 0  -0.5999999999999996 5 0  -0.7000000000000002 5 0  -0.7999999999999998 5 0  -0.9000000000000004 5 0  -1 5 0  -1.1 5 0  -1.2 5 0  -1.3 5 0  -1.4 5 0  -1.5 5 0  -1.6 5 0  -1.7 5 0  -1.8 5 0  -1.9 5 0  -2 5 0  -2.1 5 0  -2.2 5 0  -2.3 5 0  -2.4 5 0  -2.5 5 0  -2.6 5 0  -2.7 5 0  -2.8 5 0  -2.9 5 0  -3 5 0  -3.1 5 0  -3.199999999999999 5 0  -3.300000000000001 5 0  -3.4 5 0  -3.5 5 0  -3.6 5 0  -3.699999999999999 5 0  -3.800000000000001 5 0  -3.9 5 0  -4 5 0  -4.1 5 0  -4.199999999999999 5 0  -4.300000000000001 5 0  -4.4 5 0  -4.5 5 0  -4.6 5 0  -4.699999999999999 5 0  -4.800000000000001 5 0  -4.9 5 0  -5 4.9 0  -5 4.8 0  -5 4.7 0  -5 4.6 0  -5 4.5 0  -5 4.4 0  -5 4.3 0  -5 4.2 0  -5 4.1 0  -5 4 0  -5 3.9 0  -5 3.8 0  -5 3.7 0  -5 3.6 0  -5 3.5 0  -5 3.4 0  -5 3.3 0  -5 3.2 0  -5 3.1 0  -5 3 0  -5 2.9 0  -5 2.8 0  -5 2.7 0  -5 2.6 0  -5 2.5 0  -5 2.4 0  -5 2.3 0  -5 2.2 0  -5 2.1 0  -5 2 0  -5 1.9 0  -5 1.8 0  -5 1.7 0  -5 1.6 0  -5 1.5 0  -5 1.4 0  -5 1.3 0  -5 1.2 0  -5 1.1 0  -5 1 0  -5 0.9000000000000004 0  -5 0.7999999999999998 0  -5 0.7000000000000002 0  -5 0.5999999999999996 0  -5 0.5 0  -5 0.4000000000000004 0  -5 0.2999999999999998 0  -5 0.2000000000000002 0  -5 0.09999999999999964 0  -5 0 0  -5 -0.09999999999999964 0  -5 -0.2000000000000002 0  -5 -0.2999999999999998 0  -5 -0.4000000000000004 0  -5 -0.5 0  -5 -0.5999999999999996 0  -5 -0.7000000000000002 0  -5 -0.7999999999999998 0  -5 -0.9000000000000004 0  -5 -1 0  -5 -1.1 0  -5 -1.2 0  -5 -1.3 0  -5 -1.4 0  -5 -1.5 0  -5 -1.6 0  -5 -1.7 0  -5 -1.8 0  -5 -1.9 0  -5 -2 0  -5 -2.1 0  -5 -2.2 0  -5 -2.3 0  -5 -2.4 0  -5 -2.5 0  -5 -2.6 0  -5 -2.7 0  -5 -2.8 0  -5 -2.9 0  -5 -3 0  -5 -3.1 0  -5 -3.199999999999999 0  -5 -3.300000000000001 0  -5 -3.4 0  -5 -3.5 0  -5 -3.6 0  -5 -3.699999999999999 0  -5 -3.800000000000001 0  -5 -3.9 0  -5 -4 0  -5 -4.1 0  -5 -4.199999999999999 0  -5 -4.300000000000001 0  -5 -4.4 0  -5 -4.5 0  -5 -4.6 0  -5 -4.699999999999999 0  -5 -4.800000000000001 0  -5 -4.9 0  1.087825380478154 0.1004054576330428 0  1.071395921688348 0.1997185089304074 0  1.04372823240302 0.2973755956781742 0  1.006811768074259 0.3910308782714407 0  0.9596084240780914 0.4819115002273163 0  0.9032617682908164 0.5676347392152337 0  0.8374222444923616 0.6474586883091599 0  0.7627119168656573 0.720656068006661 0  0.6811250677067404 0.7870200341918261 0  0.5927661937644312 0.8458353166575264 0  0.4981168243826912 0.8958441706701716 0  0.398456101175176 0.9370967877919419 0  0.2958463479751686 0.9694191043437371 0  0.1895603312058452 0.9914892167947708 0  0.08211729368714531 1.004205726130147 0  -0.0264911245528154 1.006769369993089 0  -0.1348451150883061 0.9989067662229241 0  -0.2420025257695959 0.9818354940781251 0  -0.3467389186965996 0.9548933363558167 0  -0.4478702444211176 0.9181422534146422 0  -0.544387031118887 0.872696626297792 0  -0.6357152983747613 0.8181999178289167 0  -0.72073791483031 0.7557696320647047 0  -0.7986934678523684 0.6859674142895442 0  -0.8689231431297313 0.6085857554777704 0  -0.9301640776029922 0.5254480812977292 0  -0.9827244469727419 0.4375076206375165 0  -1.02503324014342 0.3447602297019443 0  -1.056962132105163 0.2489829662669817 0  -1.078651670945945 0.1507688967124281 0  -1.089663544907923 0.05070039733927922 0  -1.089686729223368 -0.04993001617948445 0  -1.078699039944221 -0.1498754851012139 0  -1.05800295106463 -0.2480584485301261 0  -1.025003148581732 -0.3443006157804884 0  -0.9829226460012634 -0.4365984095294241 0  -0.9305649071922252 -0.5247072680704844 0  -0.8694120883018654 -0.6076118587320706 0  -0.7991482820056087 -0.684474113438998 0  -0.7208241462799295 -0.7540967564917183 0  -0.6353725827762869 -0.8160472825987061 0  -0.5446705345464891 -0.8708484458651525 0  -0.4469660351677713 -0.9163628509615738 0  -0.3457578077147648 -0.9534832857735926 0  -0.2408379038845438 -0.9806977700799941 0  -0.1339501938705887 -0.9981054327946937 0  -0.02588657609538202 -1.006415797040616 0  0.08238755921802522 -1.003495767909337 0  0.1904476918574938 -0.9905288274709073 0  0.2962372012000162 -0.9683974372142146 0  0.3998810829032501 -0.9361552733058964 0  0.4986354493487011 -0.8950210992457867 0  0.5931167225837121 -0.8451128767934584 0  0.6813446519983998 -0.7872933493863031 0  0.7628902215730244 -0.7209097371196398 0  0.8371538366460227 -0.6470849081520403 0  0.9027156066216933 -0.5670085376657087 0  0.9597919122717373 -0.4815181238075942 0  1.007694210880388 -0.3910896347116525 0  1.044504817087972 -0.2969610011540816 0  1.071458388609666 -0.1993256307826187 0  1.087861581660852 -0.1002123602468337 0  -2.449328982788058 4.919532194277457 0  -2.449271361341101 -4.912038765357376 0  4.911999378354126 2.449005494016249 0  4.919979807186253 -2.450366339028389 0  2.447137696358384 -4.897540311560692 0  2.44153963142524 4.901243930787001 0  -4.912013343231179 -2.449019683670985 0  -4.912014574243998 2.449023383345873 0  -1.749308402698477 4.913043362165798 0  -1.745060574069535 -4.916403036433798 0  4.922591274130871 1.745074460110162 0  4.911402319817143 -1.748982628679001 0  -4.911671362252306 -1.748699698404888 0  -4.912477883812763 1.748432556000781 0  1.746630271548798 4.907051412857314 0  1.74814446195333 -4.89546277102721 0  -1.149457185956107 4.911253958630755 0  -1.130251101308197 -4.918960282476124 0  -4.911947776289695 -1.148827086542223 0  -4.911775289406186 1.148626156343701 0  1.144411459562565 -4.915248544212383 0  1.149459560068788 4.91124789628354 0  4.912110980293352 1.147109557444842 0  4.922604848914275 -1.152786998116011 0  -0.5469895324435204 -4.912652880764383 0  -0.5467407409231094 4.921091326721537 0  -4.911129587421827 -0.5492083373309801 0  -4.911155365090043 0.5477604163076458 0  4.910502746106769 -0.5495362916951099 0  4.921753250631706 0.5462253062911631 0  0.5428021323046571 -4.899921087126121 0  0.5514747061610443 4.918009073624333 0  -4.912933023100716 -3.049187490793528 0  4.919434905754545 3.047146279095541 0  4.912452678309216 -3.049177807286568 0  -4.913775967015487 3.046271893092487 0  3.055972943674248 -4.918408789186176 0  -3.049353948325237 -4.91241499762455 0  3.052906063671225 4.914474443675614 0  -3.048795441250496 4.913296370352962 0  -4.91040584253167 -0.04995764963880823 0  0.04513958384688148 -4.914623006641466 0  0.04958955986605901 4.921446075922567 0  4.917235139617753 -0.05133658313651262 0  3.546151918666926 -4.919745277090408 0  -3.549479179
[...]
<PointData  Scalars="f_30"> 
<DataArray  type="Float64"  Name="f_30"  format="ascii">0.0000000000000000e+00  0.0000000000000000e+00  0.0000000000000000e+00  0.0000000000000000e+00  7.0234936822616922e-01  0.0000000000000000e+00  0.0000000000000000e+00  0.0000000000000000e+00  0.0000000000000000e+00  0.0000000000000000e+00  0.0000000000000000e+00  0.0000000000000000e+00  0.0000000000000000e+00  0.0000000000000000e+00  0.0000000000000000e+00  0.0000000000000000e+00  0.0000000000000000e+00  0.0000000000000000e+00  0.0000000000000000e+00  0.0000000000000000e+00  0.0000000000000000e+00  0.0000000000000000e+00  0.0000000000000000e+00  0.0000000000000000e+00  0.0000000000000000e+00  0.0000000000000000e+00  0.0000000000000000e+00  0.0000000000000000e+00  0.0000000000000000e+00  0.0000000000000000e+00  0.0000000000000000e+00  0.0000000000000000e+00  0.0000000000000000e+00  0.0000000000000000e+00  0.0000000000000000e+00  0.0000000000000000e+00  0.0000000000000000e+00  0.0000000000000000e+00  0.0000000000000000e+00  0.0000000000000000e+00  0.0000000000000000e+00  0.0000000000000000e+00  0.0000000000000000e+00  0.0000000000000000e+00  0.0000000000000000e+00  0.0000000000000000e+00  0.0000000000000000e+00  0.0000000000000000e+00  0.0000000000000000e+00  0.0000000000000000e+00  0.0000000000000000e+00  0.0000000000000000e+00  0.0000000000000000e+00  0.0000000000000000e+00  0.0000000000000000e+00  0.0000000000000000e+00  0.0000000000000000e+00  0.0000000000000000e+00  0.0000000000000000e+00  0.0000000000000000e+00  0.0000000000000000e+00  0.0000000000000000e+00  0.0000000000000000e+00  0.0000000000000000e+00  0.0000000000000000e+00  0.0000000000000000e+00  0.0000000000000000e+00  0.0000000000000000e+00  0.0000000000000000e+00  0.0000000000000000e+00  0.0000000000000000e+00  0.0000000000000000e+00  0.0000000000000000e+00  0.0000000000000000e+00  0.0000000000000000e+00  0.0000000000000000e+00  0.0000000000000000e+00  0.0000000000000000e+00  0.0000000000000000e+00  0.0000000000000000e+00  0.0000000000000000e+00  0.0000000000000000e+00  0.0000000000000000e+00  0.0000000000000000e+00  0.0000000000000000e+00  0.0000000000000000e+00  0.0000000000000000e+00  0.0000000000000000e+00  0.0000000000000000e+00  0.0000000000000000e+00  0.0000000000000000e+00  0.0000000000000000e+00  0.0000000000000000e+00  0.0000000000000000e+00  0.0000000000000000e+00  0.0000000000000000e+00  0.0000000000000000e+00  0.0000000000000000e+00  0.0000000000000000e+00  0.0000000000000000e+00  0.0000000000000000e+00  0.0000000000000000e+00  0.0000000000000000e+00  0.0000000000000000e+00  0.0000000000000000e+00  0.0000000000000000e+00  0.0000000000000000e+00  0.0000000000000000e+00  0.0000000000000000e+00  0.0000000000000000e+00  0.0000000000000000e+00  0.0000000000000000e+00  0.0000000000000000e+00  0.0000000000000000e+00  0.0000000000000000e+00  0.0000000000000000e+00  0.0000000000000000e+00  0.0000000000000000e+00  0.0000000000000000e+00  0.0000000000000000e+00  0.0000000000000000e+00  0.0000000000000000e+00  0.0000000000000000e+00  0.0000000000000000e+00  0.0000000000000000e+00  0.0000000000000000e+00  0.0000000000000000e+00  0.0000000000000000e+00  0.0000000000000000e+00  0.0000000000000000e+00  0.0000000000000000e+00  0.0000000000000000e+00  0.0000000000000000e+00  0.0000000000000000e+00  0.0000000000000000e+00  0.0000000000000000e+00  0.0000000000000000e+00  0.0000000000000000e+00  0.0000000000000000e+00  0.0000000000000000e+00  0.0000000000000000e+00  0.0000000000000000e+00  0.0000000000000000e+00  0.0000000000000000e+00  0.0000000000000000e+00  0.0000000000000000e+00  0.0000000000000000e+00  0.0000000000000000e+00  0.0000000000000000e+00  0.0000000000000000e+00  0.0000000000000000e+00  0.0000000000000000e+00  0.0000000000000000e+00  0.0000000000000000e+00  0.0000000000000000e+00  0.0000000000000000e+00  0.0000000000000000e+00  0.0000000000000000e+00  0.0000000000000000e+00  0.0000000000000000e+00  0.0000000000000000e+00  0.0000000000000000e+00  0.0000000000000000e+00  0.0000000000000000e+00  0.0000000000000000e+00  0.0000000000000000e+00  0.0000000000000000e+00  0.0000000000000000e+00  0.0000000000000000e+00  0.0000000000000000e+00  0.0000000000000000e+00  0.0000000000000000e+00  0.0000000000000000e+00  0.0000000000000000e+00  0.0000000000000000e+00  0.0000000000000000e+00  0.0000000000000000e+00  0.0000000000000000e+00  0.0000000000000000e+00  0.0000000000000000e+00  0.0000000000000000e+00  0.0000000000000000e+00  0.0000000000000000e+00  0.0000000000000000e+00  0.0000000000000000e+00  0.0000000000000000e+00  0.0000000000000000e+00  0.0000000000000000e+00  0.0000000000000000e+00  0.0000000000000000e+00  0.0000000000000000e+00  0.0000000000000000e+00  0.0000000000000000e+00  0.0000000000000000e+00  0.0000000000000000e+00  0.0000000000000000e+00  0.0000000000000000e+00  0.0000000000000000e+00  0.0000000000000000e+00  0.0000000000000000e+00  0.0000000000000000e+00  0.0000000000000000e+00  0.0000000000000000e+00  0.0000000000000000e+00  0.0000000000000000e+00  0.0000000000000000e+00  0.0000000000000000e+00  0.0000000000000000e+00  0.0000000000000000e+00  0.0000000000000000e+00  0.0000000000000000e+00  0.0000000000000000e+00  0.0000000000000000e+00  0.0000000000000000e+00  0.0000000000000000e+00  0.0000000000000000e+00  0.0000000000000000e+00  0.0000000000000000e+00  0.0000000000000000e+00  0.0000000000000000e+00  0.0000000000000000e+00  0.0000000000000000e+00  0.0000000000000000e+00  0.0000000000000000e+00  0.0000000000000000e+00  0.0000000000000000e+00  0.0000000000000000e+00  0.0000000000000000e+00  0.0000000000000000e+00  0.0000000000000000e+00  0.0000000000000000e+00  0.0000000000000000e+00  0.0000000000000000e+00  0.0000000000000000e+00  0.0000000000000000e+00  0.0000000000000000e+00  0.0000000000000000e+00  0.0000000000000000e+00  0.0000000000000000e+00  0.0000000000000000e+00  0.0000000000000000e+00  0.0000000000000000e+00  0.0000000000000000e+00  0.0000000000000000e+00  0.0000000000000000e+00  0.0000000000000000e+00  0.0000000000000000e+00  0.0000000000000000e+00  0.0000000000000000e+00  0.0000000000000000e+00  0.0000000000000000e+00  0.0000000000000000e+00  0.0000000000000000e+00  0.0000000000000000e+00  0.0000000000000000e+00  0.0000000000000000e+00  0.0000000000000000e+00  0.0000000000000000e+00  0.0000000000000000e+00  0.0000000000000000e+00  0.0000000000000000e+00  0.0000000000000000e+00  0.0000000000000000e+00  0.0000000000000000e+00  0.0000000000000000e+00  0.0000000000000000e+00  0.0000000000000000e+00  0.0000000000000000e+00  0.0000000000000000e+00  0.0000000000000000e+00  0.0000000000000000e+00  0.0000000000000000e+00  0.0000000000000000e+00  0.0000000000000000e+00  0.0000000000000000e+00  0.0000000000000000e+00  0.0000000000000000e+00  0.0000000000000000e+00  0.0000000000000000e+00  0.0000000000000000e+00  0.0000000000000000e+00  0.0000000000000000e+00  0.0000000000000000e+00  0.0000000000000000e+00  0.0000000000000000e+00  0.0000000000000000e+00  0.0000000000000000e+00  0.0000000000000000e+00  0.0000000000000000e+00  0.0000000000000000e+00  0.0000000000000000e+00  0.0000000000000000e+00  0.0000000000000000e+00  0.0000000000000000e+00  0.0000000000000000e+00  0.0000000000000000e+00  0.0000000000000000e+00  0.0000000000000000e+00  0.0000000000000000e+00  0.0000000000000000e+00  0.0000000000000000e+00  0.0000000000000000e+00  0.0000000000000000e+00  0.0000000000000000e+00  0.0000000000000000e+00  0.0000000000000000e+00  0.0000000000000000e+00  0.0000000000000000e+00  0.0000000000000000e+00  0.0000000000000000e+00  0.0000000000000000e+00  0.0000000000000000e+00  0.0000000000000000e+00  0.0000000000000000e+00  0.0000000000000000e+00  0.0000000000000000e+00  0.0000000000000000e+00  0.0000000000000000e+00  0.0000000000000000e+00  0.0000000000000000e+00  0.0000000000000000e+00  0.0000000000000000e+00  0.0000000000000000e+00  0.0000000000000000e+00  0.0000000000000000e+00  0.0000000000000000e+00  0.0000000000000000e+00  0.0000000000000000e+00  0.0000000000000000e+00  0.0000000000000000e+00  0.0000000000000000e+00  0.0000000000000000e+00  0.0000000000000000e+00  0.0000000000000000e+00  0.0000000000000000e+00  0.0000000000000000e+00  0.0000000000000000e+00  0.0000000000000000e+00  0.0000000000000000e+00  0.0000000000000000e+00  0.0000000000000000e+00  0.0000000000000000e+00  0.0000000000000000e+00  0.0000000000000000e+00  0.0000000000000000e+00  0.0000000000000000e+00  0.0000000000000000e+00  0.0000000000000000e+00  0.0000000000000000e+00  0.0000000000000000e+00  0.0000000000000000e+00  0.0000000000000000e+00  0.0000000000000000e+00  0.0000000000000000e+00  0.0000000000000000e+00  0.0000000000000000e+00  0.0000000000000000e+00  0.0000000000000000e+00  0.0000000000000000e+00  0.0000000000000000e+00  0.0000000000000000e+00  0.0000000000000000e+00  0.0000000000000000e+00  0.0000000000000000e+00  0.0000000000000000e+00  0.0000000000000000e+00  0.0000000000000000e+00  0.0000000000000000e+00  0.0000000000000000e+00  0.0000000000000000e+00  0.0000000000000000e+00  0.0000000000000000e+00  0.0000000000000000e+00  0.0000000000000000e+00  0.0000000000000000e+00  0.0000000000000000e+00  0.0000000000000000e+00  0.0000000000000000e+00  0.0000000000000000e+00  0.0000000000000000e+00  0.0000000000000000e+00  0.0000000000000000e+00  0.0000000000000000e+00  0.0000000000000000e+00  0.0000000000000000e+00  0.0000000000000000e+00  0.0000000000000000e+00  0.0000000000000000e+00  0.0000000000000000e+00  0.0000000000000000e+00  0.0000000000000000e+00  0.0000000000000000e+00  0.0000000000000000e+00  0.0000000000000000e+00  0.0000000000000000e+00  0.0000000000000000e+00  0.0000000000000000e+00  0.0000000000000000e+00  0.0000000000000000e+00  0.0000000000000000e+00  0.0000000000000000e+00  7.2213938348515716e-01  6.9642030421525236e-01  5.5611004476108861e-01  5.6443744544682373e-01  6.5161250149620931e-01  7.9296002231679075e-01  7.6850150149874363e-01  6.1596648238627583e-01  6.7538379609667021e-01  8.0814811292928634e-01  7.5639700989814984e-01  7.1914206221861665e-01  8.4552429123656636e-01  6.7402047454163694e-01  6.8926874037414421e-01  6.7286915709206019e-01  5.9228340877022045e-01  7.0842428322257101e-01  7.4001293234419385e-01  6.6484085476019628e-01  7.0407445276390923e-01  6.8163486079757174e-01  7.0430821555783418e-01  7.6517157121258805e-01  7.0097014445815775e-01  6.2760569852282033e-01  7.1894721553817731e-01  6.7383004763106569e-01  5.9236500151216032e-01  6.3437438634041476e-01  6.7967240578746346e-01  6.8917134392937396e-01  6.5094128203158719e-01  8.5368323442235905e-01  6.6623896700863117e-01  7.2818126553122475e-01  6.7511530404132070e-01  7.6227770195257682e-01  7.5988569941460682e-01  6.7000012166143663e-01  5.3994365299339941e-01  7.9871139631497801e-01  6.5643088881560063e-01  7.5689127817425839e-01  7.3188597038155701e-01  6.8258281984705704e-01  9.1432074283238951e-01  8.1240051018088411e-01  7.0573533516638398e-01  7.4356539507818942e-01  6.8043524583179749e-01  6.2760024512435575e-01  6.8258444218986214e-01  7.7750892869124111e-01  7.1797088186860880e-01  6.9268178717069295e-01  6.2690131490534828e-01  6.9671772843177626e-01  8.4962832729629756e-01  7.3056816261761748e-01  7.1125700555227056e-01  7.4897653009713550e-01  3.6124630921892360e-27  -1.3179246125656031e-27  -2.6372992239479751e-27  -2.9362117364956598e-27  -1.2758449909439811e-27  -5.3231503578122167e-28  -2.0321711991151356e-28  1.8085997595504844e-27  7.1911427146052272e-27  4.1262772992292638e-27  -7.0167498533322512e-25  -6.6245832750773833e-25  5.4015512726180733e-25  1.1894522782797745e-24  3.7087407484133817e-26  3.0575092267891257e-26  -4.7807201123626673e-26  -3.0033017679795508e-26  -1.1242593050127934e-22  -1.6505399203514812e-22  -4.3272541691166118e-26  -4.9231892881559436e-26  4.7612445036183562e-23  4.7758648957821303e-23  -4.7320451563092651e-27  -3.9746415593433641e-26  -7.5369921068134058e-21  -7.1236227282869885e-21  -4.5758827229964420e-21  -4.8274270651652562e-21  8.3190916308384510e-26  -2.6521790990565751e-26  7.1703458436067644e-30  -8.8439319988014434e-30  -9.0742349622238241e-30  1.6282542457100924e-29  1.9759241626240318e-28  3.9844089582113596e-28  2.8927378550874296e-28  3.1817852986527312e-28  3.5536297177821305e-20  6.3534702412523067e-26  1.2229846722344726e-26  3.8447618365994964e-20  -9.0965325693104074e-30  -9.9263827927552494e-30  -6.2620631472859293e-30  2.3186077592459217e-31  2.4329241506099735e-31  2.3940971125589971e-31  1.4562219289329416e-31  -9.9633712445078577e-30  -6.1356153682822491e-33  -2.3068716235346147e-32  1.1371226913183862e-31  -4.0599762758780468e-33  2.5155003044751359e-32  -6.0625834374551196e-33  1.3756212778601725e-31  -9.9017130910572334e-34  -1.2942969463268513e-33  -4.6819388389475537e-34  -1.9574335976116085e-34  1.4856515984791890e-34  1.3409178614015981e-34  7.7341049872584339e-35  7.3735242937894045e-36  -1.6096905802492332e-33  2.7758147750274571e-20  4.6287197939282319e-26  -1.3624899792518512e-26  1.3821895565776683e-20  1.1674894099232279e-25  -3.4725253062689807e-24  1.3394908108194267e-21  8.8430430214583693e-22  -3.2579713178660418e-24  2.7350442675777398e-26  7.8784894016394676e-26  -5.2858931639578939e-26  -3.8568453094947299e-26  -1.1547888073261467e-23  3.9597117026321753e-22  4.1482003388997704e-22  -1.1338401320352585e-23  -2.5535822286301661e-27  8.8216900244013657e-26  -4.0414424531143299e-27  5.5610237675855478e-27  -6.5531768889333911e-27  8.9115027843668430e-26  1.1270771740271524e-25  -4.0123327060273468e-27  -2.4118818883727234e-27  3.0464774393316623e-26  2.8830719844656920e-26  -1.5704731471972774e-28  -7.7607505851819744e-28  -1.2225138005872771e-27  2.0590627842532773e-28  6.3877756481634116e-28  6.7275964507649906e-29  -1.5133892255972246e-28  -9.2259716442663983e-28  1.2567461954747457e-35  1.8952163789675996e-35  7.5316889236028893e-36  -1.6945966812756776e-36  6.4699475440912139e-36  1.5368915137276192e-36  1.0557451348957396e-35  5.2339703674044123e-37  2.7877468098785215e-20  1.2033569956458393e-25  1.1446024721425562e-25  1.3760365337601319e-20  -1.7864309974063373e-27  4.4955713341399526e-27  4.7957015857003977e-27  -7.1557470051901495e-27  -1.1865853808381560e-26  -7.0172037006861476e-29  -8.1948495591500278e-27  -2.0294426821630685e-26  3.5252795025769823e-30  -1.1191916252985799e-28  -7.3960336763681460e-29  2.8341012323374230e-30  3.4754385276179685e-30  -9.6395331564525098e-29  -1.2779598484379452e-28  1.1569373560231845e-30  -3.7500004211394078e-33  3.6441437640816082e-34  1.2053009781167121e-30  -1.2997725366168434e-32  2.7360794166727427e-31  -1.5412836557467300e-32  -3.6562416593336760e-32  1.2126589264035464e-33  8.1374562508982112e-31  -1.3325617061698368e-32  -1.3655507445293276e-33  2.9198332773962918e-34  -4.4317834366282522e-32  1.2637525123050184e-33  5.2319141097812884e-31  -1.7094960791625478e-32  -3.7014087748204644e-36  -1.7453806251461131e-36  -2.9595970463003249e-36  -3.4662494886566658e-36  3.4840953112193902e-20  -1.2995853857555662e-19  -8.5771481056074275e-20  4.2076949802445191e-19  2.0515161257395462e-19  -1.2097205634362370e-18  -3.1622072359726123e-19  2.8705392068484310e-18  -2.7975282140889058e-19  -4.3099798043044217e-18  4.7474874132543461e-18  -4.6496840604790421e-18  -2.3363935695188328e-17  6.8991207479960584e-17  8.0970993127119589e-17  -3.3342386836030784e-16  -2.1158945529512566e-16  1.1328875718621411e-15  3.8162533481976397e-16  -2.8846905683713476e-15  -2.0353336309802735e-16  -4.7525364822515608e-15  4.9165514003087053e-15  -1.6200972337340939e-15  -1.5863591587056188e-15  7.3808895843446940e-15  -2.5145868090569090e-14  -1.5924050393604083e-14  9.9126081234563746e-14  9.7169878575946682e-15  -1.8521728913795407e-13  5.6053611418432150e-14  -3.7650739688675450e-13  2.9176581870019507e-14  -1.9703581603226270e-13  8.8654771964250919e-13  1.5536372074853867e-13  -2.2293418039345529e-12  7.7802429530420957e-13  -1.2244369647113918e-13  -2.4767517583119160e-12  1.3240156797058729e-11  -1.0637218743146921e-13  -2.1326468463219287e-11  -2.3720653350121092e-11  1.5576248173337079e-11  -4.0435956311793282e-11  -2.6197014616565506e-11  -3.0475917701271737e-13  1.7310824316575042e-11  -4.9867794375395188e-11  -2.3475138215175689e-11  -1.2717074938407631e-12  1.8382150024052560e-11  -2.7278789307159175e-12  -3.2804593626903884e-12  -1.3737058400947502e-11  1.8262698518190032e-11  -1.8308176740316162e-12  -6.7099889385844620e-12  1.4874964946330164e-12  3.6898538315482154e-13  1.1085118271799011e-11  -8.5790478437744390e-12  9.5890431173989306e-13  3.5615955334521872e-12  -1.4405370078428281e-11  2.2790824176043920e-12  -9.7888600202004654e-13  2.8368191954820047e-13  -4.9727512188960793e-12  2.1933209197123662e-12  -8.9153963916888706e-12  1.4121255633347011e-13  1.4211349055533324e-12  2.1923137886249787e-12  -3.5655655038676069e-12  2.5691749462623258e-11  -9.9231840546794795e-12  4.6010894183990479e-11  -1.3699301152735610e-11  5.3263129658882596e-11  3.2758552962658969e-12  -1.4243385528472880e-11  5.2221954607387213e-11  -1.3903417158647303e-11  5.2098872835862430e-11  -1.4170351785960717e-11  5.2925115945905499e-11  -1.3636559071795225e-11  4.6052895542220112e-11  -1.0050684095538237e-11  2.6442993032489186e-11  -3.7218006115570485e-12  1.9330583135441112e-12  3.2815757731903496e-12  -1.3958261942457381e-10  2.3545427338730160e+00  1.9656888123792547e-12  -1.3155391564312319e-11  3.9195608941861381e-12  -1.2890813715234870e-11  2.3907294505154262e+00  2.4094234586907000e-12  -4.4109887405230544e-12  2.3546283824780447e+00  1.7736459251290642e-13  1.8650258224868700e-12  1.7163581787220055e-12  -1.0302423431651031e-11  2.3501464958277560e-12  -4.7670545534718525e-12  -1.9087493351294784e-10  -3.2986187007735997e-13  1.8434789334586493e-13  2.4645141633645955e-12  1.3491380780730377e-12  -1.3790155070560512e-11  3.1898462471315114e-12  -6.8563128910252369e-12  4.4371445151154007e-11  5.1244371378951196e-12  1.7258288798596153e-12  -1.0569852192837599e-11  2.9623517957925838e-11  2.7853152674976446e-11  -3.0702224526450865e-12  -2.6879247478190624e-12  -2.9987509182045632e-11  2.4130295832277012e-11  -4.4952319227612901e-12  2.5572489112202098e-12  -4.7095887810627696e-11  1.4853965597161020e-11  -3.5621541071910398e-12  2.0501934991901451e-12  -3.4323661192228998e-11  1.3008291389049738e-11  -1.6549047856745126e-11  -2.7050097073415443e-11  7.5664668666905206e-13  1.4716416597548125e-11  -2.5664808620989271e-11  -3.4304463120490564e-11  1.0575453292428234e-12  1.9252420050160732e-11  -3.8074033706868187e-11  -4.0373638515399242e-11  3.3818815490383731e-10  -1.0482727477232188e-10  3.4557370022380801e-11  2.7918120628281357e-10  -1.0166415531059578e-11  -1.5823755325030319e-10  7.0782134430703258e-10  -9.7359308744192440e-11  -3.1622272037354576e-10  3.3492503047699994e-10  -1.7627454234568992e-09  3.1751402095644593e-10  5.2667258474425317e-10  -9.3921215465114494e-10  5.5427976882533837e-11  4.6158230597413034e-10  -2.0802165277219112e-09  4.1334469789675199e-10  4.8905515251543483e-11  -7.7784440868971424e-10  6.2580066542246026e-09  -2.5231770575277103e-09  1.1102907551655043e-08  -2.6967703307446884e-09  6.0767952938816731e-09  3.0381327857908335e-10  -1.0068052531241146e-08  5.1677003260708882e-09  -2.7534075973236851e-08  8.9689155580608630e-09  -3.7317781524302591e-08  1.0594619357974807e-08  -4.0077924542671707e-08  1.0586088852553380e-08  -3.7174856975180391e-08  8.7248637459970273e-09  -2.6310964284219105e-08  5.0685755443699971e-09  -1.1416166849394623e-08  -1.8825378938942388e-09  -8.3021156562400191e-10  3.6490913553092046e-10  9.5298795717110705e-11  -6.0274829374446108e-11  2.9173287248987375e-12  6.9892832091146213e-12  -6.6547401617095636e-12  1.9365049028117228e-13  2.8335952870991931e-12  -1.2437670394562855e-11  -4.7751801720706091e-13  4.5648823011096681e-10  3.2651041949774315e-12  -1.0225748972164127e-11  1.8589515069407594e-12  -3.3190794633242739e-12  1.0211916194934879e-13  1.5019749636594630e-12  -5.0334252773241142e-13  1.3507412