<?xml version="1.0"?>
<VTKFile type="UnstructuredGrid"  version="0.1"  >
<UnstructuredGrid>
<Piece  NumberOfPoints="11902" NumberOfCells="23402">
<Points>
<DataArray  type="Float64"  NumberOfComponents="3"  format="ascii">-5 -5 0  5 -5 0  5 5 0  -5 5 0  1.142671555627608 0.00095760486832195 0  -4.9 -5 0  -4.8 -5 0  -4.7 -5 0  -4.6 -5 0  -4.5 -5 0  -4.4 -5 0  -4.3 -5 0  -4.2 -5 0  -4.1 -5 0  -4 -5 0  -3.9 -5 0  -3.8 -5 0  -3.7 -5 0  -3.6 -5 0  -3.5 -5 0  -3.4 -5 0  -3.3 -5 0  -3.2 -5 0  -3.1 -5 0  -3 -5 0  -2.9 -5 0  -2.8 -5 0  -2.7 -5 0  -2.6 -5 0  -2.5 -5 0  -2.4 -5 0  -2.3 -5 0  -2.2 -5 0  -2.1 -5 0  -2 -5 0  -1.9 -5 0  -1.8 -5 0  -1.7 -5 0  -1.6 -5 0  -1.5 -5 0  -1.4 -5 0  -1.3 -5 0  -1.2 -5 0  -1.1 -5 0  -1 -5 0  -0.9000000000000004 -5 0  -0.7999999999999998 -5 0  -0.7000000000000002 -5 0  -0.5999999999999996 -5 0  -0.5 -5 0  -0.4000000000000004 -5 0  -0.2999999999999998 -5 0  -0.2000000000000002 -5 0  -0.09999999999999964 -5 0  0 -5 0  0.09999999999999964 -5 0  0.2000000000000002 -5 0  0.2999999999999998 -5 0  0.4000000000000004 -5 0  0.5 -5 0  0.5999999999999996 -5 0  0.7000000000000002 -5 0  0.7999999999999998 -5 0  0.9000000000000004 -5 0  1 -5 0  1.1 -5 0  1.2 -5 0  1.3 -5 0  1.4 -5 0  1.5 -5 0  1.6 -5 0  1.7 -5 0  1.8 -5 0  1.9 -5 0  2 -5 0  2.1 -5 0  2.2 -5 0  2.3 -5 0  2.4 -5 0  2.5 -5 0  2.6 -5 0  2.7 -5 0  2.8 -5 0  2.9 -5 0  3 -5 0  3.1 -5 0  3.199999999999999 -5 0  3.300000000000001 -5 0  3.4 -5 0  3.5 -5 0  3.6 -5 0  3.699999999999999 -5 0  3.800000000000001 -5 0  3.9 -5 0  4 -5 0  4.1 -5 0  4.199999999999999 -5 0  4.300000000000001 -5 0  4.4 -5 0  4.5 -5 0  4.6 -5 0  4.699999999999999 -5 0  4.800000000000001 -5 0  4.9 -5 0  5 -4.9 0  5 -4.8 0  5 -4.7 0  5 -4.6 0  5 -4.5 0  5 -4.4 0  5 -4.3 0  5 -4.2 0  5 -4.1 0  5 -4 0  5 -3.9 0  5 -3.8 0  5 -3.7 0  5 -3.6 0  5 -3.5 0  5 -3.4 0  5 -3.3 0  5 -3.2 0  5 -3.1 0  5 -3 0  5 -2.9 0  5 -2.8 0  5 -2.7 0  5 -2.6 0  5 -2.5 0  5 -2.4 0  5 -2.3 0  5 -2.2 0  5 -2.1 0  5 -2 0  5 -1.9 0  5 -1.8 0  5 -1.7 0  5 -1.6 0  5 -1.5 0  5 -1.4 0  5 -1.3 0  5 -1.2 0  5 -1.1 0  5 -1 0  5 -0.9000000000000004 0  5 -0.7999999999999998 0  5 -0.7000000000000002 0  5 -0.5999999999999996 0  5 -0.5 0  5 -0.4000000000000004 0  5 -0.2999999999999998 0  5 -0.2000000000000002 0  5 -0.09999999999999964 0  5 0 0  5 0.09999999999999964 0  5 0.2000000000000002 0  5 0.2999999999999998 0  5 0.4000000000000004 0  5 0.5 0  5 0.5999999999999996 0  5 0.7000000000000002 0  5 0.7999999999999998 0  5 0.9000000000000004 0  5 1 0  5 1.1 0  5 1.2 0  5 1.3 0  5 1.4 0  5 1.5 0  5 1.6 0  5 1.7 0  5 1.8 0  5 1.9 0  5 2 0  5 2.1 0  5 2.2 0  5 2.3 0  5 2.4 0  5 2.5 0  5 2.6 0  5 2.7 0  5 2.8 0  5 2.9 0  5 3 0  5 3.1 0  5 3.199999999999999 0  5 3.300000000000001 0  5 3.4 0  5 3.5 0  5 3.6 0  5 3.699999999999999 0  5 3.800000000000001 0  5 3.9 0  5 4 0  5 4.1 0  5 4.199999999999999 0  5 4.300000000000001 0  5 4.4 0  5 4.5 0  5 4.6 0  5 4.699999999999999 0  5 4.800000000000001 0  5 4.9 0  4.9 5 0  4.8 5 0  4.7 5 0  4.6 5 0  4.5 5 0  4.4 5 0  4.3 5 0  4.2 5 0  4.1 5 0  4 5 0  3.9 5 0  3.8 5 0  3.7 5 0  3.6 5 0  3.5 5 0  3.4 5 0  3.3 5 0  3.2 5 0  3.1 5 0  3 5 0  2.9 5 0  2.8 5 0  2.7 5 0  2.6 5 0  2.5 5 0  2.4 5 0  2.3 5 0  2.2 5 0  2.1 5 0  2 5 0  1.9 5 0  1.8 5 0  1.7 5 0  1.6 5 0  1.5 5 0  1.4 5 0  1.3 5 0  1.2 5 0  1.1 5 0  1 5 0  0.9000000000000004 5 0  0.7999999999999998 5 0  0.7000000000000002 5 0  0.5999999999999996 5 0  0.5 5 0  0.4000000000000004 5 0  0.2999999999999998 5 0  0.2000000000000002 5 0  0.09999999999999964 5 0  0 5 0  -0.09999999999999964 5 0  -0.2000000000000002 5 0  -0.2999999999999998 5 0  -0.4000000000000004 5 0  -0.5 5 0  -0.5999999999999996 5 0  -0.7000000000000002 5 0  -0.7999999999999998 5 0  -0.9000000000000004 5 0  -1 5 0  -1.1 5 0  -1.2 5 0  -1.3 5 0  -1.4 5 0  -1.5 5 0  -1.6 5 0  -1.7 5 0  -1.8 5 0  -1.9 5 0  -2 5 0  -2.1 5 0  -2.2 5 0  -2.3 5 0  -2.4 5 0  -2.5 5 0  -2.6 5 0  -2.7 5 0  -2.8 5 0  -2.9 5 0  -3 5 0  -3.1 5 0  -3.199999999999999 5 0  -3.300000000000001 5 0  -3.4 5 0  -3.5 5 0  -3.6 5 0  -3.699999999999999 5 0  -3.800000000000001 5 0  -3.9 5 0  -4 5 0  -4.1 5 0  -4.199999999999999 5 0  -4.300000000000001 5 0  -4.4 5 0  -4.5 5 0  -4.6 5 0  -4.699999999999999 5 0  -4.800000000000001 5 0  -4.9 5 0  -5 4.9 0  -5 4.8 0  -5 4.7 0  -5 4.6 0  -5 4.5 0  -5 4.4 0  -5 4.3 0  -5 4.2 0  -5 4.1 0  -5 4 0  -5 3.9 0  -5 3.8 0  -5 3.7 0  -5 3.6 0  -5 3.5 0  -5 3.4 0  -5 3.3 0  -5 3.2 0  -5 3.1 0  -5 3 0  -5 2.9 0  -5 2.8 0  -5 2.7 0  -5 2.6 0  -5 2.5 0  -5 2.4 0  -5 2.3 0  -5 2.2 0  -5 2.1 0  -5 2 0  -5 1.9 0  -5 1.8 0  -5 1.7 0  -5 1.6 0  -5 1.5 0  -5 1.4 0  -5 1.3 0  -5 1.2 0  -5 1.1 0  -5 1 0  -5 0.9000000000000004 0  -5 0.7999999999999998 0  -5 0.7000000000000002 0  -5 0.5999999999999996 0  -5 0.5 0  -5 0.4000000000000004 0  -5 0.2999999999999998 0  -5 0.2000000000000002 0  -5 0.09999999999999964 0  -5 0 0  -5 -0.09999999999999964 0  -5 -0.2000000000000002 0  -5 -0.2999999999999998 0  -5 -0.4000000000000004 0  -5 -0.5 0  -5 -0.5999999999999996 0  -5 -0.7000000000000002 0  -5 -0.7999999999999998 0  -5 -0.9000000000000004 0  -5 -1 0  -5 -1.1 0  -5 -1.2 0  -5 -1.3 0  -5 -1.4 0  -5 -1.5 0  -5 -1.6 0  -5 -1.7 0  -5 -1.8 0  -5 -1.9 0  -5 -2 0  -5 -2.1 0  -5 -2.2 0  -5 -2.3 0  -5 -2.4 0  -5 -2.5 0  -5 -2.6 0  -5 -2.7 0  -5 -2.8 0  -5 -2.9 0  -5 -3 0  -5 -3.1 0  -5 -3.199999999999999 0  -5 -3.300000000000001 0  -5 -3.4 0  -5 -3.5 0  -5 -3.6 0  -5 -3.699999999999999 0  -5 -3.800000000000001 0  -5 -3.9 0  -5 -4 0  -5 -4.1 0  -5 -4.199999999999999 0  -5 -4.300000000000001 0  -5 -4.4 0  -5 -4.5 0  -5 -4.6 0  -5 -4.699999999999999 0  -5 -4.800000000000001 0  -5 -4.9 0  1.13713756376774 0.1002067913594512 0  1.119752413180268 0.1992933478073259 0  1.090428907656609 0.2970026396824118 0  1.051940949853455 0.3899420490959815 0  1.002375781040418 0.480895024768821 0  0.9435064393519506 0.5664712532552617 0  0.8744513836904296 0.6462695316192014 0  0.7961345761848234 0.7192319467265996 0  0.7108594807801737 0.7854051924251404 0  0.6183797361188924 0.844219831334003 0  0.5191463352889912 0.8943681855796324 0  0.4149905342565463 0.9357810726898868 0  0.3081431052286154 0.9683593850530381 0  0.1970835726198026 0.9905753754218311 0  0.08555980450847749 1.003722017781519 0  -0.02723497601549426 1.006341555093289 0  -0.1398431446260121 0.9980184433120428 0  -0.2517181393255984 0.9808520119403873 0  -0.3610992055124623 0.9540821707680069 0  -0.4664315507527779 0.9173705955594488 0  -0.5668697412922802 0.8720113534956205 0  -0.6621598086441345 0.8173836572029122 0  -0.7508368587115714 0.754904999596032 0  -0.8324015119095406 0.6850224189909038 0  -0.9062035180365264 0.6073268757261109 0  -0.9704322491421731 0.5242996990502788 0  -1.025738797969527 0.4366438540095611 0  -1.070202186275947 0.343944535407558 0  -1.103670973101692 0.2485957827760757 0  -1.126389228933804 0.1507978513523527 0  -1.137950478222229 0.05086987378487464 0  -1.137976188117482 -0.04964910785964444 0  -1.126428275457628 -0.1493714292701678 0  -1.104901500108395 -0.2471654566060083 0  -1.070063429571611 -0.3434271639640138 0  -1.026063129404154 -0.4354322154645965 0  -0.9711030203579388 -0.5233288882278576 0  -0.9071041038145883 -0.6060201214793771 0  -0.8333354667123389 -0.6828841593033426 0  -0.7512697976150643 -0.7523250662402026 0  -0.661848382572768 -0.8139890938561291 0  -0.5672353411837615 -0.8687140435851373 0  -0.4647994392182535 -0.9144814491975196 0  -0.3593088659652919 -0.9519571841502256 0  -0.2498048692825285 -0.9793695876792273 0  -0.1385945829564909 -0.9969924466036818 0  -0.02649355926309062 -1.005761815868214 0  0.08604418066217284 -1.002424463147445 0  0.1987221658412258 -0.9890285154122982 0  0.3090011504696419 -0.9669188062014979 0  0.417327003640085 -0.9345129199637076 0  0.5201479033201928 -0.8933832202384435 0  0.6189064033933158 -0.8434955469672323 0  0.7111028969208102 -0.7859845590576479 0  0.7962991843693283 -0.7196793140473848 0  0.8740713125919819 -0.6457416078536191 0  0.9425993802014099 -0.565743916868884 0  1.002468062885783 -0.4804261404756301 0  1.053019034170011 -0.3900471280945329 0  1.091534106777828 -0.2961755862668106 0  1.11986866157428 -0.1986785583172342 0  1.137157064929552 -0.0998666872397289 0  -2.449046915039804 4.919009369964449 0  -2.448964442662372 -4.911468758002903 0  4.911415774769231 2.448593613486995 0  4.919450301367619 -2.449991794877736 0  2.446780524166575 -4.896870479240699 0  2.441194066569012 4.900596002215355 0  -4.911434681588553 -2.448612382995541 0  -4.91143436902711 2.448616177728505 0  -1.749018045358659 4.912292886779573 0  -1.744782988883006 -4.915682901844459 0  4.921855326058095 1.744702387600398 0  4.910562011319776 -1.748556055207807 0  -4.910840462948318 -1.74827955936467 0  -4.911652826657996 1.748016903337709 0  1.746322056173384 4.906245043680747 0  1.747799202244202 -4.894557484877347 0  -1.149226731043753 4.910347392516777 0  -1.130043932963544 -4.918131865107134 0  -4.910909093850149 -1.148481900968462 0  -4.910733092350912 1.148281534907054 0  1.144196181414638 -4.914381100616889 0  1.149231867539467 4.910338564472805 0  4.911063519616154 1.146761680074427 0  4.921684760552965 -1.152479208300767 0  -0.5468698363246223 -4.911670245618668 0  -0.5466323580800804 4.920200668721783 0  -4.909924141085519 -0.5490166372328023 0  -4.909949215958171 0.5475709000983982 0  4.909277008648764 -0.5493408598463462 0  4.92068101615703 0.546056157311671 0  0.5426710809060254 -4.898792174761276 0  0.5513644988468402 4.917082691793612 0  -4.912542202500218 -3.048850459889592 0  4.919070068044673 3.046830785456048 0  4.912057356220409 -3.048835205910889 0  -4.913386930429692 3.045937536810556 0  3.055720836020088 -4.918024583966973 0  -3.049082904055125 -4.912004455573078 0  3.052640686794895 4.914070585993824 0  -3.048526014499689 4.912888816248167 0  -4.909137989314844 -0.04993847704535533 0  0.04513234510967346 -4.913633412733586 0  0.04958126946655783 4.920532808689079 0  4.916052639374131 -0.05131862712378303 0  3.545951522246513 -4.919475776289449 0  -3.5492613341
[...]
<PointData  Scalars="f_30"> 
<DataArray  type="Float64"  Name="f_30"  format="ascii">0.0000000000000000e+00  0.0000000000000000e+00  0.0000000000000000e+00  0.0000000000000000e+00  5.0663945700437241e-01  0.0000000000000000e+00  0.0000000000000000e+00  0.0000000000000000e+00  0.0000000000000000e+00  0.0000000000000000e+00  0.0000000000000000e+00  0.0000000000000000e+00  0.0000000000000000e+00  0.0000000000000000e+00  0.0000000000000000e+00  0.0000000000000000e+00  0.0000000000000000e+00  0.0000000000000000e+00  0.0000000000000000e+00  0.0000000000000000e+00  0.0000000000000000e+00  0.0000000000000000e+00  0.0000000000000000e+00  0.0000000000000000e+00  0.0000000000000000e+00  0.0000000000000000e+00  0.0000000000000000e+00  0.0000000000000000e+00  0.0000000000000000e+00  0.0000000000000000e+00  0.0000000000000000e+00  0.0000000000000000e+00  0.0000000000000000e+00  0.0000000000000000e+00  0.0000000000000000e+00  0.0000000000000000e+00  0.0000000000000000e+00  0.0000000000000000e+00  0.0000000000000000e+00  0.0000000000000000e+00  0.0000000000000000e+00  0.0000000000000000e+00  0.0000000000000000e+00  0.0000000000000000e+00  0.0000000000000000e+00  0.0000000000000000e+00  0.0000000000000000e+00  0.0000000000000000e+00  0.0000000000000000e+00  0.0000000000000000e+00  0.0000000000000000e+00  0.0000000000000000e+00  0.0000000000000000e+00  0.0000000000000000e+00  0.0000000000000000e+00  0.0000000000000000e+00  0.0000000000000000e+00  0.0000000000000000e+00  0.0000000000000000e+00  0.0000000000000000e+00  0.0000000000000000e+00  0.0000000000000000e+00  0.0000000000000000e+00  0.0000000000000000e+00  0.0000000000000000e+00  0.0000000000000000e+00  0.0000000000000000e+00  0.0000000000000000e+00  0.0000000000000000e+00  0.0000000000000000e+00  0.0000000000000000e+00  0.0000000000000000e+00  0.0000000000000000e+00  0.0000000000000000e+00  0.0000000000000000e+00  0.0000000000000000e+00  0.0000000000000000e+00  0.0000000000000000e+00  0.0000000000000000e+00  0.0000000000000000e+00  0.0000000000000000e+00  0.0000000000000000e+00  0.0000000000000000e+00  0.0000000000000000e+00  0.0000000000000000e+00  0.0000000000000000e+00  0.0000000000000000e+00  0.0000000000000000e+00  0.0000000000000000e+00  0.0000000000000000e+00  0.0000000000000000e+00  0.0000000000000000e+00  0.0000000000000000e+00  0.0000000000000000e+00  0.0000000000000000e+00  0.0000000000000000e+00  0.0000000000000000e+00  0.0000000000000000e+00  0.0000000000000000e+00  0.0000000000000000e+00  0.0000000000000000e+00  0.0000000000000000e+00  0.0000000000000000e+00  0.0000000000000000e+00  0.0000000000000000e+00  0.0000000000000000e+00  0.0000000000000000e+00  0.0000000000000000e+00  0.0000000000000000e+00  0.0000000000000000e+00  0.0000000000000000e+00  0.0000000000000000e+00  0.0000000000000000e+00  0.0000000000000000e+00  0.0000000000000000e+00  0.0000000000000000e+00  0.0000000000000000e+00  0.0000000000000000e+00  0.0000000000000000e+00  0.0000000000000000e+00  0.0000000000000000e+00  0.0000000000000000e+00  0.0000000000000000e+00  0.0000000000000000e+00  0.0000000000000000e+00  0.0000000000000000e+00  0.0000000000000000e+00  0.0000000000000000e+00  0.0000000000000000e+00  0.0000000000000000e+00  0.0000000000000000e+00  0.0000000000000000e+00  0.0000000000000000e+00  0.0000000000000000e+00  0.0000000000000000e+00  0.0000000000000000e+00  0.0000000000000000e+00  0.0000000000000000e+00  0.0000000000000000e+00  0.0000000000000000e+00  0.0000000000000000e+00  0.0000000000000000e+00  0.0000000000000000e+00  0.0000000000000000e+00  0.0000000000000000e+00  0.0000000000000000e+00  0.0000000000000000e+00  0.0000000000000000e+00  0.0000000000000000e+00  0.0000000000000000e+00  0.0000000000000000e+00  0.0000000000000000e+00  0.0000000000000000e+00  0.0000000000000000e+00  0.0000000000000000e+00  0.0000000000000000e+00  0.0000000000000000e+00  0.0000000000000000e+00  0.0000000000000000e+00  0.0000000000000000e+00  0.0000000000000000e+00  0.0000000000000000e+00  0.0000000000000000e+00  0.0000000000000000e+00  0.0000000000000000e+00  0.0000000000000000e+00  0.0000000000000000e+00  0.0000000000000000e+00  0.0000000000000000e+00  0.0000000000000000e+00  0.0000000000000000e+00  0.0000000000000000e+00  0.0000000000000000e+00  0.0000000000000000e+00  0.0000000000000000e+00  0.0000000000000000e+00  0.0000000000000000e+00  0.0000000000000000e+00  0.0000000000000000e+00  0.0000000000000000e+00  0.0000000000000000e+00  0.0000000000000000e+00  0.0000000000000000e+00  0.0000000000000000e+00  0.0000000000000000e+00  0.0000000000000000e+00  0.0000000000000000e+00  0.0000000000000000e+00  0.0000000000000000e+00  0.0000000000000000e+00  0.0000000000000000e+00  0.0000000000000000e+00  0.0000000000000000e+00  0.0000000000000000e+00  0.0000000000000000e+00  0.0000000000000000e+00  0.0000000000000000e+00  0.0000000000000000e+00  0.0000000000000000e+00  0.0000000000000000e+00  0.0000000000000000e+00  0.0000000000000000e+00  0.0000000000000000e+00  0.0000000000000000e+00  0.0000000000000000e+00  0.0000000000000000e+00  0.0000000000000000e+00  0.0000000000000000e+00  0.0000000000000000e+00  0.0000000000000000e+00  0.0000000000000000e+00  0.0000000000000000e+00  0.0000000000000000e+00  0.0000000000000000e+00  0.0000000000000000e+00  0.0000000000000000e+00  0.0000000000000000e+00  0.0000000000000000e+00  0.0000000000000000e+00  0.0000000000000000e+00  0.0000000000000000e+00  0.0000000000000000e+00  0.0000000000000000e+00  0.0000000000000000e+00  0.0000000000000000e+00  0.0000000000000000e+00  0.0000000000000000e+00  0.0000000000000000e+00  0.0000000000000000e+00  0.0000000000000000e+00  0.0000000000000000e+00  0.0000000000000000e+00  0.0000000000000000e+00  0.0000000000000000e+00  0.0000000000000000e+00  0.0000000000000000e+00  0.0000000000000000e+00  0.0000000000000000e+00  0.0000000000000000e+00  0.0000000000000000e+00  0.0000000000000000e+00  0.0000000000000000e+00  0.0000000000000000e+00  0.0000000000000000e+00  0.0000000000000000e+00  0.0000000000000000e+00  0.0000000000000000e+00  0.0000000000000000e+00  0.0000000000000000e+00  0.0000000000000000e+00  0.0000000000000000e+00  0.0000000000000000e+00  0.0000000000000000e+00  0.0000000000000000e+00  0.0000000000000000e+00  0.0000000000000000e+00  0.0000000000000000e+00  0.0000000000000000e+00  0.0000000000000000e+00  0.0000000000000000e+00  0.0000000000000000e+00  0.0000000000000000e+00  0.0000000000000000e+00  0.0000000000000000e+00  0.0000000000000000e+00  0.0000000000000000e+00  0.0000000000000000e+00  0.0000000000000000e+00  0.0000000000000000e+00  0.0000000000000000e+00  0.0000000000000000e+00  0.0000000000000000e+00  0.0000000000000000e+00  0.0000000000000000e+00  0.0000000000000000e+00  0.0000000000000000e+00  0.0000000000000000e+00  0.0000000000000000e+00  0.0000000000000000e+00  0.0000000000000000e+00  0.0000000000000000e+00  0.0000000000000000e+00  0.0000000000000000e+00  0.0000000000000000e+00  0.0000000000000000e+00  0.0000000000000000e+00  0.0000000000000000e+00  0.0000000000000000e+00  0.0000000000000000e+00  0.0000000000000000e+00  0.0000000000000000e+00  0.0000000000000000e+00  0.0000000000000000e+00  0.0000000000000000e+00  0.0000000000000000e+00  0.0000000000000000e+00  0.0000000000000000e+00  0.0000000000000000e+00  0.0000000000000000e+00  0.0000000000000000e+00  0.0000000000000000e+00  0.0000000000000000e+00  0.0000000000000000e+00  0.0000000000000000e+00  0.0000000000000000e+00  0.0000000000000000e+00  0.0000000000000000e+00  0.0000000000000000e+00  0.0000000000000000e+00  0.0000000000000000e+00  0.0000000000000000e+00  0.0000000000000000e+00  0.0000000000000000e+00  0.0000000000000000e+00  0.0000000000000000e+00  0.0000000000000000e+00  0.0000000000000000e+00  0.0000000000000000e+00  0.0000000000000000e+00  0.0000000000000000e+00  0.0000000000000000e+00  0.0000000000000000e+00  0.0000000000000000e+00  0.0000000000000000e+00  0.0000000000000000e+00  0.0000000000000000e+00  0.0000000000000000e+00  0.0000000000000000e+00  0.0000000000000000e+00  0.0000000000000000e+00  0.0000000000000000e+00  0.0000000000000000e+00  0.0000000000000000e+00  0.0000000000000000e+00  0.0000000000000000e+00  0.0000000000000000e+00  0.0000000000000000e+00  0.0000000000000000e+00  0.0000000000000000e+00  0.0000000000000000e+00  0.0000000000000000e+00  0.0000000000000000e+00  0.0000000000000000e+00  0.0000000000000000e+00  0.0000000000000000e+00  0.0000000000000000e+00  0.0000000000000000e+00  0.0000000000000000e+00  0.0000000000000000e+00  0.0000000000000000e+00  0.0000000000000000e+00  0.0000000000000000e+00  0.0000000000000000e+00  0.0000000000000000e+00  0.0000000000000000e+00  0.0000000000000000e+00  0.0000000000000000e+00  0.0000000000000000e+00  0.0000000000000000e+00  0.0000000000000000e+00  0.0000000000000000e+00  0.0000000000000000e+00  0.0000000000000000e+00  0.0000000000000000e+00  0.0000000000000000e+00  0.0000000000000000e+00  0.0000000000000000e+00  0.0000000000000000e+00  0.0000000000000000e+00  0.0000000000000000e+00  0.0000000000000000e+00  0.0000000000000000e+00  0.0000000000000000e+00  0.0000000000000000e+00  0.0000000000000000e+00  0.0000000000000000e+00  0.0000000000000000e+00  0.0000000000000000e+00  0.0000000000000000e+00  0.0000000000000000e+00  0.0000000000000000e+00  0.0000000000000000e+00  0.0000000000000000e+00  0.0000000000000000e+00  0.0000000000000000e+00  0.0000000000000000e+00  0.0000000000000000e+00  0.0000000000000000e+00  0.0000000000000000e+00  0.0000000000000000e+00  0.0000000000000000e+00  0.0000000000000000e+00  0.0000000000000000e+00  0.0000000000000000e+00  0.0000000000000000e+00  0.0000000000000000e+00  0.0000000000000000e+00  0.0000000000000000e+00  0.0000000000000000e+00  0.0000000000000000e+00  0.0000000000000000e+00  5.2278274135296476e-01  5.0062823070189588e-01  3.9419181801366970e-01  3.9940490655968569e-01  4.6423284770119122e-01  5.7882601515153265e-01  5.5790429861389068e-01  4.3712211924989675e-01  4.8339721877430963e-01  5.8954117071719270e-01  5.4605841812182498e-01  5.1698264395508853e-01  6.1876285096564387e-01  4.7945669114995310e-01  4.9368664889486830e-01  4.8100925312466053e-01  4.1750158332945525e-01  5.0775229413407430e-01  5.3355157747842141e-01  4.7439433005318493e-01  5.0519022825055626e-01  4.8712588271876062e-01  5.0591494541110549e-01  5.5428615670439563e-01  5.0378654765010267e-01  4.4739163396140003e-01  5.1878720097358011e-01  4.8455835228059424e-01  4.2037611602766645e-01  4.5301433243607464e-01  4.8810989309797809e-01  4.9649035241414075e-01  4.6650325485478844e-01  6.2998459213869651e-01  4.7623254612879623e-01  5.2770884680998387e-01  4.8414072448440804e-01  5.5326407371373643e-01  5.5012936601139606e-01  4.7908623656184590e-01  3.7853536637116320e-01  5.8225155517661364e-01  4.6700311885065365e-01  5.4702431169658849e-01  5.2674336126569810e-01  4.8718687911547204e-01  6.7843286895674038e-01  5.9242064603654598e-01  5.0508537326588543e-01  5.3583900821845676e-01  4.8593625860972012e-01  4.4511148470551332e-01  4.8803427712377284e-01  5.6507943866406607e-01  5.1643782479999334e-01  4.9759690190488359e-01  4.4646824666104284e-01  4.9982482647338339e-01  6.2560853423005236e-01  5.2890232867725850e-01  5.1381225218097870e-01  5.4355068556385200e-01  3.6124030422373257e-27  -1.3178877783998546e-27  -2.6372991382105424e-27  -2.9362116021188832e-27  -1.2757703770994018e-27  -5.3223751102192421e-28  -2.0321712495309038e-28  1.8085997332854744e-27  7.1910927287636301e-27  4.1262654113419635e-27  -7.0167496535966307e-25  -6.6245830388105649e-25  5.4015514051246867e-25  1.1894522919919113e-24  3.7088116528763118e-26  3.0575445432719896e-26  -4.7808626606888291e-26  -3.0032896781218145e-26  -1.1242593254824495e-22  -1.6505399479131160e-22  -4.3272997477286157e-26  -4.9232428922027093e-26  4.7612443504543199e-23  4.7758647604381722e-23  -4.7329337360447560e-27  -3.9747367283571304e-26  -7.5369921520477676e-21  -7.1236227387989639e-21  -4.5758827335446512e-21  -4.8274271393156204e-21  8.3192868375833379e-26  -2.6522504009660350e-26  7.1703446431341157e-30  -8.8439311136993476e-30  -9.0742343216721030e-30  1.6282541138280096e-29  1.9759366826200893e-28  3.9844203808942965e-28  2.8927464028108117e-28  3.1817933585359342e-28  3.5536296871261262e-20  6.3537293606742627e-26  1.2229863605601419e-26  3.8447618829908822e-20  -9.0965295512756332e-30  -9.9263809871754196e-30  -6.2620593423692931e-30  2.3186076395183407e-31  2.4329241780024302e-31  2.3940969925785356e-31  1.4562219920073179e-31  -9.9633722102438341e-30  -6.1356151762002980e-33  -2.3068763938473861e-32  1.1371225524581902e-31  -4.0599766701958637e-33  2.5154953101103616e-32  -6.0625830884747176e-33  1.3756209978597299e-31  -9.9017187892267341e-34  -1.2942970455163555e-33  -4.6819402921791757e-34  -1.9574346679534542e-34  1.4856515596106452e-34  1.3409178681537568e-34  7.7341061719940111e-35  7.3735411262076661e-36  -1.6096907307971939e-33  2.7758148252585906e-20  4.6287627014415346e-26  -1.3625300183388686e-26  1.3821895981072194e-20  1.1675008894538019e-25  -3.4725249269017175e-24  1.3394908139293321e-21  8.8430430612213954e-22  -3.2579708825415899e-24  2.7350811532977698e-26  7.8784655932986473e-26  -5.2861302887736585e-26  -3.8568864626686416e-26  -1.1547888184445769e-23  3.9597117747082523e-22  4.1482004912261659e-22  -1.1338401395450965e-23  -2.5531864162958853e-27  8.8216393291360990e-26  -4.0412831650276092e-27  5.5604386499200414e-27  -6.5534745238306481e-27  8.9115023890090466e-26  1.1270771317057317e-25  -4.0124444305000614e-27  -2.4120082606619412e-27  3.0464776718525219e-26  2.8830722006467909e-26  -1.5704730410269914e-28  -7.7607797849461223e-28  -1.2225072710070139e-27  2.0590626634245173e-28  6.3878016630943135e-28  6.7275953895153288e-29  -1.5133891199654899e-28  -9.2258615095819734e-28  1.2567462570759086e-35  1.8952165906157446e-35  7.5316884523341426e-36  -1.6945978395295611e-36  6.4699473658046671e-36  1.5368908782641138e-36  1.0557452448538481e-35  5.2339779499882240e-37  2.7877468215671432e-20  1.2033963029998495e-25  1.1446195031346145e-25  1.3760365766550915e-20  -1.7864092204023555e-27  4.4955707946498423e-27  4.7957009958136791e-27  -7.1558194313487133e-27  -1.1865853269404567e-26  -7.0120568423676478e-29  -8.1947630031120063e-27  -2.0294426218515410e-26  3.5252793371061659e-30  -1.1191944545127881e-28  -7.3960458125782061e-29  2.8341012591237557e-30  3.4754383824621087e-30  -9.6395338036756630e-29  -1.2779617596734760e-28  1.1569374195030661e-30  -3.7499993819938624e-33  3.6441432204712058e-34  1.2053005299054163e-30  -1.2997726332031086e-32  2.7360770566572148e-31  -1.5412837272755369e-32  -3.6562414244988945e-32  1.2126589076724285e-33  8.1374539254400693e-31  -1.3325618316029465e-32  -1.3655506929009651e-33  2.9198327747333628e-34  -4.4317831905467390e-32  1.2637525090540878e-33  5.2319127107795085e-31  -1.7094962027156207e-32  -3.7014089982237626e-36  -1.7453805210602545e-36  -2.9595972280597897e-36  -3.4662498689896514e-36  3.4840952997399781e-20  -1.2995853864187896e-19  -8.5771481746237746e-20  4.2076949986468230e-19  2.0515161516460566e-19  -1.2097205733716300e-18  -3.1622073077886164e-19  2.8705392434202514e-18  -2.7975280868875428e-19  -4.3099799040479383e-18  4.7474874177828244e-18  -4.6496838911954137e-18  -2.3363935850712826e-17  6.8991207578682545e-17  8.0970993937625494e-17  -3.3342387064778235e-16  -2.1158945816958055e-16  1.1328875833990506e-15  3.8162534255914490e-16  -2.8846906085357675e-15  -2.0353337781108787e-16  -4.7525365158000315e-15  4.9165515066690762e-15  -1.6200972248343376e-15  -1.5863593546971450e-15  7.3808896578930598e-15  -2.5145868010704421e-14  -1.5924050783222070e-14  9.9126082361838445e-14  9.7169889786378939e-15  -1.8521729467416511e-13  5.6053609633493928e-14  -3.7650739636170701e-13  2.9176597089351563e-14  -1.9703581718255241e-13  8.8654769877008550e-13  1.5536373798612855e-13  -2.2293418339680532e-12  7.7802424169459843e-13  -1.2244343545643265e-13  -2.4767516976316277e-12  1.3240156106798703e-11  -1.0637201229830206e-13  -2.1326469090503672e-11  -2.3720652920774692e-11  1.5576247247226996e-11  -4.0435952914989590e-11  -2.6197013225542577e-11  -3.0475913442354719e-13  1.7310823330127653e-11  -4.9867791993581010e-11  -2.3475136216359965e-11  -1.2717075568981431e-12  1.8382149048566251e-11  -2.7278787224835299e-12  -3.2804594585255822e-12  -1.3737056249736617e-11  1.8262697555813146e-11  -1.8308174712972910e-12  -6.7099889770208188e-12  1.4874964423488211e-12  3.6898555364954326e-13  1.1085117323035928e-11  -8.5790477539380072e-12  9.5890425142705934e-13  3.5615956367131045e-12  -1.4405370873410993e-11  2.2790826206353628e-12  -9.7888605896151686e-13  2.8368193605682678e-13  -4.9727516238169269e-12  2.1933211014557288e-12  -8.9153968830857708e-12  1.4121256728673954e-13  1.4211347516179363e-12  2.1923157632717923e-12  -3.5655663771411203e-12  2.5691752224423439e-11  -9.9231837338830795e-12  4.6010885612672625e-11  -1.3699295909479413e-11  5.3263100682435733e-11  3.2758546199364804e-12  -1.4243377017323102e-11  5.2221933393841931e-11  -1.3903419825610208e-11  5.2098930058818250e-11  -1.4170383156768124e-11  5.2925286889065495e-11  -1.3636612553858990e-11  4.6053089912153308e-11  -1.0050722484194909e-11  2.6443060633600804e-11  -3.7217968863974353e-12  1.9329829332563431e-12  3.2815893198340034e-12  -1.3958261700358224e-10  2.4171867186139178e+00  1.9657127669691378e-12  -1.3155454858235287e-11  3.9195611785446715e-12  -1.2890744159061610e-11  2.4481030079764419e+00  2.4093910331963153e-12  -4.4108429097887361e-12  2.4153927631642742e+00  1.7732878139377836e-13  1.8651257578109132e-12  1.7158525783690548e-12  -1.0302632187721793e-11  2.3501660255495755e-12  -4.7670319745696472e-12  -1.9087569471815916e-10  -3.2985170702405584e-13  1.8433114321412559e-13  2.4645803445679362e-12  1.3489023200875803e-12  -1.3790338686136563e-11  3.1898757210446482e-12  -6.8563568449616678e-12  4.4371837489610012e-11  5.1244493235454219e-12  1.7258417366895670e-12  -1.0569900081446852e-11  2.9623714452522158e-11  2.7853197137168912e-11  -3.0702049366917508e-12  -2.6880456069848467e-12  -2.9987152653302177e-11  2.4130593221853839e-11  -4.4952446513180675e-12  2.5570927616558383e-12  -4.7095809824258424e-11  1.4854563524545376e-11  -3.5622186101645942e-12  2.0500458595614075e-12  -3.4324080804471313e-11  1.3009115580280932e-11  -1.6552490862735184e-11  -2.7050776582158243e-11  7.5649168058455854e-13  1.4717362486688323e-11  -2.5668922029117441e-11  -3.4304862942205133e-11  1.0573287870992791e-12  1.9253303202520327e-11  -3.8078756097381788e-11  -4.0373219700328112e-11  3.3819329421533864e-10  -1.0483130480027590e-10  3.4575630730177591e-11  2.7918000678018923e-10  -1.0165338285836858e-11  -1.5823904372216102e-10  7.0783146586129027e-10  -9.7361032726447684e-11  -3.1622856314952761e-10  3.3493258131179220e-10  -1.7627903533569020e-09  3.1752492894556997e-10  5.2666333539611827e-10  -9.3922761347311857e-10  5.5427653246998540e-11  4.6159236876765796e-10  -2.0802767342291167e-09  4.1336565445121914e-10  4.8813773637641744e-11  -7.7781766346403205e-10  6.2579013335329546e-09  -2.5231475653494691e-09  1.1102792953035812e-08  -2.6967384599418708e-09  6.0766723608788803e-09  3.0384711237930013e-10  -1.0068180259832210e-08  5.1677339142078824e-09  -2.7534192735365174e-08  8.9689418290409915e-09  -3.7317853488221645e-08  1.0594630226734649e-08  -4.0077935187202347e-08  1.0586085970045398e-08  -3.7174834719361478e-08  8.7248579180083106e-09  -2.6310949552462735e-08  5.0685738644190679e-09  -1.1416167636891534e-08  -1.8825368039355361e-09  -8.3021156537308732e-10  3.6490899885110142e-10  9.5298852501022592e-11  -6.0274825453465998e-11  2.9173125150632231e-12  6.9892867231325438e-12  -6.6547375662041352e-12  1.9364933773214486e-13  2.8335951406747705e-12  -1.2437671446720107e-11  -4.7751781014449023e-13  4.5648065762484983e-10  3.2651045335865557e-12  -1.0225749732600815e-11  1.8589515514841163e-12  -3.3190791748743360e-12  1.0211907441316002e-13  1.5019751306199427e-12  -5.0334253179112183e-13  1.3507411