<?xml version="1.0"?>
<VTKFile type="UnstructuredGrid"  version="0.1"  >
<UnstructuredGrid>
<Piece  NumberOfPoints="11902" NumberOfCells="23402">
<Points>
<DataArray  type="Float64"  NumberOfComponents="3"  format="ascii">-5 -5 0  5 -5 0  5 5 0  -5 5 0  1 0 0  -4.9 -5 0  -4.8 -5 0  -4.7 -5 0  -4.6 -5 0  -4.5 -5 0  -4.4 -5 0  -4.3 -5 0  -4.2 -5 0  -4.1 -5 0  -4 -5 0  -3.9 -5 0  -3.8 -5 0  -3.7 -5 0  -3.6 -5 0  -3.5 -5 0  -3.4 -5 0  -3.3 -5 0  -3.2 -5 0  -3.1 -5 0  -3 -5 0  -2.9 -5 0  -2.8 -5 0  -2.7 -5 0  -2.6 -5 0  -2.5 -5 0  -2.4 -5 0  -2.3 -5 0  -2.2 -5 0  -2.1 -5 0  -2 -5 0  -1.9 -5 0  -1.8 -5 0  -1.7 -5 0  -1.6 -5 0  -1.5 -5 0  -1.4 -5 0  -1.3 -5 0  -1.2 -5 0  -1.1 -5 0  -1 -5 0  -0.9000000000000004 -5 0  -0.7999999999999998 -5 0  -0.7000000000000002 -5 0  -0.5999999999999996 -5 0  -0.5 -5 0  -0.4000000000000004 -5 0  -0.2999999999999998 -5 0  -0.2000000000000002 -5 0  -0.09999999999999964 -5 0  0 -5 0  0.09999999999999964 -5 0  0.2000000000000002 -5 0  0.2999999999999998 -5 0  0.4000000000000004 -5 0  0.5 -5 0  0.5999999999999996 -5 0  0.7000000000000002 -5 0  0.7999999999999998 -5 0  0.9000000000000004 -5 0  1 -5 0  1.1 -5 0  1.2 -5 0  1.3 -5 0  1.4 -5 0  1.5 -5 0  1.6 -5 0  1.7 -5 0  1.8 -5 0  1.9 -5 0  2 -5 0  2.1 -5 0  2.2 -5 0  2.3 -5 0  2.4 -5 0  2.5 -5 0  2.6 -5 0  2.7 -5 0  2.8 -5 0  2.9 -5 0  3 -5 0  3.1 -5 0  3.199999999999999 -5 0  3.300000000000001 -5 0  3.4 -5 0  3.5 -5 0  3.6 -5 0  3.699999999999999 -5 0  3.800000000000001 -5 0  3.9 -5 0  4 -5 0  4.1 -5 0  4.199999999999999 -5 0  4.300000000000001 -5 0  4.4 -5 0  4.5 -5 0  4.6 -5 0  4.699999999999999 -5 0  4.800000000000001 -5 0  4.9 -5 0  5 -4.9 0  5 -4.8 0  5 -4.7 0  5 -4.6 0  5 -4.5 0  5 -4.4 0  5 -4.3 0  5 -4.2 0  5 -4.1 0  5 -4 0  5 -3.9 0  5 -3.8 0  5 -3.7 0  5 -3.6 0  5 -3.5 0  5 -3.4 0  5 -3.3 0  5 -3.2 0  5 -3.1 0  5 -3 0  5 -2.9 0  5 -2.8 0  5 -2.7 0  5 -2.6 0  5 -2.5 0  5 -2.4 0  5 -2.3 0  5 -2.2 0  5 -2.1 0  5 -2 0  5 -1.9 0  5 -1.8 0  5 -1.7 0  5 -1.6 0  5 -1.5 0  5 -1.4 0  5 -1.3 0  5 -1.2 0  5 -1.1 0  5 -1 0  5 -0.9000000000000004 0  5 -0.7999999999999998 0  5 -0.7000000000000002 0  5 -0.5999999999999996 0  5 -0.5 0  5 -0.4000000000000004 0  5 -0.2999999999999998 0  5 -0.2000000000000002 0  5 -0.09999999999999964 0  5 0 0  5 0.09999999999999964 0  5 0.2000000000000002 0  5 0.2999999999999998 0  5 0.4000000000000004 0  5 0.5 0  5 0.5999999999999996 0  5 0.7000000000000002 0  5 0.7999999999999998 0  5 0.9000000000000004 0  5 1 0  5 1.1 0  5 1.2 0  5 1.3 0  5 1.4 0  5 1.5 0  5 1.6 0  5 1.7 0  5 1.8 0  5 1.9 0  5 2 0  5 2.1 0  5 2.2 0  5 2.3 0  5 2.4 0  5 2.5 0  5 2.6 0  5 2.7 0  5 2.8 0  5 2.9 0  5 3 0  5 3.1 0  5 3.199999999999999 0  5 3.300000000000001 0  5 3.4 0  5 3.5 0  5 3.6 0  5 3.699999999999999 0  5 3.800000000000001 0  5 3.9 0  5 4 0  5 4.1 0  5 4.199999999999999 0  5 4.300000000000001 0  5 4.4 0  5 4.5 0  5 4.6 0  5 4.699999999999999 0  5 4.800000000000001 0  5 4.9 0  4.9 5 0  4.8 5 0  4.7 5 0  4.6 5 0  4.5 5 0  4.4 5 0  4.3 5 0  4.2 5 0  4.1 5 0  4 5 0  3.9 5 0  3.8 5 0  3.7 5 0  3.6 5 0  3.5 5 0  3.4 5 0  3.3 5 0  3.2 5 0  3.1 5 0  3 5 0  2.9 5 0  2.8 5 0  2.7 5 0  2.6 5 0  2.5 5 0  2.4 5 0  2.3 5 0  2.2 5 0  2.1 5 0  2 5 0  1.9 5 0  1.8 5 0  1.7 5 0  1.6 5 0  1.5 5 0  1.4 5 0  1.3 5 0  1.2 5 0  1.1 5 0  1 5 0  0.9000000000000004 5 0  0.7999999999999998 5 0  0.7000000000000002 5 0  0.5999999999999996 5 0  0.5 5 0  0.4000000000000004 5 0  0.2999999999999998 5 0  0.2000000000000002 5 0  0.09999999999999964 5 0  0 5 0  -0.09999999999999964 5 0  -0.2000000000000002 5 0  -0.2999999999999998 5 0  -0.4000000000000004 5 0  -0.5 5 0  -0.5999999999999996 5 0  -0.7000000000000002 5 0  -0.7999999999999998 5 0  -0.9000000000000004 5 0  -1 5 0  -1.1 5 0  -1.2 5 0  -1.3 5 0  -1.4 5 0  -1.5 5 0  -1.6 5 0  -1.7 5 0  -1.8 5 0  -1.9 5 0  -2 5 0  -2.1 5 0  -2.2 5 0  -2.3 5 0  -2.4 5 0  -2.5 5 0  -2.6 5 0  -2.7 5 0  -2.8 5 0  -2.9 5 0  -3 5 0  -3.1 5 0  -3.199999999999999 5 0  -3.300000000000001 5 0  -3.4 5 0  -3.5 5 0  -3.6 5 0  -3.699999999999999 5 0  -3.800000000000001 5 0  -3.9 5 0  -4 5 0  -4.1 5 0  -4.199999999999999 5 0  -4.300000000000001 5 0  -4.4 5 0  -4.5 5 0  -4.6 5 0  -4.699999999999999 5 0  -4.800000000000001 5 0  -4.9 5 0  -5 4.9 0  -5 4.8 0  -5 4.7 0  -5 4.6 0  -5 4.5 0  -5 4.4 0  -5 4.3 0  -5 4.2 0  -5 4.1 0  -5 4 0  -5 3.9 0  -5 3.8 0  -5 3.7 0  -5 3.6 0  -5 3.5 0  -5 3.4 0  -5 3.3 0  -5 3.2 0  -5 3.1 0  -5 3 0  -5 2.9 0  -5 2.8 0  -5 2.7 0  -5 2.6 0  -5 2.5 0  -5 2.4 0  -5 2.3 0  -5 2.2 0  -5 2.1 0  -5 2 0  -5 1.9 0  -5 1.8 0  -5 1.7 0  -5 1.6 0  -5 1.5 0  -5 1.4 0  -5 1.3 0  -5 1.2 0  -5 1.1 0  -5 1 0  -5 0.9000000000000004 0  -5 0.7999999999999998 0  -5 0.7000000000000002 0  -5 0.5999999999999996 0  -5 0.5 0  -5 0.4000000000000004 0  -5 0.2999999999999998 0  -5 0.2000000000000002 0  -5 0.09999999999999964 0  -5 0 0  -5 -0.09999999999999964 0  -5 -0.2000000000000002 0  -5 -0.2999999999999998 0  -5 -0.4000000000000004 0  -5 -0.5 0  -5 -0.5999999999999996 0  -5 -0.7000000000000002 0  -5 -0.7999999999999998 0  -5 -0.9000000000000004 0  -5 -1 0  -5 -1.1 0  -5 -1.2 0  -5 -1.3 0  -5 -1.4 0  -5 -1.5 0  -5 -1.6 0  -5 -1.7 0  -5 -1.8 0  -5 -1.9 0  -5 -2 0  -5 -2.1 0  -5 -2.2 0  -5 -2.3 0  -5 -2.4 0  -5 -2.5 0  -5 -2.6 0  -5 -2.7 0  -5 -2.8 0  -5 -2.9 0  -5 -3 0  -5 -3.1 0  -5 -3.199999999999999 0  -5 -3.300000000000001 0  -5 -3.4 0  -5 -3.5 0  -5 -3.6 0  -5 -3.699999999999999 0  -5 -3.800000000000001 0  -5 -3.9 0  -5 -4 0  -5 -4.1 0  -5 -4.199999999999999 0  -5 -4.300000000000001 0  -5 -4.4 0  -5 -4.5 0  -5 -4.6 0  -5 -4.699999999999999 0  -5 -4.800000000000001 0  -5 -4.9 0  0.9950307753654014 0.09956784659581641 0  0.9801724878485439 0.1981461431993971 0  0.955572805786141 0.2947551744109034 0  0.9214762118704081 0.3884347962746937 0  0.8782215733702291 0.4782539786213171 0  0.8262387743159958 0.5633200580636207 0  0.7660444431189791 0.642787609686538 0  0.6982368180860742 0.7158668492597171 0  0.6234898018587353 0.7818314824680284 0  0.5425462638657613 0.8400259231507702 0  0.4562106573531652 0.8898718088114674 0  0.3653410243663976 0.9308737486442032 0  0.2708404681430079 0.9626242469500113 0  0.1736481776669335 0.9848077530122075 0  0.07473009358642749 0.9972037971811799 0  -0.02493069173806936 0.9996891820008164 0  -0.1243437046474812 0.9922392066001726 0  -0.22252093395631 0.9749279121818246 0  -0.3184866502516801 0.9479273461671333 0  -0.4112871031306069 0.9115058523116752 0  -0.4999999999999956 0.8660254037844412 0  -0.5837436722347853 0.8119380057158597 0  -0.6616858375968552 0.7497812029677379 0  -0.7330518718298221 0.6801727377709239 0  -0.797132507222919 0.6038044103254819 0  -0.8532908816321524 0.5214352033795034 0  -0.9009688679024164 0.4338837391175638 0  -0.9396926207859061 0.3420201433256752 0  -0.9690772862290763 0.2467573976903003 0  -0.9888308262251275 0.1490422661761813 0  -0.998756921218922 0.04984588566070414 0  -0.9987569212189228 -0.0498458856606897 0  -0.9888308262251297 -0.1490422661761666 0  -0.96907728622908 -0.2467573976902858 0  -0.939692620785911 -0.3420201433256616 0  -0.9009688679024225 -0.4338837391175512 0  -0.8532908816321595 -0.5214352033794919 0  -0.7971325072229264 -0.6038044103254722 0  -0.7330518718298308 -0.6801727377709146 0  -0.6616858375968644 -0.7497812029677299 0  -0.5837436722347948 -0.8119380057158528 0  -0.500000000000005 -0.8660254037844357 0  -0.4112871031306164 -0.9115058523116709 0  -0.3184866502516892 -0.9479273461671301 0  -0.2225209339563189 -0.9749279121818226 0  -0.1243437046474902 -0.9922392066001714 0  -0.0249306917380776 -0.9996891820008161 0  0.07473009358641994 -0.9972037971811805 0  0.1736481776669265 -0.9848077530122088 0  0.2708404681430008 -0.9626242469500133 0  0.3653410243663913 -0.9308737486442057 0  0.4562106573531597 -0.8898718088114703 0  0.5425462638657567 -0.8400259231507732 0  0.6234898018587313 -0.7818314824680316 0  0.6982368180860711 -0.7158668492597202 0  0.7660444431189761 -0.6427876096865416 0  0.8262387743159935 -0.5633200580636242 0  0.8782215733702274 -0.4782539786213201 0  0.9214762118704073 -0.3884347962746956 0  0.9555728057861406 -0.2947551744109047 0  0.9801724878485438 -0.1981461431993977 0  0.9950307753654013 -0.09956784659581729 0  -2.449998658864481 4.920778405384746 0  -2.45 -4.913397459621556 0  4.913390249436301 2.449991278872393 0  4.921241841059507 -2.45126281762114 0  2.447985537477937 -4.899136462700148 0  2.442359973780398 4.902787943906695 0  -4.913392775092561 -2.44999478911229 0  -4.913397586235258 2.449998186285153 0  -1.749994680784746 4.914823892370101 0  -1.745716553790987 -4.918111605932221 0  4.924338796512414 1.745961773375498 0  4.913397459621557 -1.75 0  -4.91364481421298 -1.749701929732257 0  -4.914437307054341 1.749424050316321 0  1.747358710327851 4.908964334432811 0  1.7489603545361 -4.89761013719719 0  -1.15 4.913397459621557 0  -1.130738810679978 -4.920918844836693 0  -4.91440710852225 -1.149648021625244 0  -4.914242774271024 1.149445787907757 0  1.144918407670731 -4.9172991945343 0  1.149995831223957 4.913397616312334 0  4.91459027735465 1.147936738890088 0  4.924782858982709 -1.153518912617952 0  -0.5472708428414548 -4.914970810555997 0  -0.5469952110597515 4.923192385067424 0  -4.913977236983863 -0.5496632005068867 0  -4.914004571221953 0.5482101863479627 0  4.913397459621557 -0.5499999999999998 0  4.924285540704135 0.5466266203620586 0  0.5431100502161902 -4.902583880471643 0  0.5517336370721539 4.920194191617333 0  -4.913867247108992 -3.049996536692655 0  4.920306944860013 3.047903402089654 0  4.913397459621556 -3.05 0  -4.914705888637396 3.047074417188615 0  3.056573935894829 -4.919328034625738 0  -3.05 -4.913397459621556 0  3.053538639919232 4.915440634264215 0  -3.049437787257514 4.914271535215389 0  -4.913398616176713 -0.05000305088463643 0  0.04515664357183806 -4.916955698348546 0  0.04960905818453436 4.923598865925187 0  4.920025728373856 -0.05137916622276772 0  3.546630833645985 -4.920391952325502 0  -3.55 4.913397459621557 0  -3.549999282046433 -4.913397406208844 0  4.920363561957139 3.5485076
[...]
<PointData  Vectors="f_165"> 
<DataArray  type="Float64"  Name="f_165"  NumberOfComponents="3" format="ascii">-4.5534055724799214e-07 -4.5534055724799214e-07 0.0000000000000000e+00  4.5534055724797547e-07 -4.5534055724797547e-07 0.0000000000000000e+00  5.0329340739302056e-07 5.0329340739302056e-07 0.0000000000000000e+00  -4.5534055724797547e-07 4.5534055724797547e-07 0.0000000000000000e+00  -1.0396040031197709e+00 -2.2099596664990635e-02 0.0000000000000000e+00  9.0969065534353881e-08 -9.0682633639792356e-07 0.0000000000000000e+00  -1.0686613737490728e-07 -8.6169953378915587e-07 0.0000000000000000e+00  1.0458655561236290e-07 -8.7509525236251827e-07 0.0000000000000000e+00  -9.1690796007269526e-08 -8.8383783758372126e-07 0.0000000000000000e+00  -2.1533338341088409e-08 -9.0861571687819996e-07 0.0000000000000000e+00  3.5637616178186405e-08 -1.0667559021397698e-06 0.0000000000000000e+00  5.7987102908923343e-09 -9.4210910271273887e-07 0.0000000000000000e+00  7.3243556072345846e-08 -7.8409875260822626e-07 0.0000000000000000e+00  -1.0535065500424583e-07 -8.5208171012041039e-07 0.0000000000000000e+00  1.2007435482737464e-07 -8.3165042840009694e-07 0.0000000000000000e+00  -2.6901196644787797e-08 -6.8697005907466804e-07 0.0000000000000000e+00  -5.6570455946943017e-09 -7.6011156674585927e-07 0.0000000000000000e+00  -1.3294039495528590e-08 -7.7540047231537878e-07 0.0000000000000000e+00  1.0078966564721104e-08 -7.8486815006656819e-07 0.0000000000000000e+00  -1.4119557403448679e-12 -7.6980096187753261e-07 0.0000000000000000e+00  1.0228888162899784e-12 -7.6980140646331065e-07 0.0000000000000000e+00  5.0235961059969368e-08 -7.3544105200704099e-07 0.0000000000000000e+00  -4.4888349447541630e-08 -6.9812609888237344e-07 0.0000000000000000e+00  1.8348093575394742e-13 -7.6979847521287664e-07 0.0000000000000000e+00  3.9593489744158469e-08 -6.7140932755748140e-07 0.0000000000000000e+00  -1.2880673215197344e-07 -8.2217902073308633e-07 0.0000000000000000e+00  9.7025952626304839e-08 -8.6345657237689545e-07 0.0000000000000000e+00  -9.4628766883482010e-08 -8.6621159728960977e-07 0.0000000000000000e+00  1.2476885579290760e-07 -8.1360083933318010e-07 0.0000000000000000e+00  -3.8248555306225347e-08 -6.6085402217370208e-07 0.0000000000000000e+00  -5.2154312139034925e-12 -7.6979556982674941e-07 0.0000000000000000e+00  3.5249005413166729e-08 -7.0024360071399251e-07 0.0000000000000000e+00  -1.2150805772955713e-07 -8.3162860458213632e-07 0.0000000000000000e+00  9.9932948084802949e-08 -8.6513935765211746e-07 0.0000000000000000e+00  -9.5289179280579122e-08 -8.8981501751866685e-07 0.0000000000000000e+00  6.1191599911407515e-10 -8.9095636352350577e-07 0.0000000000000000e+00  6.7471853626280550e-08 -1.0005059059842888e-06 0.0000000000000000e+00  1.1145941866780604e-08 -8.1346239842896744e-07 0.0000000000000000e+00  7.6236524257018956e-09 -7.8464383448914866e-07 0.0000000000000000e+00  3.2508085759491569e-10 -7.7023952855704219e-07 0.0000000000000000e+00  9.6485556082647187e-09 -7.4774191271722266e-07 0.0000000000000000e+00  4.0296480872086011e-08 -6.5611971979117410e-07 0.0000000000000000e+00  -8.0158393374901274e-08 -7.0053241454418199e-07 0.0000000000000000e+00  -8.9351329807964287e-08 -9.9679029220682710e-07 0.0000000000000000e+00  9.7692230681569044e-08 -9.9245101713943889e-07 0.0000000000000000e+00  5.2029768116985443e-08 -7.2417344370383356e-07 0.0000000000000000e+00  -9.5705244874331874e-08 -8.5513902701446106e-07 0.0000000000000000e+00  -1.0898425106618819e-08 -7.7853794405612381e-07 0.0000000000000000e+00  5.7887079357328462e-08 -9.4688036955422460e-07 0.0000000000000000e+00  1.7313499750987433e-09 -7.8519351216920953e-07 0.0000000000000000e+00  4.4701831295918207e-09 -7.8252248414809752e-07 0.0000000000000000e+00  4.9512941840319734e-12 -7.6980114133266714e-07 0.0000000000000000e+00  -4.1808909138802854e-10 -7.7084745560354017e-07 0.0000000000000000e+00  -1.8861744942647586e-09 -7.7554399853014836e-07 0.0000000000000000e+00  -1.2191149208077552e-08 -8.0556479958108838e-07 0.0000000000000000e+00  -7.2628487574987776e-08 -9.9742788922907331e-07 0.0000000000000000e+00  7.8213730532925378e-09 -8.6436314331633617e-07 0.0000000000000000e+00  9.1617604289584484e-08 -8.5570863111861382e-07 0.0000000000000000e+00  -1.0582505377168465e-07 -8.4703141918037233e-07 0.0000000000000000e+00  1.1981268508844973e-07 -8.2963783766336920e-07 0.0000000000000000e+00  -2.7784943991869108e-08 -6.8655858153391209e-07 0.0000000000000000e+00  -9.2390544756922787e-09 -7.6593147255545411e-07 0.0000000000000000e+00  -6.4867768728184882e-09 -7.7734603348301405e-07 0.0000000000000000e+00  5.4158066814928363e-09 -7.7860026762289528e-07 0.0000000000000000e+00  -4.9087808323172624e-09 -7.8128722432767180e-07 0.0000000000000000e+00  -9.8473576874377986e-09 -8.1230718380617520e-07 0.0000000000000000e+00  4.7811964681745142e-08 -7.3747452190568801e-07 0.0000000000000000e+00  -8.6564370853391808e-08 -7.8618320242828340e-07 0.0000000000000000e+00  1.3317449658904627e-08 -9.0201677433286814e-07 0.0000000000000000e+00  6.1826849841599730e-09 -8.6336821356944062e-07 0.0000000000000000e+00  1.5944776288855000e-08 -8.5521433047680403e-07 0.0000000000000000e+00  7.2922497787126223e-08 -7.0918930852081345e-07 0.0000000000000000e+00  -6.7984336400935432e-08 -7.0421860845129738e-07 0.0000000000000000e+00  -1.4310512420709491e-08 -8.3285384904989647e-07 0.0000000000000000e+00  2.7923937693150237e-08 -8.1316876612884059e-07 0.0000000000000000e+00  2.1382294576577505e-09 -7.7694702814341872e-07 0.0000000000000000e+00  4.2796762774182972e-10 -7.7103328826703450e-07 0.0000000000000000e+00  -5.2707103517033014e-09 -7.9430565000485193e-07 0.0000000000000000e+00  5.3923836942972228e-08 -7.0484783944156231e-07 0.0000000000000000e+00  -3.3081136646930910e-08 -6.7427995077503129e-07 0.0000000000000000e+00  -1.6252376904919437e-08 -7.6292922783613583e-07 0.0000000000000000e+00  -4.3378296864595403e-08 -8.2299888607280638e-07 0.0000000000000000e+00  -5.9440674029172627e-09 -8.9606513637809395e-07 0.0000000000000000e+00  8.6150837521031068e-08 -7.6073641679189909e-07 0.0000000000000000e+00  -6.2093066132944521e-08 -7.2871913668338075e-07 0.0000000000000000e+00  -4.4695659003899315e-09 -8.4268745048123637e-07 0.0000000000000000e+00  4.1808243097118264e-08 -7.9933569838250697e-07 0.0000000000000000e+00  -1.8723692791608349e-08 -7.6768192216607017e-07 0.0000000000000000e+00  -2.5056518957882358e-08 -8.0598117665282237e-07 0.0000000000000000e+00  3.2793543547123574e-09 -8.6216604615834079e-07 0.0000000000000000e+00  7.5345070376347439e-08 -7.2463970381460020e-07 0.0000000000000000e+00  -7.2867254970475117e-08 -7.2067659212235851e-07 0.0000000000000000e+00  -7.8836993573379082e-09 -8.5276376962358913e-07 0.0000000000000000e+00  3.3603728145389083e-08 -8.1729874857141351e-07 0.0000000000000000e+00  1.6288302384147524e-08 -7.5161657321388409e-07 0.0000000000000000e+00  -1.2146791707569680e-08 -7.4553597415076345e-07 0.0000000000000000e+00  -6.6703080206765491e-09 -7.8235783883227516e-07 0.0000000000000000e+00  5.2524193916735884e-08 -7.0022185707233245e-07 0.0000000000000000e+00  -6.5601833412367228e-08 -7.1176851380183477e-07 0.0000000000000000e+00  -1.8446718921437660e-08 -8.4352363612367447e-07 0.0000000000000000e+00  2.8681053895931813e-08 -8.2091725519613330e-07 0.0000000000000000e+00  3.5722863123815744e-09 -7.8215627004603294e-07 0.0000000000000000e+00  -6.4907419807737737e-09 -7.9573837732027421e-07 0.0000000000000000e+00  -5.9984836192596874e-08 -9.4897963237438513e-07 0.0000000000000000e+00  8.9180957748772791e-07 8.8048610204807204e-08 0.0000000000000000e+00  8.8687261843383844e-07 -1.2448575076380615e-07 0.0000000000000000e+00  9.1872343981705348e-07 1.1017852263419563e-07 0.0000000000000000e+00  7.5902974526647367e-07 -2.5290784100189832e-08 0.0000000000000000e+00  8.0457173003775569e-07 1.6576449985910289e-08 0.0000000000000000e+00  7.8332478144997692e-07 2.5479481310836962e-10 0.0000000000000000e+00  7.8332260307876625e-07 -4.8516589566789531e-10 0.0000000000000000e+00  7.8366917349753582e-07 5.0127495343140305e-10 0.0000000000000000e+00  7.8845878151664312e-07 -6.6960595706215043e-09 0.0000000000000000e+00  7.9765385232024007e-07 3.5176419490007721e-09 0.0000000000000000e+00  8.0146992409418226e-07 -7.0757090099179947e-09 0.0000000000000000e+00  8.0028075966381291e-07 1.1600233590818421e-08 0.0000000000000000e+00  7.9362874455966070e-07 -1.3172954108629937e-08 0.0000000000000000e+00  7.9434287896926305e-07 8.7940835016949172e-09 0.0000000000000000e+00  8.0985793922867789e-07 -1.4566492506335793e-08 0.0000000000000000e+00  7.9864008396443584e-07 2.2583120127219236e-08 0.0000000000000000e+00  7.8253261630367017e-07 -3.8318343821250812e-09 0.0000000000000000e+00  7.9259659607970070e-07 -1.1590107429618794e-08 0.0000000000000000e+00  7.8235515490875409e-07 1.5903858598121141e-08 0.0000000000000000e+00  7.8914011385988130e-07 -1.8499506811265467e-08 0.0000000000000000e+00  8.0954007543913623e-07 5.6954946051715476e-09 0.0000000000000000e+00  7.8490631039187801e-07 1.2952717671881492e-08 0.0000000000000000e+00  8.1975112524238443e-07 -3.2449252693763754e-08 0.0000000000000000e+00  8.5469359793166013e-07 -8.6776389971152778e-09 0.0000000000000000e+00  8.5328296625969500e-07 8.5042825614105507e-09 0.0000000000000000e+00  8.1385375990732330e-07 2.1020924060407348e-08 0.0000000000000000e+00  7.8229299966931911e-07 1.0334179220563918e-08 0.0000000000000000e+00  7.6981363959774835e-07 -5.2164660611072678e-12 0.0000000000000000e+00  7.6979556937060565e-07 5.2162211713884806e-12 0.0000000000000000e+00  7.6978050305743659e-07 6.6428332206519951e-13 0.0000000000000000e+00  7.6981204773472622e-07 -5.9940596485216402e-12 0.0000000000000000e+00  7.6981396660754663e-07 5.3297484491198389e-12 0.0000000000000000e+00  7.8132270068190643e-07 -1.1771955258369828e-08 0.0000000000000000e+00  7.9654553120227720e-07 1.1317604599701671e-09 0.0000000000000000e+00  7.8427035703892994e-07 1.0762604713035718e-08 0.0000000000000000e+00  8.1897319781923416e-07 -3.1194313264117081e-08 0.0000000000000000e+00  8.5347682429975475e-07 -1.0284180298295919e-08 0.0000000000000000e+00  8.8368854402353794e-07 -6.4942675624569498e-09 0.0000000000000000e+00  8.8270845411780068e-07 1.7544810216873589e-08 0.0000000000000000e+00  7.6170526651746152e-07 1.6417055658477585e-10 0.0000000000000000e+00  8.5310645953427171e-07 3.3850525189785673e-08 0.0000000000000000e+00  7.7309101280117857e-07 -1.3394122220086807e-09 0.0000000000000000e+00  7.6959615477836158e-07 1.3178085069061830e-09 0.0000000000000000e+00  7.6981302416331456e-07 9.5502933441527491e-12 0.0000000000000000e+00  8.2770097259778616e-07 -3.0377109907364013e-08 0.0000000000000000e+00  8.3820775104731932e-07 -9.3482039168251871e-09 0.0000000000000000e+00  8.6170328576330215e-07 -1.7482207926975050e-09 0.0000000000000000e+00  8.5233539553935738e-07 6.9143562324273487e-09 0.0000000000000000e+00  8.4849806431924383e-07 6.6017989524126639e-09 0.0000000000000000e+00  8.4712354240938962e-07 -1.4648615609595524e-08 0.0000000000000000e+00  8.7903135522448353e-07 -2.0306747263001354e-09 0.0000000000000000e+00  8.8856755854860853e-07 -1.6402243185876455e-09 0.0000000000000000e+00  8.6726585504521394e-07 6.8015657102933950e-10 0.0000000000000000e+00  8.8193064357792048e-07 6.7948026255469328e-10 0.0000000000000000e+00  8.8820555395796922e-07 -1.1958837221236773e-09 0.0000000000000000e+00  8.6680402840034452e-07 6.7927464103309550e-10 0.0000000000000000e+00  8.7824679460899153e-07 1.7094116012569815e-09 0.0000000000000000e+00  8.7205845086574796e-07 3.0128830697824398e-09 0.0000000000000000e+00  8.2715119632999248e-07 2.5010683468709996e-08 0.0000000000000000e+00  8.0315705335644285e-07 3.3802599636903558e-10 0.0000000000000000e+00  7.9909278822241814e-07 9.1920329154722076e-09 0.0000000000000000e+00  7.9524260160148961e-07 -1.1539523779768446e-08 0.0000000000000000e+00  8.0087830128597673e-07 1.9838412351543245e-10 0.0000000000000000e+00  8.1333365819424046e-07 4.0821895293333025e-10 0.0000000000000000e+00  8.3180418923358964e-07 -2.3524507468429845e-08 0.0000000000000000e+00  8.7459561066472162e-07 -3.4035655030948539e-09 0.0000000000000000e+00  8.8811431298432603e-07 -2.3803028815306760e-09 0.0000000000000000e+00  8.6799429608472855e-07 3.9949800848558506e-10 0.0000000000000000e+00  8.7903305413109213e-07 3.8496753448554458e-09 0.0000000000000000e+00  8.5227145258153658e-07 1.2760255128801883e-08 0.0000000000000000e+00  8.0082257910554621e-07 2.3075977898852554e-08 0.0000000000000000e+00  7.7372524902154948e-07 4.4984772351298361e-09 0.0000000000000000e+00  7.6980636421618867e-07 6.7957268373098979e-12 0.0000000000000000e+00  7.6976914354105553e-07 2.2894142165466145e-11 0.0000000000000000e+00  7.7229037220108468e-07 -1.0422612661313041e-09 0.0000000000000000e+00  7.7909584160685361e-07 -4.3867010531756685e-09 0.0000000000000000e+00  7.9950993773227817e-07 -1.0093113144407758e-08 0.0000000000000000e+00  8.3145534347190789e-07 -2.3314629481461863e-08 0.0000000000000000e+00  8.7123616132887421e-07 -6.5715879594126448e-10 0.0000000000000000e+00  8.5016514546972753e-07 1.1790990745685369e-08 0.0000000000000000e+00  8.2109345990374864e-07 1.5259721694930327e-08 0.0000000000000000e+00  8.1355179237671130e-07 -7.7015774391898117e-09 0.0000000000000000e+00  8.3186132995188010e-07 -1.8819677777178033e-08 0.0000000000000000e+00  8.6650136003492036e-07 5.1146712458919978e-10 0.0000000000000000e+00  8.5027212361758414e-07 1.1034638811476836e-08 0.0000000000000000e+00  8.2137064402654189e-07 9.0693244746881137e-09 0.0000000000000000e+00  7.8972829572711476e-07 1.8689288751697247e-08 0.0000000000000000e+00  7.7945908593811952e-07 -7.7717352086949586e-09 0.0000000000000000e+00  7.7816210669295595e-07 7.7461882507113124e-09 0.0000000000000000e+00  7.6979858733868473e-07 -2.1452720869397307e-15 0.0000000000000000e+00  7.6979857990728955e-07 2.1452691223244153e-15 0.0000000000000000e+00  7.8279959160097733e-07 -1.1164053940691802e-08 0.0000000000000000e+00  7.8279996154057591e-07 1.1164047077149738e-08 0.0000000000000000e+00  7.7254898725911791e-07 -2.2958172191310042e-09 0.0000000000000000e+00  8.0286820221423203e-07 -1.1844920643508809e-08 0.0000000000000000e+00  8.1663308509172996e-07 -6.7797993724196054e-09 0.0000000000000000e+00  8.2490623261370108e-07 -1.7009952146977901e-08 0.0000000000000000e+00  8.4762898991226090e-07 -3.5397078355429319e-09 0.0000000000000000e+00  1.0399979707741666e-06 -6.0008932295562045e-08 0.0000000000000000e+00  -1.0889467784954476e-07 9.7355142534230101e-07 0.0000000000000000e+00  5.7272724157079683e-08 8.3137487340101802e-07 0.0000000000000000e+00  1.2824216961833307e-09 9.4846991039014328e-07 0.0000000000000000e+00  3.4768404425284146e-08 1.0652320530060680e-06 0.0000000000000000e+00  -1.8331468229517829e-08 9.0467690926047786e-07 0.0000000000000000e+00  -8.8319561180544208e-08 8.9847333751469037e-07 0.0000000000000000e+00  1.3362744456003326e-07 9.2525165280423567e-07 0.0000000000000000e+00  -1.4551186932427009e-07 9.3021533867479955e-07 0.0000000000000000e+00  1.2217604968195852e-08 7.1190833698145387e-07 0.0000000000000000e+00  8.0039871427589619e-09 7.6812909413832480e-07 0.0000000000000000e+00  -1.1953153864960241e-08 7.8482806663997060e-07 0.0000000000000000e+00  -1.1357971768208977e-08 7.5928467072110949e-07 0.0000000000000000e+00  -3.3559694866992954e-08 6.6893958481619754e-07 0.0000000000000000e+00  5.7006724575217937e-08 7.0395880200274079e-07 0.0000000000000000e+00  1.3394823868343464e-09 8.0120404581579099e-07 0.0000000000000000e+00  -1.5349358622892772e-09 7.9179052630199777e-07 0.0000000000000000e+00  -1.1702072085428068e-09 7.8628948853802228e-07 0.0000000000000000e+00  2.4500582337447478e-09 7.9012307559566916e-07 0.0000000000000000e+00  -9.8629721892156640e-10 8.0112533073982285e-07 0.0000000000000000e+00  -5.6193825934897403e-08 7.0669517379815915e-07 0.0000000000000000e+00  4.2654913806570669e-08 6.8929152624226103e-07 0.0000000000000000e+00  -3.4997325460939256e-09 7.6134512143376802e-07 0.0000000000000000e+00  9.4885666523757767e-09 7.6769892075104916e-07 0.0000000000000000e+00  -8.7050060135256532e-09 7.6496535456935096e-07 0.0000000000000000e+00  -2.7515787174737644e-08 6.8693030424921018e-07 0.0000000000000000e+00  1.1995989514874371e-07 8.3007887556786373e-07 0.0000000000000000e+00  -1.0485010447494810e-07 8.5236423493504872e-07 0.0000000000000000e+00  7.4089045160608432e-08 7.8606613134714443e-07 0.0000000000000000e+00  4.6290091766180832e-09 9.4543461308335320e-07 0.0000000000000000e+00  3.5521943127774229e-08 1.0669249502752755e-06 0.0000000000000000e+00  -2.2976505406753571e-08 9.0786790012706113e-07 0.0000000000000000e+00  -9.2195468305142894e-08 8.8000423005150419e-07 0.0000000000000000e+00  9.6238598860250119e-08 8.6414870487096647e-07 0.0000000000000000e+00  -1.2854849133147311e-07 8.1655080354934988e-07 0.0000000000000000e+00  4.2365765281714600e-08 6.8006839297926090e-07 0.0000000000000000e+00  -1.0208513494852572e-08 7.5373030100754727e-07 0.0000000000000000e+00  1.3774538450323737e-08 7.6402474318832728e-07 0.0000000000000000e+00  -3.3825292325597083e-09 7.7564416563546831e-07 0.0000000000000000e+00  4.9794870323068698e-12 7.6981042980675563e-07 0.0000000000000000e+00  -8.5028138319328281e-14 7.6981319263737548e-07 0.0000000000000000e+00  -5.1058967831703286e-08 7.3886847964460386e-07 0.0000000000000000e+00  4.4608414697829514e-08 6.9417803552404425e-07 0.0000000000000000e+00  -1.3495183972799928e-09 7.7712981885219741e-07 0.0000000000000000e+00  2.8431144584215370e-08 7.9940206428122107e-07 0.0000000000000000e+00  -9.7840187997473752e-09 8.4337386427801612e-07 0.0000000000000000e+00  -7.0849429698882142e-08 7.0508715998675711e-07 0.0000000000000000e+00  6.8382682346083444e-08 7.0222301650696995e-07 0.0000000000000000e+00  2.5256150549198706e-08 8.4805213700348861e-07 0.0000000000000000e+00  8.9003108728786686e-10 8.7224301523561615e-07 0.0000000000000000e+00  5.5175838258218985e-09 8.9118695520135375e-07 0.0000000000000000e+00  -8.5757662038327537e-08 7.5692149850393035e-07 0.0000000000000000e+00  6.3412811244121714e-08 7.2727557217613184e-07 0.0000000000000000e+00  2.2399803585398197e-08 8.6747230767619294e-07 0.0000000000000000e+00  6.7042554549490228e-09 9.0138648341607725e-07 0.0000000000000000e+00  -1.1937547094151612e-08 8.9441612402953636e-07 0.0000000000000000e+00  -5.8494704086143893e-08 7.4355789919772494e-07 0.0000000000000000e+00  1.1921494080202966e-07 8.5720282300986105e-07 0.0000000000000000e+00  -1.0441473535901755e-07 8.8261195863462291e-07 0.0000000000000000e+00  8.6390710638823887e-08 8.6794544068779146e-07 0.0000000000000000e+00  -1.2902609052514348e-07 8.0525081162439840e-07 0.0000000000000000e+00  4.4067969556719063e-08 6.6278629582676152e-07 0.0000000000000000e+00  5.1121146963932889e-09 7.7572583800390394e-07 0.0000000000000000e+00  8.5971693398797109e-10 7.8270715305589596e-07 0.0000000000000000e+00  -5.9699008591359374e-09 7.7673798054060844e-07 0.0000000000000000e+00  8.6022563644583078e-10 7.7032610109245511e-07 0.0000000000000000e+00  -8.8479837449240970e-10 7.7126075058444580e-07 0.0000000000000000e+00  5.5561572386076864e-09 7.7618443229669197e-07 0.0000000000000000e+00  2.5398002000747355e-08 8.1308129068268780e-07 0.0000000000000000e+00  -9.2300128840075512e-09 8.4362989214633539e-07 0.0000000000000000e+00  -7.0488122644817709e-08 7.1665669404991892e-07 0.0000000000000000e+00  5.3574227155445319e-08 7.1923130428371811e-07 0.0000000000000000e+00  -3.3606799601576117e-12 7.6981191312572080e-07 0.0000000000000000e+00  3.0622306700318099e-08 7.9801294100171192e-07 0.0000000000000000e+00  -1.6237331512317235e-09 8.5194946640645005e-07 0.0000000000000000e+00  -1.9515982842836999e-08 8.1723086948539101e-07 0.0000000000000000e+00  -1.0167031125485570e-08 7.8164269094210405e-07 0.0000000000000000e+00  -4.0497019062216964e-08 7.0970967450952717e-07 0.0000000000000000e+00  1.0959203501655826e-07 8.1056981584318297e-07 0.000