<?xml version="1.0"?>
<VTKFile type="UnstructuredGrid"  version="0.1"  >
<UnstructuredGrid>
<Piece  NumberOfPoints="11902" NumberOfCells="23402">
<Points>
<DataArray  type="Float64"  NumberOfComponents="3"  format="ascii">-5 -5 0  5 -5 0  5 5 0  -5 5 0  1.029565845820408 0.0001909321706741674 0  -4.9 -5 0  -4.8 -5 0  -4.7 -5 0  -4.6 -5 0  -4.5 -5 0  -4.4 -5 0  -4.3 -5 0  -4.2 -5 0  -4.1 -5 0  -4 -5 0  -3.9 -5 0  -3.8 -5 0  -3.7 -5 0  -3.6 -5 0  -3.5 -5 0  -3.4 -5 0  -3.3 -5 0  -3.2 -5 0  -3.1 -5 0  -3 -5 0  -2.9 -5 0  -2.8 -5 0  -2.7 -5 0  -2.6 -5 0  -2.5 -5 0  -2.4 -5 0  -2.3 -5 0  -2.2 -5 0  -2.1 -5 0  -2 -5 0  -1.9 -5 0  -1.8 -5 0  -1.7 -5 0  -1.6 -5 0  -1.5 -5 0  -1.4 -5 0  -1.3 -5 0  -1.2 -5 0  -1.1 -5 0  -1 -5 0  -0.9000000000000004 -5 0  -0.7999999999999998 -5 0  -0.7000000000000002 -5 0  -0.5999999999999996 -5 0  -0.5 -5 0  -0.4000000000000004 -5 0  -0.2999999999999998 -5 0  -0.2000000000000002 -5 0  -0.09999999999999964 -5 0  0 -5 0  0.09999999999999964 -5 0  0.2000000000000002 -5 0  0.2999999999999998 -5 0  0.4000000000000004 -5 0  0.5 -5 0  0.5999999999999996 -5 0  0.7000000000000002 -5 0  0.7999999999999998 -5 0  0.9000000000000004 -5 0  1 -5 0  1.1 -5 0  1.2 -5 0  1.3 -5 0  1.4 -5 0  1.5 -5 0  1.6 -5 0  1.7 -5 0  1.8 -5 0  1.9 -5 0  2 -5 0  2.1 -5 0  2.2 -5 0  2.3 -5 0  2.4 -5 0  2.5 -5 0  2.6 -5 0  2.7 -5 0  2.8 -5 0  2.9 -5 0  3 -5 0  3.1 -5 0  3.199999999999999 -5 0  3.300000000000001 -5 0  3.4 -5 0  3.5 -5 0  3.6 -5 0  3.699999999999999 -5 0  3.800000000000001 -5 0  3.9 -5 0  4 -5 0  4.1 -5 0  4.199999999999999 -5 0  4.300000000000001 -5 0  4.4 -5 0  4.5 -5 0  4.6 -5 0  4.699999999999999 -5 0  4.800000000000001 -5 0  4.9 -5 0  5 -4.9 0  5 -4.8 0  5 -4.7 0  5 -4.6 0  5 -4.5 0  5 -4.4 0  5 -4.3 0  5 -4.2 0  5 -4.1 0  5 -4 0  5 -3.9 0  5 -3.8 0  5 -3.7 0  5 -3.6 0  5 -3.5 0  5 -3.4 0  5 -3.3 0  5 -3.2 0  5 -3.1 0  5 -3 0  5 -2.9 0  5 -2.8 0  5 -2.7 0  5 -2.6 0  5 -2.5 0  5 -2.4 0  5 -2.3 0  5 -2.2 0  5 -2.1 0  5 -2 0  5 -1.9 0  5 -1.8 0  5 -1.7 0  5 -1.6 0  5 -1.5 0  5 -1.4 0  5 -1.3 0  5 -1.2 0  5 -1.1 0  5 -1 0  5 -0.9000000000000004 0  5 -0.7999999999999998 0  5 -0.7000000000000002 0  5 -0.5999999999999996 0  5 -0.5 0  5 -0.4000000000000004 0  5 -0.2999999999999998 0  5 -0.2000000000000002 0  5 -0.09999999999999964 0  5 0 0  5 0.09999999999999964 0  5 0.2000000000000002 0  5 0.2999999999999998 0  5 0.4000000000000004 0  5 0.5 0  5 0.5999999999999996 0  5 0.7000000000000002 0  5 0.7999999999999998 0  5 0.9000000000000004 0  5 1 0  5 1.1 0  5 1.2 0  5 1.3 0  5 1.4 0  5 1.5 0  5 1.6 0  5 1.7 0  5 1.8 0  5 1.9 0  5 2 0  5 2.1 0  5 2.2 0  5 2.3 0  5 2.4 0  5 2.5 0  5 2.6 0  5 2.7 0  5 2.8 0  5 2.9 0  5 3 0  5 3.1 0  5 3.199999999999999 0  5 3.300000000000001 0  5 3.4 0  5 3.5 0  5 3.6 0  5 3.699999999999999 0  5 3.800000000000001 0  5 3.9 0  5 4 0  5 4.1 0  5 4.199999999999999 0  5 4.300000000000001 0  5 4.4 0  5 4.5 0  5 4.6 0  5 4.699999999999999 0  5 4.800000000000001 0  5 4.9 0  4.9 5 0  4.8 5 0  4.7 5 0  4.6 5 0  4.5 5 0  4.4 5 0  4.3 5 0  4.2 5 0  4.1 5 0  4 5 0  3.9 5 0  3.8 5 0  3.7 5 0  3.6 5 0  3.5 5 0  3.4 5 0  3.3 5 0  3.2 5 0  3.1 5 0  3 5 0  2.9 5 0  2.8 5 0  2.7 5 0  2.6 5 0  2.5 5 0  2.4 5 0  2.3 5 0  2.2 5 0  2.1 5 0  2 5 0  1.9 5 0  1.8 5 0  1.7 5 0  1.6 5 0  1.5 5 0  1.4 5 0  1.3 5 0  1.2 5 0  1.1 5 0  1 5 0  0.9000000000000004 5 0  0.7999999999999998 5 0  0.7000000000000002 5 0  0.5999999999999996 5 0  0.5 5 0  0.4000000000000004 5 0  0.2999999999999998 5 0  0.2000000000000002 5 0  0.09999999999999964 5 0  0 5 0  -0.09999999999999964 5 0  -0.2000000000000002 5 0  -0.2999999999999998 5 0  -0.4000000000000004 5 0  -0.5 5 0  -0.5999999999999996 5 0  -0.7000000000000002 5 0  -0.7999999999999998 5 0  -0.9000000000000004 5 0  -1 5 0  -1.1 5 0  -1.2 5 0  -1.3 5 0  -1.4 5 0  -1.5 5 0  -1.6 5 0  -1.7 5 0  -1.8 5 0  -1.9 5 0  -2 5 0  -2.1 5 0  -2.2 5 0  -2.3 5 0  -2.4 5 0  -2.5 5 0  -2.6 5 0  -2.7 5 0  -2.8 5 0  -2.9 5 0  -3 5 0  -3.1 5 0  -3.199999999999999 5 0  -3.300000000000001 5 0  -3.4 5 0  -3.5 5 0  -3.6 5 0  -3.699999999999999 5 0  -3.800000000000001 5 0  -3.9 5 0  -4 5 0  -4.1 5 0  -4.199999999999999 5 0  -4.300000000000001 5 0  -4.4 5 0  -4.5 5 0  -4.6 5 0  -4.699999999999999 5 0  -4.800000000000001 5 0  -4.9 5 0  -5 4.9 0  -5 4.8 0  -5 4.7 0  -5 4.6 0  -5 4.5 0  -5 4.4 0  -5 4.3 0  -5 4.2 0  -5 4.1 0  -5 4 0  -5 3.9 0  -5 3.8 0  -5 3.7 0  -5 3.6 0  -5 3.5 0  -5 3.4 0  -5 3.3 0  -5 3.2 0  -5 3.1 0  -5 3 0  -5 2.9 0  -5 2.8 0  -5 2.7 0  -5 2.6 0  -5 2.5 0  -5 2.4 0  -5 2.3 0  -5 2.2 0  -5 2.1 0  -5 2 0  -5 1.9 0  -5 1.8 0  -5 1.7 0  -5 1.6 0  -5 1.5 0  -5 1.4 0  -5 1.3 0  -5 1.2 0  -5 1.1 0  -5 1 0  -5 0.9000000000000004 0  -5 0.7999999999999998 0  -5 0.7000000000000002 0  -5 0.5999999999999996 0  -5 0.5 0  -5 0.4000000000000004 0  -5 0.2999999999999998 0  -5 0.2000000000000002 0  -5 0.09999999999999964 0  -5 0 0  -5 -0.09999999999999964 0  -5 -0.2000000000000002 0  -5 -0.2999999999999998 0  -5 -0.4000000000000004 0  -5 -0.5 0  -5 -0.5999999999999996 0  -5 -0.7000000000000002 0  -5 -0.7999999999999998 0  -5 -0.9000000000000004 0  -5 -1 0  -5 -1.1 0  -5 -1.2 0  -5 -1.3 0  -5 -1.4 0  -5 -1.5 0  -5 -1.6 0  -5 -1.7 0  -5 -1.8 0  -5 -1.9 0  -5 -2 0  -5 -2.1 0  -5 -2.2 0  -5 -2.3 0  -5 -2.4 0  -5 -2.5 0  -5 -2.6 0  -5 -2.7 0  -5 -2.8 0  -5 -2.9 0  -5 -3 0  -5 -3.1 0  -5 -3.199999999999999 0  -5 -3.300000000000001 0  -5 -3.4 0  -5 -3.5 0  -5 -3.6 0  -5 -3.699999999999999 0  -5 -3.800000000000001 0  -5 -3.9 0  -5 -4 0  -5 -4.1 0  -5 -4.199999999999999 0  -5 -4.300000000000001 0  -5 -4.4 0  -5 -4.5 0  -5 -4.6 0  -5 -4.699999999999999 0  -5 -4.800000000000001 0  -5 -4.9 0  1.024486353644486 0.09997395365562291 0  1.009151645374242 0.1989284652462016 0  0.9835793996742063 0.2959904926069808 0  0.9485872474801611 0.3898392165016195 0  0.9041221617328431 0.480120907432511 0  0.8507794413817242 0.5655233459068039 0  0.7888376100026107 0.645177461329646 0  0.7188327857376132 0.7183954305917886 0  0.6419224336030138 0.7845938303188444 0  0.5586490351414896 0.8430739280164389 0  0.4697142302642752 0.893001037452123 0  0.376030373915558 0.9341074946760889 0  0.2789528993760748 0.9660527215208857 0  0.1788591742185247 0.9881804823692114 0  0.07715045591651053 1.000661407866293 0  -0.02541975812192513 1.003174957150472 0  -0.1277529364229003 0.9956073390471832 0  -0.2288161843438918 0.9783886522206738 0  -0.3275663520790797 0.9513798840489394 0  -0.4230366652170375 0.9147975473136287 0  -0.5142643884862687 0.8692773423007203 0  -0.6004234623272231 0.8150157823943559 0  -0.6806287767050305 0.7527085182086775 0  -0.7540704682776234 0.682988333362465 0  -0.820061909454006 0.6062254203391569 0  -0.8777930775442159 0.5234822124365683 0  -0.9269963843264999 0.4356819502369715 0  -0.9668176149524832 0.3434179147038685 0  -0.9969789966281166 0.2478294461376409 0  -1.017349489590294 0.1497963375669712 0  -1.027624605459903 0.05018276797732159 0  -1.027631003974817 -0.04994928227369339 0  -1.017364921211328 -0.1495296679063359 0  -0.9973603128782615 -0.2475364741426307 0  -0.9668226929876067 -0.3432324083615051 0  -0.9270474295198502 -0.435361918548369 0  -0.877903651937608 -0.5232210689551161 0  -0.820184355002796 -0.6058845878944948 0  -0.7541775167283861 -0.6824926585812182 0  -0.6806116297921083 -0.7521815703707025 0  -0.6002791207209107 -0.8143402601159546 0  -0.5143544163113541 -0.8687765558038442 0  -0.4227952847063494 -0.9142667894668889 0  -0.3272979228096193 -0.950932220887583 0  -0.2284711857514534 -0.977993818371785 0  -0.1274571178957987 -0.9953241232284242 0  -0.02521768291516902 -1.003053398156372 0  0.07720597214921306 -1.00045483576628 0  0.1790814958360961 -0.987883413325542 0  0.279021201800137 -0.9657134612494342 0  0.3764384076771331 -0.9337749161096537 0  0.4698265534939884 -0.8926778625545765 0  0.5587651484908537 -0.8427586811005623 0  0.6420078077522506 -0.7846308943963864 0  0.718909122147532 -0.7184560764841317 0  0.7887462589300817 -0.6450531798909165 0  0.8506279580030992 -0.5652725253848582 0  0.9042217029779658 -0.4799542015618383 0  0.9489156192467352 -0.3898374922005715 0  0.983839548179872 -0.295900871518121 0  1.009170253157432 -0.1988087698809254 0  1.024508773297163 -0.09992832510051794 0  -2.449765287209145 4.920343358193425 0  -2.449746090327698 -4.912923139669407 0  4.912904747072484 2.449646520331981 0  4.920801297564274 -2.450949284343869 0  2.447690099827566 -4.898579327891947 0  2.442074115776887 4.902249008793525 0  -4.91291120083975 -2.449653712998925 0  -4.912914781895544 2.449657228753833 0  -1.749756019698844 4.91420363777947 0  -1.745488447433369 -4.917516416320454 0  4.923729848441074 1.745651969344404 0  4.912702243027591 -1.749644774870286 0  -4.91295703995754 -1.749351950273452 0  -4.913754450715299 1.74907782486988 0  1.747105393572403 4.908298015229238 0  1.748676634763476 -4.896862169689104 0  -1.149811529676311 4.912651931101011 0  -1.130569503695159 -4.920237665422278 0  -4.913551234800232 -1.149361756888188 0  -4.913384093412926 1.149159969381144 0  1.144742398451777 -4.916586014381833 0  1.149809627527451 4.912649982225188 0  4.913727607426596 1.147648322385233 0  4.924024991205568 -1.153263708118152 0  -0.5471732739591413 -4.914165472605175 0  -0.5469069764424443 4.922462387125809 0  -4.912987286899527 -0.5495047585286069 0  -4.913014098784799 0.5480535001474522 0  4.912391304949415 -0.5498384782398767 0  4.923405352215045 0.5464868345716425 0  0.5430032485745532 -4.901658757268006 0  0.5516438216079754 4.919435021801538 0  -4.913540681811723 -3.049713193437835 0  4.920002138928132 3.047638283071581 0  4.913067240041612 -3.049712094065708 0  -4.9143808370161 3.04679337401298 0  3.056364120268495 -4.919006579252731 0  -3.049774460366128 -4.913053862103111 0  3.053317803788701 4.915102772494567 0  -3.049213524967833 4.913930508982283 0  -4.912358590236311 -0.04998725269224885 0  0.04515071788207168 -4.916145499322085 0  0.0496022840800943 4.922851151474589 0  4.919056097672286 -0.05136433939828292 0  3.546463433302681 -4.920165512805325 0  -3.549817
[...]
<PointData  Vectors="f_378"> 
<DataArray  type="Float64"  Name="f_378"  NumberOfComponents="3" format="ascii">-4.5528282161733328e-07 -4.5528645722069672e-07 0.0000000000000000e+00  4.5528236052067313e-07 -4.5528613878119876e-07 0.0000000000000000e+00  5.0323575057441284e-07 5.0323839229617210e-07 0.0000000000000000e+00  -4.5528271205161673e-07 4.5528629600873869e-07 0.0000000000000000e+00  -9.5402820557505252e-01 -2.0307922080271653e-02 0.0000000000000000e+00  9.1021256800821087e-08 -9.0663108672222183e-07 0.0000000000000000e+00  -1.0679680887125215e-07 -8.6130809665591855e-07 0.0000000000000000e+00  1.0463307951205016e-07 -8.7462440117140438e-07 0.0000000000000000e+00  -9.1616832203509954e-08 -8.8309756838717127e-07 0.0000000000000000e+00  -2.1457693123849376e-08 -9.0770480373833995e-07 0.0000000000000000e+00  3.5698556047676505e-08 -1.0655795491397298e-06 0.0000000000000000e+00  5.8615319140438107e-09 -9.4086317662490311e-07 0.0000000000000000e+00  7.3298725483879253e-08 -7.8298315611960333e-07 0.0000000000000000e+00  -1.0527580470842000e-07 -8.5047435627886357e-07 0.0000000000000000e+00  1.2012402069311739e-07 -8.3024024048421144e-07 0.0000000000000000e+00  -2.6829618623139084e-08 -6.8545747307924050e-07 0.0000000000000000e+00  -5.5870546619435358e-09 -7.5833181915349669e-07 0.0000000000000000e+00  -1.3221749381022313e-08 -7.7340899264466077e-07 0.0000000000000000e+00  1.0150272052981595e-08 -7.8273299078997613e-07 0.0000000000000000e+00  7.2447811366887071e-11 -7.6751914472327968e-07 0.0000000000000000e+00  7.6448200379107550e-11 -7.6734993232622978e-07 0.0000000000000000e+00  5.0306867143736511e-08 -7.3305354069791189e-07 0.0000000000000000e+00  -4.4806057251796246e-08 -6.9547136158535009e-07 0.0000000000000000e+00  7.9824161332176612e-11 -7.6681928342859504e-07 0.0000000000000000e+00  3.9672805901393981e-08 -6.6875071685856975e-07 0.0000000000000000e+00  -1.2872638281368041e-07 -8.1825893154558203e-07 0.0000000000000000e+00  9.7103782839413036e-08 -8.5976730216657155e-07 0.0000000000000000e+00  -9.4540762404315570e-08 -8.6176065681903941e-07 0.0000000000000000e+00  1.2483983094576154e-07 -8.0983091442175483e-07 0.0000000000000000e+00  -3.8160856869973935e-08 -6.5721401395843402e-07 0.0000000000000000e+00  8.0447436128812349e-11 -7.6549888687076205e-07 0.0000000000000000e+00  3.5335145841839009e-08 -6.9626326587410301e-07 0.0000000000000000e+00  -1.2142966467021518e-07 -8.2621303937273663e-07 0.0000000000000000e+00  1.0001739542709550e-07 -8.5995377103723889e-07 0.0000000000000000e+00  -9.5205140983425544e-08 -8.8368637217521662e-07 0.0000000000000000e+00  7.1718629267278506e-10 -8.8488632424796660e-07 0.0000000000000000e+00  6.7561195785443433e-08 -9.9361645772419664e-07 0.0000000000000000e+00  1.1226325542425167e-08 -8.0755832899636659e-07 0.0000000000000000e+00  7.7015429092363251e-09 -7.7876190977832276e-07 0.0000000000000000e+00  3.9982778167624045e-10 -7.6427737264061844e-07 0.0000000000000000e+00  9.7213430494143255e-09 -7.4182000850552820e-07 0.0000000000000000e+00  4.0371092328722873e-08 -6.5087486802709201e-07 0.0000000000000000e+00  -8.0110936585422164e-08 -6.9450937900573983e-07 0.0000000000000000e+00  -8.9304995567825159e-08 -9.8807428932374608e-07 0.0000000000000000e+00  9.7758003133215524e-08 -9.8398199352381749e-07 0.0000000000000000e+00  5.2088416985408018e-08 -7.1785449875387991e-07 0.0000000000000000e+00  -9.5670994233475488e-08 -8.4727432827207489e-07 0.0000000000000000e+00  -1.0849942822050474e-08 -7.7143358794161551e-07 0.0000000000000000e+00  5.7933713706619143e-08 -9.3816839663829893e-07 0.0000000000000000e+00  1.7622844715931214e-09 -7.7785886611830517e-07 0.0000000000000000e+00  4.4958965533647278e-09 -7.7515109665281333e-07 0.0000000000000000e+00  2.3959007807987013e-11 -7.6249932376100287e-07 0.0000000000000000e+00  -4.0521760159107119e-10 -7.6349974303616110e-07 0.0000000000000000e+00  -1.8797225887613900e-09 -7.6812837482300158e-07 0.0000000000000000e+00  -1.2192751481436777e-08 -7.9784873487959795e-07 0.0000000000000000e+00  -7.2646090517813167e-08 -9.8786573213573946e-07 0.0000000000000000e+00  7.8042756735367238e-09 -8.5613323015588116e-07 0.0000000000000000e+00  9.1615241262978178e-08 -8.4751489607658678e-07 0.0000000000000000e+00  -1.0586575781987971e-07 -8.3911234667040640e-07 0.0000000000000000e+00  1.1980496451688286e-07 -8.2174219822148840e-07 0.0000000000000000e+00  -2.7825416041362471e-08 -6.8024301756887479e-07 0.0000000000000000e+00  -9.2814805895633694e-09 -7.5893137948348329e-07 0.0000000000000000e+00  -6.5337639165837073e-09 -7.7033693364130801e-07 0.0000000000000000e+00  5.3656218864369711e-09 -7.7166963158173906e-07 0.0000000000000000e+00  -4.9651733746024226e-09 -7.7447137703128971e-07 0.0000000000000000e+00  -9.9086922113455538e-09 -8.0536402415958428e-07 0.0000000000000000e+00  4.7755118542521398e-08 -7.3118814218668824e-07 0.0000000000000000e+00  -8.6641072389816802e-08 -7.7994048194775706e-07 0.0000000000000000e+00  1.3247354531907918e-08 -8.9476875924062952e-07 0.0000000000000000e+00  6.1089959183349106e-09 -8.5663140719902806e-07 0.0000000000000000e+00  1.5869498102482121e-08 -8.4870179761851953e-07 0.0000000000000000e+00  7.2850764593959500e-08 -7.0379316224222581e-07 0.0000000000000000e+00  -6.8068208728621299e-08 -6.9940856750937436e-07 0.0000000000000000e+00  -1.4393865220623604e-08 -8.2717822551997743e-07 0.0000000000000000e+00  2.7840545988418610e-08 -8.0770570680468073e-07 0.0000000000000000e+00  2.0532764192042493e-09 -7.7198993308832435e-07 0.0000000000000000e+00  3.4240324775512216e-10 -7.6631084222115905e-07 0.0000000000000000e+00  -5.3566248680656477e-09 -7.8965624243334514e-07 0.0000000000000000e+00  5.3838892074293910e-08 -7.0072786893395314e-07 0.0000000000000000e+00  -3.3165762884663661e-08 -6.7075219798530612e-07 0.0000000000000000e+00  -1.6336951385402271e-08 -7.5906971616702866e-07 0.0000000000000000e+00  -4.3460505801982784e-08 -8.1911339426248726e-07 0.0000000000000000e+00  -6.0274849288172477e-09 -8.9194168976547174e-07 0.0000000000000000e+00  8.6064626721631642e-08 -7.5716997616194811e-07 0.0000000000000000e+00  -6.2167955867958605e-08 -7.2586308943135783e-07 0.0000000000000000e+00  -4.5492825737910377e-09 -8.3941484646541573e-07 0.0000000000000000e+00  4.1725799800828727e-08 -7.9630322814102777e-07 0.0000000000000000e+00  -1.8799300643143790e-08 -7.6508787443234610e-07 0.0000000000000000e+00  -2.5129784613837919e-08 -8.0345052940575517e-07 0.0000000000000000e+00  3.2047392358586675e-09 -8.5958832752664644e-07 0.0000000000000000e+00  7.5265428031622648e-08 -7.2247455736632766e-07 0.0000000000000000e+00  -7.2928419336559529e-08 -7.1896742314058831e-07 0.0000000000000000e+00  -7.9527157612681783e-09 -8.5078134178127581e-07 0.0000000000000000e+00  3.3531276230049628e-08 -8.1549554822864840e-07 0.0000000000000000e+00  1.6219117413929538e-08 -7.5013163291135038e-07 0.0000000000000000e+00  -1.2211134628306871e-08 -7.4425108392451753e-07 0.0000000000000000e+00  -6.7343450041433610e-09 -7.8115683025313487e-07 0.0000000000000000e+00  5.2453798749881375e-08 -6.9920931090170586e-07 0.0000000000000000e+00  -6.5654628953690133e-08 -7.1099214397750972e-07 0.0000000000000000e+00  -1.8506501701352900e-08 -8.4271724730625936e-07 0.0000000000000000e+00  2.8615770672037379e-08 -8.2024961962019297e-07 0.0000000000000000e+00  3.5107810346647014e-09 -7.8167644495166541e-07 0.0000000000000000e+00  -6.5505925428299507e-09 -7.9540114651158965e-07 0.0000000000000000e+00  -6.0040464685493060e-08 -9.4877172616407923e-07 0.0000000000000000e+00  8.9163011089385230e-07 8.8091588225506303e-08 0.0000000000000000e+00  8.8649452222061347e-07 -1.2442068287635144e-07 0.0000000000000000e+00  9.1829676337012796e-07 1.1021508046406768e-07 0.0000000000000000e+00  7.5846478949060782e-07 -2.5232895708753060e-08 0.0000000000000000e+00  8.0388571428837120e-07 1.6628863264627561e-08 0.0000000000000000e+00  7.8251079923640247e-07 3.1079382782176236e-10 0.0000000000000000e+00  7.8237483548278972e-07 -4.2770251703223286e-10 0.0000000000000000e+00  7.8258615934333486e-07 5.6015174025477439e-10 0.0000000000000000e+00  7.8721671336483437e-07 -6.6343759796994186e-09 0.0000000000000000e+00  7.9626914687295639e-07 3.5798098969691178e-09 0.0000000000000000e+00  7.9990627199568548e-07 -7.0099238377751351e-09 0.0000000000000000e+00  7.9860140194931595e-07 1.1665556916743836e-08 0.0000000000000000e+00  7.9174492779847276e-07 -1.3101443367910109e-08 0.0000000000000000e+00  7.9234138021070060e-07 8.8651066890694364e-09 0.0000000000000000e+00  8.0758191800915278e-07 -1.4489539514531264e-08 0.0000000000000000e+00  7.9631415387825468e-07 2.2658024323778713e-08 0.0000000000000000e+00  7.7999571375174159e-07 -3.7503024631175941e-09 0.0000000000000000e+00  7.8980817258018701e-07 -1.1504445761017381e-08 0.0000000000000000e+00  7.7949001269088728e-07 1.5989260402395378e-08 0.0000000000000000e+00  7.8592918881620133e-07 -1.8406879598884029e-08 0.0000000000000000e+00  8.0611129505189855e-07 5.7888613523104356e-09 0.0000000000000000e+00  7.8138693503791275e-07 1.3048595023623815e-08 0.0000000000000000e+00  8.1566997727124273e-07 -3.2346084196355662e-08 0.0000000000000000e+00  8.5027524636395812e-07 -8.5735132800025844e-09 0.0000000000000000e+00  8.4867526866722542e-07 8.6100549425078075e-09 0.0000000000000000e+00  8.0925244713196414e-07 2.1128859195651080e-08 0.0000000000000000e+00  7.7757806487298924e-07 1.0445480512773053e-08 0.0000000000000000e+00  7.6487884300812039e-07 1.0871743806608790e-10 0.0000000000000000e+00  7.6460324677825046e-07 1.2097474398701166e-10 0.0000000000000000e+00  7.6432734495672871e-07 1.1783298965932037e-10 0.0000000000000000e+00  7.6409548874134098e-07 1.1209876489828598e-10 0.0000000000000000e+00  7.6383323936986030e-07 1.2379095338948871e-10 0.0000000000000000e+00  7.7493708035731336e-07 -1.1654499402846213e-08 0.0000000000000000e+00  7.8981624003191788e-07 1.2491588265606416e-09 0.0000000000000000e+00  7.7741791207904176e-07 1.0879318086031565e-08 0.0000000000000000e+00  8.1138361733692752e-07 -3.1084516044158747e-08 0.0000000000000000e+00  8.4537689497492711e-07 -1.0175192076909511e-08 0.0000000000000000e+00  8.7503927506111390e-07 -6.3888954874472992e-09 0.0000000000000000e+00  8.7388179767830382e-07 1.7648497691477573e-08 0.0000000000000000e+00  7.5385186916470703e-07 2.5959016290801902e-10 0.0000000000000000e+00  8.4414230829018316e-07 3.3947169721924497e-08 0.0000000000000000e+00  7.6470521170268108e-07 -1.2582530380501642e-09 0.0000000000000000e+00  7.6108550395129893e-07 1.3914088371819674e-09 0.0000000000000000e+00  7.6114509370695529e-07 7.3834685687422686e-11 0.0000000000000000e+00  8.1817577991686083e-07 -3.0330407761668466e-08 0.0000000000000000e+00  8.2849060347467302e-07 -9.3057953032935553e-09 0.0000000000000000e+00  8.5162309581721427e-07 -1.7146927123577330e-09 0.0000000000000000e+00  8.4230412982119306e-07 6.9391520113734048e-09 0.0000000000000000e+00  8.3846432281092294e-07 6.6152932622764075e-09 0.0000000000000000e+00  8.3709344470549727e-07 -1.4652686862906019e-08 0.0000000000000000e+00  8.6863140914648381e-07 -2.0425251898178448e-09 0.0000000000000000e+00  8.7809604483827161e-07 -1.6630422072854792e-09 0.0000000000000000e+00  8.5712232779689750e-07 6.4691305953934330e-10 0.0000000000000000e+00  8.7170760677366985e-07 6.3543953994640288e-10 0.0000000000000000e+00  8.7803659754456043e-07 -1.2504542565243983e-09 0.0000000000000000e+00  8.5703227117123901e-07 6.1553222693569748e-10 0.0000000000000000e+00  8.6851159253324889e-07 1.6368227273236531e-09 0.0000000000000000e+00  8.6258207768236307e-07 2.9323997764427112e-09 0.0000000000000000e+00  8.1830773948480680e-07 2.4927439362477559e-08 0.0000000000000000e+00  7.9484989541786035e-07 2.4279437198519084e-10 0.0000000000000000e+00  7.9102346299637397e-07 9.0927298883829091e-09 0.0000000000000000e+00  7.8752011328020558e-07 -1.1647368925246021e-08 0.0000000000000000e+00  7.9331044138616588e-07 8.8442938498168009e-11 0.0000000000000000e+00  8.0590682298715703e-07 2.9507458815500287e-10 0.0000000000000000e+00  8.2457658202216620e-07 -2.3642384523782448e-08 0.0000000000000000e+00  8.6720720939369629e-07 -3.5210961650293082e-09 0.0000000000000000e+00  8.8091057190504520e-07 -2.4986211848499619e-09 0.0000000000000000e+00  8.6124280484181497e-07 2.8114065524584743e-10 0.0000000000000000e+00  8.7248302544944675e-07 3.7317880590461590e-09 0.0000000000000000e+00  8.4617575475432326e-07 1.2643395479160523e-08 0.0000000000000000e+00  7.9532069266341370e-07 2.2960313980085795e-08 0.0000000000000000e+00  7.6874142243495233e-07 4.3844716107297695e-09 0.0000000000000000e+00  7.6511951121128648e-07 -1.0492174632297107e-10 0.0000000000000000e+00  7.6533108113406953e-07 -8.6350318894819282e-11 0.0000000000000000e+00  7.6808603294480876e-07 -1.1487130308101588e-09 0.0000000000000000e+00  7.7510742644174287e-07 -4.4899576574933495e-09 0.0000000000000000e+00  7.9567823503250001e-07 -1.0192811575828555e-08 0.0000000000000000e+00  8.2775838794063969e-07 -2.3409932366412253e-08 0.0000000000000000e+00  8.6752476372029363e-07 -7.5118098837812500e-10 0.0000000000000000e+00  8.4673184788667323e-07 1.1699114181195641e-08 0.0000000000000000e+00  8.1798178275176887e-07 1.5170650239496367e-08 0.0000000000000000e+00  8.1074782179559080e-07 -7.7851757811872126e-09 0.0000000000000000e+00  8.2922849147225184e-07 -1.8898839217207585e-08 0.0000000000000000e+00  8.6390791961120704e-07 4.3325493035812885e-10 0.0000000000000000e+00  8.4789195510509720e-07 1.0958164131761849e-08 0.0000000000000000e+00  8.1925469405189878e-07 8.9958135189253581e-09 0.0000000000000000e+00  7.8783726595251848e-07 1.8617033770104913e-08 0.0000000000000000e+00  7.7781021565199290e-07 -7.8378129157630535e-09 0.0000000000000000e+00  7.7663705859219225e-07 7.6801589850914469e-09 0.0000000000000000e+00  7.6845098843669505e-07 -6.2762030609470030e-11 0.0000000000000000e+00  7.6859295529979016e-07 -6.0827079560108148e-11 0.0000000000000000e+00  7.8173088445325662e-07 -1.1221436162475886e-08 0.0000000000000000e+00  7.8183746757513044e-07 1.1104850867234740e-08 0.0000000000000000e+00  7.7174598120684967e-07 -2.3515941552136820e-09 0.0000000000000000e+00  8.0217980200183883e-07 -1.1898196042155097e-08 0.0000000000000000e+00  8.1605992711383288e-07 -6.8329725713518306e-09 0.0000000000000000e+00  8.2446174883106526e-07 -1.7060976429968074e-08 0.0000000000000000e+00  8.4729999031601326e-07 -3.5920643488665771e-09 0.0000000000000000e+00  1.0397961885556091e-06 -6.0054519045708379e-08 0.0000000000000000e+00  -1.0894402472598792e-07 9.7334775254700590e-07 0.0000000000000000e+00  5.7205510581210277e-08 8.3100226885652473e-07 0.0000000000000000e+00  1.2212542364218276e-09 9.4790374767759343e-07 0.0000000000000000e+00  3.4701624114179804e-08 1.0643970933805231e-06 0.0000000000000000e+00  -1.8409466600886376e-08 9.0379441798756260e-07 0.0000000000000000e+00  -8.8374249601326634e-08 8.9751871901834008e-07 0.0000000000000000e+00  1.3355273977774159e-07 9.2386563058425008e-07 0.0000000000000000e+00  -1.4555572297291844e-07 9.2897422813457355e-07 0.0000000000000000e+00  1.2149764981926865e-08 7.1063955369394745e-07 0.0000000000000000e+00  7.9357060378646405e-09 7.6662367145223745e-07 0.0000000000000000e+00  -1.2020298351876697e-08 7.8316752065952886e-07 0.0000000000000000e+00  -1.1426358181557185e-08 7.5752179529466182e-07 0.0000000000000000e+00  -3.3626326173041291e-08 6.6728223149770806e-07 0.0000000000000000e+00  5.6928357794743793e-08 7.0188549969135880e-07 0.0000000000000000e+00  1.2649572630281167e-09 7.9880695104446944e-07 0.0000000000000000e+00  -1.6106386706930862e-09 7.8925076745900253e-07 0.0000000000000000e+00  -1.2475656486748206e-09 7.8358813062438868e-07 0.0000000000000000e+00  2.3708298407066470e-09 7.8721793935603941e-07 0.0000000000000000e+00  -1.0665617208651278e-09 7.9800153165868032e-07 0.0000000000000000e+00  -5.6270303089301943e-08 7.0391211394248440e-07 0.0000000000000000e+00  4.2570385853923147e-08 6.8615035496085385e-07 0.0000000000000000e+00  -3.5834318999998644e-09 7.5783050064386592e-07 0.0000000000000000e+00  9.4035572237789086e-09 7.6392890671079631e-07 0.0000000000000000e+00  -8.7901331825036981e-09 7.6106944487333387e-07 0.0000000000000000e+00  -2.7601356999768768e-08 6.8331552759394668e-07 0.0000000000000000e+00  1.1987802723760061e-07 8.2505571985010285e-07 0.0000000000000000e+00  -1.0493328725525786e-07 8.4766166550549117e-07 0.0000000000000000e+00  7.4004397071833069e-08 7.8102983878569362e-07 0.0000000000000000e+00  4.5437991644770989e-09 9.3938768778870305e-07 0.0000000000000000e+00  3.5435787684000091e-08 1.0597519589219043e-06 0.0000000000000000e+00  -2.3078232968989027e-08 9.0169957575286260e-07 0.0000000000000000e+00  -9.2283720081957450e-08 8.7399821317164720e-07 0.0000000000000000e+00  9.6166465384346687e-08 8.5753356238199622e-07 0.0000000000000000e+00  -1.2862876037871755e-07 8.1070261628036525e-07 0.0000000000000000e+00  4.2294354218944314e-08 6.7466549736987151e-07 0.0000000000000000e+00  -1.0281268393920882e-08 7.4772046705035862e-07 0.0000000000000000e+00  1.3707854448366864e-08 7.5771916711032046e-07 0.0000000000000000e+00  -3.4475544097947142e-09 7.6913256340087934e-07 0.0000000000000000e+00  -5.5597206085423456e-11 7.6320128628244309e-07 0.0000000000000000e+00  -5.6308858174622982e-11 7.6307386655034633e-07 0.0000000000000000e+00  -5.1118055076039083e-08 7.3237150692212617e-07 0.0000000000000000e+00  4.4569500011567685e-08 6.8783370879073489e-07 0.0000000000000000e+00  -1.3909148860989751e-09 7.6999684004965732e-07 0.0000000000000000e+00  2.8399886036606090e-08 7.9193972247806347e-07 0.0000000000000000e+00  -9.8158864830951003e-09 8.3546001005217890e-07 0.0000000000000000e+00  -7.0886666312743090e-08 6.9847889996416053e-07 0.0000000000000000e+00  6.8378386935514594e-08 6.9550222720979744e-07 0.0000000000000000e+00  2.5248874680087077e-08 8.3991998788020252e-07 0.0000000000000000e+00  8.8440226538185348e-10 8.6386649305335884e-07 0.0000000000000000e+00  5.5187735617934460e-09 8.8261889736087550e-07 0.0000000000000000e+00  -8.5767401210379692e-08 7.4964533187919129e-07 0.0000000000000000e+00  6.3437795947389979e-08 7.2035347578055062e-07 0.0000000000000000e+00  2.2422673288293560e-08 8.5922022529926178e-07 0.0000000000000000e+00  6.7302574452630790e-09 8.9285824821045636e-07 0.0000000000000000e+00  -1.1908846351740385e-08 8.8600876458837057e-07 0.0000000000000000e+00  -5.8467996956988150e-08 7.3659755661247184e-07 0.0000000000000000e+00  1.1927167473278267e-07 8.4950674156390877e-07 0.0000000000000000e+00  -1.0438311855617530e-07 8.7446017295701806e-07 0.0000000000000000e+00  8.6454569096346703e-08 8.6037179922873895e-07 0.0000000000000000e+00  -1.2899358342900712e-07 7.9795639362892792e-07 0.0000000000000000e+00  4.4136159417118053e-08 6.5721859588745594e-07 0.0000000000000000e+00  5.1778845840230211e-09 7.6923634562314732e-07 0.0000000000000000e+00  9.2852281665927989e-10 7.7630155418370218e-07 0.0000000000000000e+00  -5.8983785256167785e-09 7.7052350881895297e-07 0.0000000000000000e+00  9.3540973050061882e-10 7.6434460430401669e-07 0.0000000000000000e+00  -8.0719679509348067e-10 7.6543844953344308e-07 0.0000000000000000e+00  5.6364836575655902e-09 7.7052032089217746e-07 0.0000000000000000e+00  2.5480992316171233e-08 8.0739363700540067e-07 0.0000000000000000e+00  -9.1472388702997633e-09 8.3783048592672434e-07 0.0000000000000000e+00  -7.0407110453082481e-08 7.1172554710332524e-07 0.0000000000000000e+00  5.3659881079819790e-08 7.1482148163618169e-07 0.0000000000000000e+00  8.2636667301996876e-11 7.6511633680722987e-07 0.0000000000000000e+00  3.0708005533703182e-08 7.9343584864905754e-07 0.0000000000000000e+00  -1.5376516530757976e-09 8.4717761487475720e-07 0.0000000000000000e+00  -1.9429876997568102e-08 8.1280615588754956e-07 0.0000000000000000e+00  -1.0081621003198819e-08 7.7763101529336715e-07 0.0000000000000000e+00  -4.0410606488650452e-08 7.0615313025255233e-07 0.0000000000000000e+00  1.0966734689163755e-07 8.0714922913912689e-07 0.0000