<?xml version="1.0"?>
<VTKFile type="UnstructuredGrid"  version="0.1"  >
<UnstructuredGrid>
<Piece  NumberOfPoints="11902" NumberOfCells="23402">
<Points>
<DataArray  type="Float64"  NumberOfComponents="3"  format="ascii">-5 -5 0  5 -5 0  5 5 0  -5 5 0  1.2155346580585 0.00134892282269759 0  -4.9 -5 0  -4.8 -5 0  -4.7 -5 0  -4.6 -5 0  -4.5 -5 0  -4.4 -5 0  -4.3 -5 0  -4.2 -5 0  -4.1 -5 0  -4 -5 0  -3.9 -5 0  -3.8 -5 0  -3.7 -5 0  -3.6 -5 0  -3.5 -5 0  -3.4 -5 0  -3.3 -5 0  -3.2 -5 0  -3.1 -5 0  -3 -5 0  -2.9 -5 0  -2.8 -5 0  -2.7 -5 0  -2.6 -5 0  -2.5 -5 0  -2.4 -5 0  -2.3 -5 0  -2.2 -5 0  -2.1 -5 0  -2 -5 0  -1.9 -5 0  -1.8 -5 0  -1.7 -5 0  -1.6 -5 0  -1.5 -5 0  -1.4 -5 0  -1.3 -5 0  -1.2 -5 0  -1.1 -5 0  -1 -5 0  -0.9000000000000004 -5 0  -0.7999999999999998 -5 0  -0.7000000000000002 -5 0  -0.5999999999999996 -5 0  -0.5 -5 0  -0.4000000000000004 -5 0  -0.2999999999999998 -5 0  -0.2000000000000002 -5 0  -0.09999999999999964 -5 0  0 -5 0  0.09999999999999964 -5 0  0.2000000000000002 -5 0  0.2999999999999998 -5 0  0.4000000000000004 -5 0  0.5 -5 0  0.5999999999999996 -5 0  0.7000000000000002 -5 0  0.7999999999999998 -5 0  0.9000000000000004 -5 0  1 -5 0  1.1 -5 0  1.2 -5 0  1.3 -5 0  1.4 -5 0  1.5 -5 0  1.6 -5 0  1.7 -5 0  1.8 -5 0  1.9 -5 0  2 -5 0  2.1 -5 0  2.2 -5 0  2.3 -5 0  2.4 -5 0  2.5 -5 0  2.6 -5 0  2.7 -5 0  2.8 -5 0  2.9 -5 0  3 -5 0  3.1 -5 0  3.199999999999999 -5 0  3.300000000000001 -5 0  3.4 -5 0  3.5 -5 0  3.6 -5 0  3.699999999999999 -5 0  3.800000000000001 -5 0  3.9 -5 0  4 -5 0  4.1 -5 0  4.199999999999999 -5 0  4.300000000000001 -5 0  4.4 -5 0  4.5 -5 0  4.6 -5 0  4.699999999999999 -5 0  4.800000000000001 -5 0  4.9 -5 0  5 -4.9 0  5 -4.8 0  5 -4.7 0  5 -4.6 0  5 -4.5 0  5 -4.4 0  5 -4.3 0  5 -4.2 0  5 -4.1 0  5 -4 0  5 -3.9 0  5 -3.8 0  5 -3.7 0  5 -3.6 0  5 -3.5 0  5 -3.4 0  5 -3.3 0  5 -3.2 0  5 -3.1 0  5 -3 0  5 -2.9 0  5 -2.8 0  5 -2.7 0  5 -2.6 0  5 -2.5 0  5 -2.4 0  5 -2.3 0  5 -2.2 0  5 -2.1 0  5 -2 0  5 -1.9 0  5 -1.8 0  5 -1.7 0  5 -1.6 0  5 -1.5 0  5 -1.4 0  5 -1.3 0  5 -1.2 0  5 -1.1 0  5 -1 0  5 -0.9000000000000004 0  5 -0.7999999999999998 0  5 -0.7000000000000002 0  5 -0.5999999999999996 0  5 -0.5 0  5 -0.4000000000000004 0  5 -0.2999999999999998 0  5 -0.2000000000000002 0  5 -0.09999999999999964 0  5 0 0  5 0.09999999999999964 0  5 0.2000000000000002 0  5 0.2999999999999998 0  5 0.4000000000000004 0  5 0.5 0  5 0.5999999999999996 0  5 0.7000000000000002 0  5 0.7999999999999998 0  5 0.9000000000000004 0  5 1 0  5 1.1 0  5 1.2 0  5 1.3 0  5 1.4 0  5 1.5 0  5 1.6 0  5 1.7 0  5 1.8 0  5 1.9 0  5 2 0  5 2.1 0  5 2.2 0  5 2.3 0  5 2.4 0  5 2.5 0  5 2.6 0  5 2.7 0  5 2.8 0  5 2.9 0  5 3 0  5 3.1 0  5 3.199999999999999 0  5 3.300000000000001 0  5 3.4 0  5 3.5 0  5 3.6 0  5 3.699999999999999 0  5 3.800000000000001 0  5 3.9 0  5 4 0  5 4.1 0  5 4.199999999999999 0  5 4.300000000000001 0  5 4.4 0  5 4.5 0  5 4.6 0  5 4.699999999999999 0  5 4.800000000000001 0  5 4.9 0  4.9 5 0  4.8 5 0  4.7 5 0  4.6 5 0  4.5 5 0  4.4 5 0  4.3 5 0  4.2 5 0  4.1 5 0  4 5 0  3.9 5 0  3.8 5 0  3.7 5 0  3.6 5 0  3.5 5 0  3.4 5 0  3.3 5 0  3.2 5 0  3.1 5 0  3 5 0  2.9 5 0  2.8 5 0  2.7 5 0  2.6 5 0  2.5 5 0  2.4 5 0  2.3 5 0  2.2 5 0  2.1 5 0  2 5 0  1.9 5 0  1.8 5 0  1.7 5 0  1.6 5 0  1.5 5 0  1.4 5 0  1.3 5 0  1.2 5 0  1.1 5 0  1 5 0  0.9000000000000004 5 0  0.7999999999999998 5 0  0.7000000000000002 5 0  0.5999999999999996 5 0  0.5 5 0  0.4000000000000004 5 0  0.2999999999999998 5 0  0.2000000000000002 5 0  0.09999999999999964 5 0  0 5 0  -0.09999999999999964 5 0  -0.2000000000000002 5 0  -0.2999999999999998 5 0  -0.4000000000000004 5 0  -0.5 5 0  -0.5999999999999996 5 0  -0.7000000000000002 5 0  -0.7999999999999998 5 0  -0.9000000000000004 5 0  -1 5 0  -1.1 5 0  -1.2 5 0  -1.3 5 0  -1.4 5 0  -1.5 5 0  -1.6 5 0  -1.7 5 0  -1.8 5 0  -1.9 5 0  -2 5 0  -2.1 5 0  -2.2 5 0  -2.3 5 0  -2.4 5 0  -2.5 5 0  -2.6 5 0  -2.7 5 0  -2.8 5 0  -2.9 5 0  -3 5 0  -3.1 5 0  -3.199999999999999 5 0  -3.300000000000001 5 0  -3.4 5 0  -3.5 5 0  -3.6 5 0  -3.699999999999999 5 0  -3.800000000000001 5 0  -3.9 5 0  -4 5 0  -4.1 5 0  -4.199999999999999 5 0  -4.300000000000001 5 0  -4.4 5 0  -4.5 5 0  -4.6 5 0  -4.699999999999999 5 0  -4.800000000000001 5 0  -4.9 5 0  -5 4.9 0  -5 4.8 0  -5 4.7 0  -5 4.6 0  -5 4.5 0  -5 4.4 0  -5 4.3 0  -5 4.2 0  -5 4.1 0  -5 4 0  -5 3.9 0  -5 3.8 0  -5 3.7 0  -5 3.6 0  -5 3.5 0  -5 3.4 0  -5 3.3 0  -5 3.2 0  -5 3.1 0  -5 3 0  -5 2.9 0  -5 2.8 0  -5 2.7 0  -5 2.6 0  -5 2.5 0  -5 2.4 0  -5 2.3 0  -5 2.2 0  -5 2.1 0  -5 2 0  -5 1.9 0  -5 1.8 0  -5 1.7 0  -5 1.6 0  -5 1.5 0  -5 1.4 0  -5 1.3 0  -5 1.2 0  -5 1.1 0  -5 1 0  -5 0.9000000000000004 0  -5 0.7999999999999998 0  -5 0.7000000000000002 0  -5 0.5999999999999996 0  -5 0.5 0  -5 0.4000000000000004 0  -5 0.2999999999999998 0  -5 0.2000000000000002 0  -5 0.09999999999999964 0  -5 0 0  -5 -0.09999999999999964 0  -5 -0.2000000000000002 0  -5 -0.2999999999999998 0  -5 -0.4000000000000004 0  -5 -0.5 0  -5 -0.5999999999999996 0  -5 -0.7000000000000002 0  -5 -0.7999999999999998 0  -5 -0.9000000000000004 0  -5 -1 0  -5 -1.1 0  -5 -1.2 0  -5 -1.3 0  -5 -1.4 0  -5 -1.5 0  -5 -1.6 0  -5 -1.7 0  -5 -1.8 0  -5 -1.9 0  -5 -2 0  -5 -2.1 0  -5 -2.2 0  -5 -2.3 0  -5 -2.4 0  -5 -2.5 0  -5 -2.6 0  -5 -2.7 0  -5 -2.8 0  -5 -2.9 0  -5 -3 0  -5 -3.1 0  -5 -3.199999999999999 0  -5 -3.300000000000001 0  -5 -3.4 0  -5 -3.5 0  -5 -3.6 0  -5 -3.699999999999999 0  -5 -3.800000000000001 0  -5 -3.9 0  -5 -4 0  -5 -4.1 0  -5 -4.199999999999999 0  -5 -4.300000000000001 0  -5 -4.4 0  -5 -4.5 0  -5 -4.6 0  -5 -4.699999999999999 0  -5 -4.800000000000001 0  -5 -4.9 0  1.20928865145694 0.09843211311880477 0  1.190004129479901 0.1961967893344813 0  1.15800338210682 0.2932087128696629 0  1.116733138871858 0.3841343730751369 0  1.062838480916503 0.4746955946258715 0  0.999696228430771 0.5596619874366879 0  0.9253720298947984 0.6394351954850435 0  0.8419113771248979 0.7124165713297336 0  0.7515785268504537 0.7779258034077011 0  0.6525073637224883 0.8362240084947196 0  0.5462067890802657 0.8875163398719045 0  0.4362777916115361 0.9297367231525364 0  0.3242321196894335 0.9626112925843224 0  0.2056797449300325 0.9848838220732232 0  0.08904889531224271 1.000442073357285 0  -0.02772182908868599 1.003293710200737 0  -0.1448352693572439 0.992681971011529 0  -0.264745715420782 0.9747707096704622 0  -0.3806079991326148 0.9489611185051116 0  -0.4907523627867507 0.9125219177135723 0  -0.5965895243807977 0.8667155867132071 0  -0.6971943273959917 0.8120508562684507 0  -0.7904276428183287 0.7487523922683313 0  -0.8776741200486544 0.6777103575491662 0  -0.9579444137307923 0.5993863602754923 0  -1.027545782380836 0.5173001782423304 0  -1.087285116536673 0.4306622996428875 0  -1.13577941679518 0.3388283623690611 0  -1.172037913222032 0.2454353029041568 0  -1.196228035544633 0.1494738852995923 0  -1.208419616027174 0.05072356201700865 0  -1.208398104626012 -0.04880695163818484 0  -1.19611714445859 -0.1471531258655648 0  -1.172550453145788 -0.2430513946152992 0  -1.134959608655471 -0.338580401582552 0  -1.087596681569098 -0.4296173311646172 0  -1.028647006538406 -0.5165286865333301 0  -0.9596920551099561 -0.5981136154966742 0  -0.8798698990315734 -0.6751920177375865 0  -0.7923887772328846 -0.7450284502687223 0  -0.6976604182721678 -0.8061758812645727 0  -0.5966215002514789 -0.8602769983668698 0  -0.4876148006883937 -0.9077383490184143 0  -0.3766151096229357 -0.9460376166344862 0  -0.2616390598453779 -0.9736293913895139 0  -0.1434528642228597 -0.9919031378525237 0  -0.02758162416589637 -1.0023692703345 0  0.08960349461445637 -0.9973238674006383 0  0.2090925666543347 -0.9823717912924738 0  0.3261155144911413 -0.9609450480649332 0  0.4399554005120574 -0.9283221175810095 0  0.5480893837055176 -0.8865817558376425 0  0.6532909130281227 -0.8359673096274528 0  0.7517084628542742 -0.7790082909205086 0  0.841955929291513 -0.7132240562772956 0  0.924830597846811 -0.638956864709827 0  0.998013249781071 -0.5590268570795629 0  1.062659055218835 -0.4740450264909207 0  1.117726170782475 -0.3841815370282565 0  1.159524760636575 -0.2915529274099821 0  1.190345263210418 -0.1953239225168691 0  1.209340488440335 -0.09796744725166573 0  -2.44871560968398 4.918397454506399 0  -2.44860395110864 -4.910801553732227 0  4.910732790272998 2.448113163499466 0  4.918830662113849 -2.449554925719128 0  2.446360912944125 -4.896086327981691 0  2.440788200642859 4.89983764282999 0  -4.910757435019081 -2.44813727676315 0  -4.910755369293235 2.448141171157373 0  -1.748676026714321 4.911411715900586 0  -1.744455959503604 -4.914837319258963 0  4.920992280376048 1.744267408621442 0  4.909576341674965 -1.748057422278937 0  -4.909865901484946 -1.747788416099645 0  -4.910685165206395 1.747530972046198 0  1.745958961711446 4.905298395025313 0  1.747392330339337 -4.893494386754722 0  -1.148954614027639 4.909280405940721 0  -1.129799081803275 -4.917156731392923 0  -4.909688573292978 -1.14807764751176 0  -4.909508466184021 1.147877899040201 0  1.143941784001649 -4.913359973265915 0  1.148962869341618 4.90926825837948 0  4.909832701045294 1.14635423977518 0  4.920603686201932 -1.152118789097918 0  -0.5467283672527123 -4.910511713301492 0  -0.5465039505455569 4.91915074176918 0  -4.908505715135757 -0.5487918456677282 0  -4.908529981342059 0.5473486017606987 0  4.907834671486244 -0.5491116857598336 0  4.919419448350576 0.5458577508261969 0  0.5425159103706173 -4.897461180799301 0  0.5512339509392926 4.915990556534907 0  -4.912085536725848 -3.048457955790266 0  4.91864388444601 3.046463344157632 0  4.911595419517502 -3.048436211127048 0  -4.912932411482299 3.045548118486349 0  3.055425692453375 -4.917576052604591 0  -3.04876546921722 -4.911525194659864 0  3.052329975395698 4.913599062835321 0  -3.048210650519949 4.912412961800386 0  -4.907645451132076 -0.04991601014076207 0  0.04512377695601483 -4.912466174028276 0  0.04957137658627613 4.919455689864916 0  4.914660633590298 -0.05129760001453201 0  3.545717152884397 -4.919161749849528 0  -3.549006758286528 4.9120
[...]
<PointData  Vectors="f_2710"> 
<DataArray  type="Float64"  Name="f_2710"  NumberOfComponents="3" format="ascii">-4.5502921495665667e-07 -4.5504842578852483e-07 0.0000000000000000e+00  4.5502672730131901e-07 -4.5504651142998154e-07 0.0000000000000000e+00  5.0298256839279583e-07 5.0299661276583455e-07 0.0000000000000000e+00  -4.5502863367167673e-07 4.5504760642769604e-07 0.0000000000000000e+00  -3.4131292796002860e-01 -6.4533128021979861e-03 0.0000000000000000e+00  9.1249008018399383e-08 -9.0577494832475682e-07 0.0000000000000000e+00  -1.0649272193204193e-07 -8.5959224948195967e-07 0.0000000000000000e+00  1.0483714402472097e-07 -8.7256392620681932e-07 0.0000000000000000e+00  -9.1291669409933703e-08 -8.7985463952345527e-07 0.0000000000000000e+00  -2.1125589747478165e-08 -9.0371711483081434e-07 0.0000000000000000e+00  3.5967563197251075e-08 -1.0604357027937020e-06 0.0000000000000000e+00  6.1379479075809714e-09 -9.3541401059959712e-07 0.0000000000000000e+00  7.3540427609809111e-08 -7.7810431204195310e-07 0.0000000000000000e+00  -1.0494693146855833e-07 -8.4344468376629147e-07 0.0000000000000000e+00  1.2034333367596543e-07 -8.2408137164340660e-07 0.0000000000000000e+00  -2.6514590727727263e-08 -6.7884752846403948e-07 0.0000000000000000e+00  -5.2793576596413620e-09 -7.5055839719711741e-07 0.0000000000000000e+00  -1.2903084734550128e-08 -7.6471476541612351e-07 0.0000000000000000e+00  1.0464430656418590e-08 -7.7341615283567446e-07 0.0000000000000000e+00  3.9807824266561512e-10 -7.5756536788603945e-07 0.0000000000000000e+00  4.0950210722461215e-10 -7.5666053870404827e-07 0.0000000000000000e+00  5.0619391890228902e-08 -7.2265015570967672e-07 0.0000000000000000e+00  -4.4443944645500257e-08 -6.8390417929599942e-07 0.0000000000000000e+00  4.3115086940568195e-10 -7.5384759188323412e-07 0.0000000000000000e+00  4.0023249805321118e-08 -6.5718323771873276e-07 0.0000000000000000e+00  -1.2837334124689409e-07 -8.0119832674939378e-07 0.0000000000000000e+00  9.7448548878634677e-08 -8.4373488017327178e-07 0.0000000000000000e+00  -9.4152498515545533e-08 -8.4241224721155922e-07 0.0000000000000000e+00  1.2515571675164890e-07 -7.9346302213647905e-07 0.0000000000000000e+00  -3.7773120149867540e-08 -6.4140732470513016e-07 0.0000000000000000e+00  4.5978779783696969e-10 -7.4685165247014368e-07 0.0000000000000000e+00  3.5717209196009186e-08 -6.7900042705459206e-07 0.0000000000000000e+00  -1.2108469840729846e-07 -8.0272270725028326e-07 0.0000000000000000e+00  1.0039317697089330e-07 -8.3748975689514985e-07 0.0000000000000000e+00  -9.4833331189517556e-08 -8.5713162550845786e-07 0.0000000000000000e+00  1.1850209170622565e-09 -8.5860595280855215e-07 0.0000000000000000e+00  6.7960197734362538e-08 -9.6380640198055522e-07 0.0000000000000000e+00  1.1584221402520817e-08 -7.8201695599952522e-07 0.0000000000000000e+00  8.0480404166137968e-09 -7.5332615961897533e-07 0.0000000000000000e+00  7.3240840908809511e-10 -7.3850447993444172e-07 0.0000000000000000e+00  1.0045582693658179e-08 -7.1623169676839506e-07 0.0000000000000000e+00  4.0704227463787035e-08 -6.2822183980535331e-07 0.0000000000000000e+00  -7.9901891963602625e-08 -6.6849596825657170e-07 0.0000000000000000e+00  -8.9101454689362692e-08 -9.5044842256441631e-07 0.0000000000000000e+00  9.8053546758698482e-08 -9.4744512774303989e-07 0.0000000000000000e+00  5.2351659152529403e-08 -6.9059694836194623e-07 0.0000000000000000e+00  -9.5520345287323507e-08 -8.1335096362872599e-07 0.0000000000000000e+00  -1.0633086701334712e-08 -7.4080014181320028e-07 0.0000000000000000e+00  5.8143554444773498e-08 -9.0061564647305552e-07 0.0000000000000000e+00  1.9003300106732667e-09 -7.4624492399895991e-07 0.0000000000000000e+00  4.6107348112135670e-09 -7.4338388302797478e-07 0.0000000000000000e+00  1.0879617225896529e-10 -7.3103545079537148e-07 0.0000000000000000e+00  -3.4774583147040990e-10 -7.3184078927676566e-07 0.0000000000000000e+00  -1.8510807540932962e-09 -7.3617857316211462e-07 0.0000000000000000e+00  -1.2200871331659827e-08 -7.6460579649678537e-07 0.0000000000000000e+00  -7.2726844887355133e-08 -9.4667185361015324e-07 0.0000000000000000e+00  7.7273917483811268e-09 -8.2067611577265276e-07 0.0000000000000000e+00  9.1606206454166215e-08 -8.1220831002745562e-07 0.0000000000000000e+00  -1.0604945704817819e-07 -8.0499043152497253e-07 0.0000000000000000e+00  1.1977369947217168e-07 -7.8770924398933497e-07 0.0000000000000000e+00  -2.8006444867667267e-08 -6.5301946010761247e-07 0.0000000000000000e+00  -9.4711820576240660e-09 -7.2874991784877013e-07 0.0000000000000000e+00  -6.7429426100003037e-09 -7.4011009914050245e-07 0.0000000000000000e+00  5.1420550682112406e-09 -7.4177254579716692e-07 0.0000000000000000e+00  -5.2164898053006519e-09 -7.4506113746127807e-07 0.0000000000000000e+00  -1.0181868220629268e-08 -7.7539592737991923e-07 0.0000000000000000e+00  4.7502337011808039e-08 -7.0404211943932725e-07 0.0000000000000000e+00  -8.6983724192093690e-08 -7.5298149712252685e-07 0.0000000000000000e+00  1.2935030236593963e-08 -8.6345293262075171e-07 0.0000000000000000e+00  5.7815859174997574e-09 -8.2751122459224805e-07 0.0000000000000000e+00  1.5536094521461657e-08 -8.2054018407502858e-07 0.0000000000000000e+00  7.2532910810790627e-08 -6.8044185302890539e-07 0.0000000000000000e+00  -6.8441137247134294e-08 -6.7859419559668576e-07 0.0000000000000000e+00  -1.4764653655710491e-08 -8.0260508397827781e-07 0.0000000000000000e+00  2.7470239425263308e-08 -7.8403777007387528e-07 0.0000000000000000e+00  1.6768399918373794e-09 -7.5050646407191257e-07 0.0000000000000000e+00  -3.6466481133544751e-11 -7.4583449959428405e-07 0.0000000000000000e+00  -5.7368641768557711e-09 -7.6948708917787307e-07 0.0000000000000000e+00  5.3463238148673496e-08 -6.8284217970368719e-07 0.0000000000000000e+00  -3.3541274408049953e-08 -6.5543648396350294e-07 0.0000000000000000e+00  -1.6712077246266001e-08 -7.4230457701120376e-07 0.0000000000000000e+00  -4.3823472612820105e-08 -8.0222952813176348e-07 0.0000000000000000e+00  -6.3961915311565251e-09 -8.7401438243268898e-07 0.0000000000000000e+00  8.5683873247113423e-08 -7.4164847331991926e-07 0.0000000000000000e+00  -6.2498234724981148e-08 -7.1343513610856824e-07 0.0000000000000000e+00  -4.9013827699749005e-09 -8.2516642947030873e-07 0.0000000000000000e+00  4.1361351570084909e-08 -7.8309075646826130e-07 0.0000000000000000e+00  -1.9132984686895345e-08 -7.5378371898196975e-07 0.0000000000000000e+00  -2.5451601464141382e-08 -7.9241772661056438e-07 0.0000000000000000e+00  2.8763438379733531e-09 -8.4834511149889208e-07 0.0000000000000000e+00  7.4914288747795537e-08 -7.1302020913990838e-07 0.0000000000000000e+00  -7.3197142115080334e-08 -7.1150593321712124e-07 0.0000000000000000e+00  -8.2567700230309634e-09 -8.4212348439116343e-07 0.0000000000000000e+00  3.3211454840038147e-08 -8.0761460949985199e-07 0.0000000000000000e+00  1.5915217625343263e-08 -7.4363884325531812e-07 0.0000000000000000e+00  -1.2493191439476754e-08 -7.3863104386869662e-07 0.0000000000000000e+00  -7.0152420357619607e-09 -7.7590065571726866e-07 0.0000000000000000e+00  5.2144032475244144e-08 -6.9477356872895533e-07 0.0000000000000000e+00  -6.5885922319799877e-08 -7.0758977732360394e-07 0.0000000000000000e+00  -1.8769398715681578e-08 -8.3918425747460432e-07 0.0000000000000000e+00  2.8327755775573594e-08 -8.1732171644214791e-07 0.0000000000000000e+00  3.2408604891390450e-09 -7.7957131918700513e-07 0.0000000000000000e+00  -6.8131109531744853e-09 -7.9392110346992396e-07 0.0000000000000000e+00  -6.0284608817341419e-08 -9.4786022020692186e-07 0.0000000000000000e+00  8.9083970739510990e-07 8.8280621530875276e-08 0.0000000000000000e+00  8.8483085194333761e-07 -1.2413365060808479e-07 0.0000000000000000e+00  9.1641642988630649e-07 1.1037869822266400e-07 0.0000000000000000e+00  7.5597592712257379e-07 -2.4977989276299990e-08 0.0000000000000000e+00  8.0086470367915271e-07 1.6860285215028295e-08 0.0000000000000000e+00  7.7892818321932989e-07 5.5789259027044978e-10 0.0000000000000000e+00  7.7820541931232538e-07 -1.7422214659752418e-10 0.0000000000000000e+00  7.7782424397274931e-07 8.1983759673547339e-10 0.0000000000000000e+00  7.8175876321218778e-07 -6.3624443133898393e-09 0.0000000000000000e+00  7.9018746450877047e-07 3.8540033178917698e-09 0.0000000000000000e+00  7.9304345085355969e-07 -6.7201558572830283e-09 0.0000000000000000e+00  7.9123432673795410e-07 1.1953451007452218e-08 0.0000000000000000e+00  7.8348787949206195e-07 -1.2786359827389643e-08 0.0000000000000000e+00  7.8357304702493417e-07 9.1782268480693488e-09 0.0000000000000000e+00  7.9761958761234341e-07 -1.4150889026536430e-08 0.0000000000000000e+00  7.8613811900738049e-07 2.2988193528437789e-08 0.0000000000000000e+00  7.6890707392479152e-07 -3.3914484505454448e-09 0.0000000000000000e+00  7.7763070691574318e-07 -1.1127537001573291e-08 0.0000000000000000e+00  7.6698564832151703e-07 1.6365410009802613e-08 0.0000000000000000e+00  7.7193083358368755e-07 -1.7999952786071470e-08 0.0000000000000000e+00  7.9117461654648498e-07 6.1994514196181729e-09 0.0000000000000000e+00  7.6606926525119922e-07 1.3470150988995817e-08 0.0000000000000000e+00  7.9792883407096061e-07 -3.1893736031637636e-08 0.0000000000000000e+00  8.3108565784887581e-07 -8.1165578670480184e-09 0.0000000000000000e+00  8.2868226784196806e-07 9.0748001636662035e-09 0.0000000000000000e+00  7.8930630369082726e-07 2.1603558930420930e-08 0.0000000000000000e+00  7.5716179297798935e-07 1.0934454631290548e-08 0.0000000000000000e+00  7.4353459897873777e-07 6.0853493367666811e-10 0.0000000000000000e+00  7.4216995263654083e-07 6.2852021857293887e-10 0.0000000000000000e+00  7.4079356880989492e-07 6.3134918932583602e-10 0.0000000000000000e+00  7.3945291159364033e-07 6.2945964423851199e-10 0.0000000000000000e+00  7.3808125317757479e-07 6.4251854113474051e-10 0.0000000000000000e+00  7.4747408478817300e-07 -1.1140962479941390e-08 0.0000000000000000e+00  7.6090675572227943e-07 1.7628550357270200e-09 0.0000000000000000e+00  7.4801126460188580e-07 1.1390088008643230e-08 0.0000000000000000e+00  7.7885287360701918e-07 -3.0606039421046749e-08 0.0000000000000000e+00  8.1069461182354310e-07 -9.6996439674794073e-09 0.0000000000000000e+00  8.3804278774632661e-07 -5.9288864874967729e-09 0.0000000000000000e+00  8.3616168146861150e-07 1.8102453815210331e-08 0.0000000000000000e+00  7.2032249067493688e-07 6.7629272219101043e-10 0.0000000000000000e+00  8.0590224140521512e-07 3.4371333203206249e-08 0.0000000000000000e+00  7.2896139029124280e-07 -9.0417215510047554e-10 0.0000000000000000e+00  7.2483574994999150e-07 1.7125606306984583e-09 0.0000000000000000e+00  7.2424931931815061e-07 3.5417699627097507e-10 0.0000000000000000e+00  7.7765576094919181e-07 -3.0128585914394534e-08 0.0000000000000000e+00  7.8717273614206188e-07 -9.1216383581141259e-09 0.0000000000000000e+00  8.0877775574466984e-07 -1.5686679188949731e-09 0.0000000000000000e+00  7.9967764055320562e-07 7.0476245871901958e-09 0.0000000000000000e+00  7.9583433733310969e-07 6.6745046100416247e-09 0.0000000000000000e+00  7.9448106673444692e-07 -1.4671265435643174e-08 0.0000000000000000e+00  8.2444635538801670e-07 -2.0945022795531789e-09 0.0000000000000000e+00  8.3360027690108974e-07 -1.7626170557283632e-09 0.0000000000000000e+00  8.1400828590471848e-07 5.0205134738087730e-10 0.0000000000000000e+00  8.2824032142733152e-07 4.4338145313383271e-10 0.0000000000000000e+00  8.3477931469983955e-07 -1.4884574726878049e-09 0.0000000000000000e+00  8.1544097464357927e-07 3.3760990536130083e-10 0.0000000000000000e+00  8.2704953582964822e-07 1.3202288166275294e-09 0.0000000000000000e+00  8.2219288731350497e-07 2.5815209791448038e-09 0.0000000000000000e+00  7.8058635378650337e-07 2.4565539089593724e-08 0.0000000000000000e+00  7.5938373199958310e-07 -1.7286499961338002e-10 0.0000000000000000e+00  7.5654114947111714e-07 8.6593530192605846e-09 0.0000000000000000e+00  7.5448651085415239e-07 -1.2119227489003589e-08 0.0000000000000000e+00  7.6090621503129235e-07 -3.9217630421021308e-10 0.0000000000000000e+00  7.7407292626026598e-07 -1.9973595828586109e-10 0.0000000000000000e+00  7.9356140114512805e-07 -2.4159226970071495e-08 0.0000000000000000e+00  8.3546905009859638e-07 -4.0358080511611760e-09 0.0000000000000000e+00  8.4993116621480013e-07 -3.0167500052716150e-09 0.0000000000000000e+00  8.3217590033999848e-07 -2.3705664430590350e-10 0.0000000000000000e+00  8.4425145708707414e-07 3.2156870712469289e-09 0.0000000000000000e+00  8.1987352673638543e-07 1.2131742512716199e-08 0.0000000000000000e+00  7.7155482615593790e-07 2.2454146297146990e-08 0.0000000000000000e+00  7.4718765615054828e-07 3.8848052033421361e-09 0.0000000000000000e+00  7.4482736377242787e-07 -5.9498239466981428e-10 0.0000000000000000e+00  7.4609551300056769e-07 -5.6587692911555521e-10 0.0000000000000000e+00  7.4984425019045261e-07 -1.6163034430201683e-09 0.0000000000000000e+00  7.5778464849603009e-07 -4.9437437172093343e-09 0.0000000000000000e+00  7.7901927451405615e-07 -1.0631164025339544e-08 0.0000000000000000e+00  8.1166893549151402e-07 -2.3829497768497585e-08 0.0000000000000000e+00  8.5135974325788372e-07 -1.1646450695283886e-09 0.0000000000000000e+00  8.3176584116401913e-07 1.1295200951830359e-08 0.0000000000000000e+00  8.0440613802989911e-07 1.4778979424598750e-08 0.0000000000000000e+00  7.9850296782622677e-07 -8.1532016489723398e-09 0.0000000000000000e+00  8.1772130759723480e-07 -1.9247681643928974e-08 0.0000000000000000e+00  8.5256594684058060e-07 8.8806576165898635e-11 0.0000000000000000e+00  8.3747549963868548e-07 1.0621693923815080e-08 0.0000000000000000e+00  8.0998746192106068e-07 8.6723485011523156e-09 0.0000000000000000e+00  7.7954957986860886e-07 1.8299152531771301e-08 0.0000000000000000e+00  7.7057742750684815e-07 -8.1290922056855887e-09 0.0000000000000000e+00  7.6994387959969558e-07 7.3892834745350763e-09 0.0000000000000000e+00  7.6253260800175518e-07 -3.3942131733557901e-10 0.0000000000000000e+00  7.6329509594726845e-07 -3.2915760995373541e-10 0.0000000000000000e+00  7.7703204818769385e-07 -1.1474824757030679e-08 0.0000000000000000e+00  7.7760425475138233e-07 1.0843731760217514e-08 0.0000000000000000e+00  7.6821207662267455e-07 -2.5976207529913053e-09 0.0000000000000000e+00  7.9914902553721282e-07 -1.2133447178395939e-08 0.0000000000000000e+00  8.1353580180662660e-07 -7.0677110886863395e-09 0.0000000000000000e+00  8.2250361702478827e-07 -1.7286304575370586e-08 0.0000000000000000e+00  8.4585099461502811e-07 -3.8236562721436040e-09 0.0000000000000000e+00  1.0389096207085311e-06 -6.0255792306636164e-08 0.0000000000000000e+00  -1.0915967263762648e-07 9.7245462797195406e-07 0.0000000000000000e+00  5.6909754723459687e-08 8.2936587442492354e-07 0.0000000000000000e+00  9.5305758398214424e-10 9.4542378348639688e-07 0.0000000000000000e+00  3.4409814188228683e-08 1.0607423807177383e-06 0.0000000000000000e+00  -1.8751713083735347e-08 8.9993100399584464e-07 0.0000000000000000e+00  -8.8614055134465147e-08 8.9334277499639930e-07 0.0000000000000000e+00  1.3322419280628419e-07 9.1779881954024585e-07 0.0000000000000000e+00  -1.4575041802050870e-07 9.2354956136805257e-07 0.0000000000000000e+00  1.1851935138208217e-08 7.0508955089768100e-07 0.0000000000000000e+00  7.6354988457275720e-09 7.6004186071028386e-07 0.0000000000000000e+00  -1.2316033057354245e-08 7.7591270002219329e-07 0.0000000000000000e+00  -1.1727681709080098e-08 7.4982125869127612e-07 0.0000000000000000e+00  -3.3920156221106104e-08 6.6004620745789811e-07 0.0000000000000000e+00  5.6583331048103538e-08 6.9283327849532176e-07 0.0000000000000000e+00  9.3713933527825070e-10 7.8834981935596075e-07 0.0000000000000000e+00  -1.9434789489598031e-09 7.7817733684845530e-07 0.0000000000000000e+00  -1.5886930553902108e-09 7.7181518803269378e-07 0.0000000000000000e+00  2.0204849729316592e-09 7.7456279079732247e-07 0.0000000000000000e+00  -1.4213528567548238e-09 7.8439936771996000e-07 0.0000000000000000e+00  -5.6608254449320745e-08 6.9180172314898091e-07 0.0000000000000000e+00  4.2197781760929340e-08 6.7248235803956361e-07 0.0000000000000000e+00  -3.9531215560928244e-09 7.4254828246923815e-07 0.0000000000000000e+00  9.0279670952872949e-09 7.4754467886083843e-07 0.0000000000000000e+00  -9.1669731618530672e-09 7.4414636861352021e-07 0.0000000000000000e+00  -2.7980275248286594e-08 6.6762340315239992e-07 0.0000000000000000e+00  1.1951784944105660e-07 8.0324845500221849e-07 0.0000000000000000e+00  -1.0530318710919318e-07 8.2727291014994473e-07 0.0000000000000000e+00  7.3629629837635046e-08 7.5918922153380910e-07 0.0000000000000000e+00  4.1663579523693131e-09 9.1318562970847769e-07 0.0000000000000000e+00  3.5055364957466789e-08 1.0286829818297505e-06 0.0000000000000000e+00  -2.3529378086244756e-08 8.7499840765801154e-07 0.0000000000000000e+00  -9.2676947643159578e-08 8.4801528302470460e-07 0.0000000000000000e+00  9.5847288915008622e-08 8.2891349319311964e-07 0.0000000000000000e+00  -1.2898874845990110e-07 7.8542488322718893e-07 0.0000000000000000e+00  4.1977626041376104e-08 6.5131132675050424e-07 0.0000000000000000e+00  -1.0605002404141007e-08 7.2175608400948418e-07 0.0000000000000000e+00  1.3411000401717962e-08 7.3048608134736720e-07 0.0000000000000000e+00  -3.7371580453134765e-09 7.4102044114078525e-07 0.0000000000000000e+00  -3.2563385801037965e-10 7.3467694283093353e-07 0.0000000000000000e+00  -3.0726826199059610e-10 7.3399639303865925e-07 0.0000000000000000e+00  -5.1382062349004987e-08 7.0435043044307833e-07 0.0000000000000000e+00  4.4397842623871960e-08 6.6047455616980109e-07 0.0000000000000000e+00  -1.5749228645160191e-09 7.3924689664574501e-07 0.0000000000000000e+00  2.8259995177200455e-08 7.5977551923686825e-07 0.0000000000000000e+00  -9.9584146357003265e-09 8.0135820596914246e-07 0.0000000000000000e+00  -7.1053610258898278e-08 6.7000624014494017e-07 0.0000000000000000e+00  6.8360230896936686e-08 6.6654528464037505e-07 0.0000000000000000e+00  2.5217980203295731e-08 8.0488985488961610e-07 0.0000000000000000e+00  8.5948472350150677e-10 8.2778431222517036e-07 0.0000000000000000e+00  5.5238362302534173e-09 8.4571473549272975e-07 0.0000000000000000e+00  -8.5812040168950979e-08 7.1830163207076437e-07 0.0000000000000000e+00  6.3550224326035292e-08 6.9053518690257475e-07 0.0000000000000000e+00  2.2525615930377448e-08 8.2367214584472014e-07 0.0000000000000000e+00  6.8464245062338302e-09 8.5611454840235980e-07 0.0000000000000000e+00  -1.1781140684918805e-08 8.4978225076085464e-07 0.0000000000000000e+00  -5.8349448294358401e-08 7.0659651610137079e-07 0.0000000000000000e+00  1.1952754270451387e-07 8.1633773947456791e-07 0.0000000000000000e+00  -1.0424423169606048e-07 8.3930879983722177e-07 0.0000000000000000e+00  8.6740560943076598e-08 8.2771383661457252e-07 0.0000000000000000e+00  -1.2885206513044187e-07 7.6647976824617993e-07 0.0000000000000000e+00  4.4440723334077386e-08 6.3319376777400428e-07 0.0000000000000000e+00  5.4709520409671400e-09 7.4122116609352928e-07 0.0000000000000000e+00  1.2341819582299415e-09 7.4863873934665294e-07 0.0000000000000000e+00  -5.5802539878697959e-09 7.4367498139119132e-07 0.0000000000000000e+00  1.2697840150261740e-09 7.3849257734030530e-07 0.0000000000000000e+00  -4.6247611797774061e-10 7.4026392464382120e-07 0.0000000000000000e+00  5.9935857019726761e-09 7.4602000352992919e-07 0.0000000000000000e+00  2.5849618478470304e-08 7.8278143178282502e-07 0.0000000000000000e+00  -8.7804192375751007e-09 8.1272231431786035e-07 0.0000000000000000e+00  -7.0048394608047015e-08 6.9035926310701152e-07 0.0000000000000000e+00  5.4040118705928512e-08 6.9571488266238967e-07 0.0000000000000000e+00  4.6453300443058902e-10 7.4475820878528241e-07 0.0000000000000000e+00  3.1087840141824916e-08 7.7358404488309646e-07 0.0000000000000000e+00  -1.1564973729980425e-09 8.2647087650780098e-07 0.0000000000000000e+00  -1.9048856629836581e-08 7.9359367188891399e-07 0.0000000000000000e+00  -9.7046459426430643e-09 7.6020449144503898e-07 0.0000000000000000e+00  -4.0028414046610727e-08 6.9069404955250892e-07 0.0000000000000000e+00  1.1000155120377767e-07 7.9228433835671719e-07