<?xml version="1.0"?>
<VTKFile type="UnstructuredGrid"  version="0.1"  >
<UnstructuredGrid>
<Piece  NumberOfPoints="11902" NumberOfCells="23402">
<Points>
<DataArray  type="Float64"  NumberOfComponents="3"  format="ascii">-5 -5 0  5 -5 0  5 5 0  -5 5 0  1.133816194467196 0.0008985775371067245 0  -4.9 -5 0  -4.8 -5 0  -4.7 -5 0  -4.6 -5 0  -4.5 -5 0  -4.4 -5 0  -4.3 -5 0  -4.2 -5 0  -4.1 -5 0  -4 -5 0  -3.9 -5 0  -3.8 -5 0  -3.7 -5 0  -3.6 -5 0  -3.5 -5 0  -3.4 -5 0  -3.3 -5 0  -3.2 -5 0  -3.1 -5 0  -3 -5 0  -2.9 -5 0  -2.8 -5 0  -2.7 -5 0  -2.6 -5 0  -2.5 -5 0  -2.4 -5 0  -2.3 -5 0  -2.2 -5 0  -2.1 -5 0  -2 -5 0  -1.9 -5 0  -1.8 -5 0  -1.7 -5 0  -1.6 -5 0  -1.5 -5 0  -1.4 -5 0  -1.3 -5 0  -1.2 -5 0  -1.1 -5 0  -1 -5 0  -0.9000000000000004 -5 0  -0.7999999999999998 -5 0  -0.7000000000000002 -5 0  -0.5999999999999996 -5 0  -0.5 -5 0  -0.4000000000000004 -5 0  -0.2999999999999998 -5 0  -0.2000000000000002 -5 0  -0.09999999999999964 -5 0  0 -5 0  0.09999999999999964 -5 0  0.2000000000000002 -5 0  0.2999999999999998 -5 0  0.4000000000000004 -5 0  0.5 -5 0  0.5999999999999996 -5 0  0.7000000000000002 -5 0  0.7999999999999998 -5 0  0.9000000000000004 -5 0  1 -5 0  1.1 -5 0  1.2 -5 0  1.3 -5 0  1.4 -5 0  1.5 -5 0  1.6 -5 0  1.7 -5 0  1.8 -5 0  1.9 -5 0  2 -5 0  2.1 -5 0  2.2 -5 0  2.3 -5 0  2.4 -5 0  2.5 -5 0  2.6 -5 0  2.7 -5 0  2.8 -5 0  2.9 -5 0  3 -5 0  3.1 -5 0  3.199999999999999 -5 0  3.300000000000001 -5 0  3.4 -5 0  3.5 -5 0  3.6 -5 0  3.699999999999999 -5 0  3.800000000000001 -5 0  3.9 -5 0  4 -5 0  4.1 -5 0  4.199999999999999 -5 0  4.300000000000001 -5 0  4.4 -5 0  4.5 -5 0  4.6 -5 0  4.699999999999999 -5 0  4.800000000000001 -5 0  4.9 -5 0  5 -4.9 0  5 -4.8 0  5 -4.7 0  5 -4.6 0  5 -4.5 0  5 -4.4 0  5 -4.3 0  5 -4.2 0  5 -4.1 0  5 -4 0  5 -3.9 0  5 -3.8 0  5 -3.7 0  5 -3.6 0  5 -3.5 0  5 -3.4 0  5 -3.3 0  5 -3.2 0  5 -3.1 0  5 -3 0  5 -2.9 0  5 -2.8 0  5 -2.7 0  5 -2.6 0  5 -2.5 0  5 -2.4 0  5 -2.3 0  5 -2.2 0  5 -2.1 0  5 -2 0  5 -1.9 0  5 -1.8 0  5 -1.7 0  5 -1.6 0  5 -1.5 0  5 -1.4 0  5 -1.3 0  5 -1.2 0  5 -1.1 0  5 -1 0  5 -0.9000000000000004 0  5 -0.7999999999999998 0  5 -0.7000000000000002 0  5 -0.5999999999999996 0  5 -0.5 0  5 -0.4000000000000004 0  5 -0.2999999999999998 0  5 -0.2000000000000002 0  5 -0.09999999999999964 0  5 0 0  5 0.09999999999999964 0  5 0.2000000000000002 0  5 0.2999999999999998 0  5 0.4000000000000004 0  5 0.5 0  5 0.5999999999999996 0  5 0.7000000000000002 0  5 0.7999999999999998 0  5 0.9000000000000004 0  5 1 0  5 1.1 0  5 1.2 0  5 1.3 0  5 1.4 0  5 1.5 0  5 1.6 0  5 1.7 0  5 1.8 0  5 1.9 0  5 2 0  5 2.1 0  5 2.2 0  5 2.3 0  5 2.4 0  5 2.5 0  5 2.6 0  5 2.7 0  5 2.8 0  5 2.9 0  5 3 0  5 3.1 0  5 3.199999999999999 0  5 3.300000000000001 0  5 3.4 0  5 3.5 0  5 3.6 0  5 3.699999999999999 0  5 3.800000000000001 0  5 3.9 0  5 4 0  5 4.1 0  5 4.199999999999999 0  5 4.300000000000001 0  5 4.4 0  5 4.5 0  5 4.6 0  5 4.699999999999999 0  5 4.800000000000001 0  5 4.9 0  4.9 5 0  4.8 5 0  4.7 5 0  4.6 5 0  4.5 5 0  4.4 5 0  4.3 5 0  4.2 5 0  4.1 5 0  4 5 0  3.9 5 0  3.8 5 0  3.7 5 0  3.6 5 0  3.5 5 0  3.4 5 0  3.3 5 0  3.2 5 0  3.1 5 0  3 5 0  2.9 5 0  2.8 5 0  2.7 5 0  2.6 5 0  2.5 5 0  2.4 5 0  2.3 5 0  2.2 5 0  2.1 5 0  2 5 0  1.9 5 0  1.8 5 0  1.7 5 0  1.6 5 0  1.5 5 0  1.4 5 0  1.3 5 0  1.2 5 0  1.1 5 0  1 5 0  0.9000000000000004 5 0  0.7999999999999998 5 0  0.7000000000000002 5 0  0.5999999999999996 5 0  0.5 5 0  0.4000000000000004 5 0  0.2999999999999998 5 0  0.2000000000000002 5 0  0.09999999999999964 5 0  0 5 0  -0.09999999999999964 5 0  -0.2000000000000002 5 0  -0.2999999999999998 5 0  -0.4000000000000004 5 0  -0.5 5 0  -0.5999999999999996 5 0  -0.7000000000000002 5 0  -0.7999999999999998 5 0  -0.9000000000000004 5 0  -1 5 0  -1.1 5 0  -1.2 5 0  -1.3 5 0  -1.4 5 0  -1.5 5 0  -1.6 5 0  -1.7 5 0  -1.8 5 0  -1.9 5 0  -2 5 0  -2.1 5 0  -2.2 5 0  -2.3 5 0  -2.4 5 0  -2.5 5 0  -2.6 5 0  -2.7 5 0  -2.8 5 0  -2.9 5 0  -3 5 0  -3.1 5 0  -3.199999999999999 5 0  -3.300000000000001 5 0  -3.4 5 0  -3.5 5 0  -3.6 5 0  -3.699999999999999 5 0  -3.800000000000001 5 0  -3.9 5 0  -4 5 0  -4.1 5 0  -4.199999999999999 5 0  -4.300000000000001 5 0  -4.4 5 0  -4.5 5 0  -4.6 5 0  -4.699999999999999 5 0  -4.800000000000001 5 0  -4.9 5 0  -5 4.9 0  -5 4.8 0  -5 4.7 0  -5 4.6 0  -5 4.5 0  -5 4.4 0  -5 4.3 0  -5 4.2 0  -5 4.1 0  -5 4 0  -5 3.9 0  -5 3.8 0  -5 3.7 0  -5 3.6 0  -5 3.5 0  -5 3.4 0  -5 3.3 0  -5 3.2 0  -5 3.1 0  -5 3 0  -5 2.9 0  -5 2.8 0  -5 2.7 0  -5 2.6 0  -5 2.5 0  -5 2.4 0  -5 2.3 0  -5 2.2 0  -5 2.1 0  -5 2 0  -5 1.9 0  -5 1.8 0  -5 1.7 0  -5 1.6 0  -5 1.5 0  -5 1.4 0  -5 1.3 0  -5 1.2 0  -5 1.1 0  -5 1 0  -5 0.9000000000000004 0  -5 0.7999999999999998 0  -5 0.7000000000000002 0  -5 0.5999999999999996 0  -5 0.5 0  -5 0.4000000000000004 0  -5 0.2999999999999998 0  -5 0.2000000000000002 0  -5 0.09999999999999964 0  -5 0 0  -5 -0.09999999999999964 0  -5 -0.2000000000000002 0  -5 -0.2999999999999998 0  -5 -0.4000000000000004 0  -5 -0.5 0  -5 -0.5999999999999996 0  -5 -0.7000000000000002 0  -5 -0.7999999999999998 0  -5 -0.9000000000000004 0  -5 -1 0  -5 -1.1 0  -5 -1.2 0  -5 -1.3 0  -5 -1.4 0  -5 -1.5 0  -5 -1.6 0  -5 -1.7 0  -5 -1.8 0  -5 -1.9 0  -5 -2 0  -5 -2.1 0  -5 -2.2 0  -5 -2.3 0  -5 -2.4 0  -5 -2.5 0  -5 -2.6 0  -5 -2.7 0  -5 -2.8 0  -5 -2.9 0  -5 -3 0  -5 -3.1 0  -5 -3.199999999999999 0  -5 -3.300000000000001 0  -5 -3.4 0  -5 -3.5 0  -5 -3.6 0  -5 -3.699999999999999 0  -5 -3.800000000000001 0  -5 -3.9 0  -5 -4 0  -5 -4.1 0  -5 -4.199999999999999 0  -5 -4.300000000000001 0  -5 -4.4 0  -5 -4.5 0  -5 -4.6 0  -5 -4.699999999999999 0  -5 -4.800000000000001 0  -5 -4.9 0  1.128327011142645 0.1002852115276075 0  1.111122787605995 0.1994495437097537 0  1.082099886765094 0.2971792840348225 0  1.043903495936489 0.3902843341247186 0  0.9947822639533379 0.4812494560901095 0  0.9363824957011896 0.566875902411947 0  0.8679171159055349 0.6466837085105269 0  0.7902389092784097 0.7196943939289815 0  0.7056249927176488 0.7859213396565492 0  0.6138981559511153 0.8447519684602096 0  0.5154931706611474 0.8948574198332563 0  0.4121225554732175 0.9362299133156411 0  0.3060186955407289 0.9687655378009177 0  0.1958130935506922 0.990940990342674 0  0.08498691020561341 1.003976904365 0  -0.02711678322900613 1.006582919297489 0  -0.1390073577655313 0.9983747800355603 0  -0.250029144212911 0.9812478297014434 0  -0.3585839295262779 0.9544326795760736 0  -0.4631917927363183 0.9177036480425439 0  -0.5629467195281115 0.8723371472442668 0  -0.6575367905733933 0.8177333045820891 0  -0.7455732040526444 0.7552719710408473 0  -0.826483064502898 0.6854190830545557 0  -0.8996173724712134 0.6077741385880897 0  -0.963286215075011 0.5246992116674691 0  -1.018088660949637 0.4369663645921258 0  -1.062146098723533 0.3442272389654119 0  -1.095324714086043 0.2487592069313303 0  -1.117858333288465 0.150845845242218 0  -1.129323744211284 0.05085653858468182 0  -1.129350572719863 -0.0497183290773743 0  -1.117903192416656 -0.1495175256010813 0  -1.096551963468271 -0.2474214083134667 0  -1.062035591051129 -0.3437080366055648 0  -1.018392505427749 -0.4357940919278664 0  -0.963906797234254 -0.5237551381008568 0  -0.9004349420087374 -0.6065113503226908 0  -0.8273118672417819 -0.6833818771523594 0  -0.7459170058485201 -0.7528542140268361 0  -0.6572021441873331 -0.8145735591407486 0  -0.5633069519382707 -0.8693325631893434 0  -0.4617073822691312 -0.9150236065430528 0  -0.3569639417018909 -0.9524306107159112 0  -0.2482582516615554 -0.9798024899568422 0  -0.1378096367134096 -0.9973706382269311 0  -0.0263777455338023 -1.006048920915757 0  0.08543406939572289 -1.00280718076294 0  0.1972978562770321 -0.9895053375317983 0  0.3067776700823424 -0.9673881767579942 0  0.4142905664827451 -0.9350084389648102 0  0.5163984251259527 -0.8938862815641707 0  0.6143932927659587 -0.8440063028186597 0  0.7058705457832016 -0.7864400518372129 0  0.7904129041696104 -0.7201045618480596 0  0.867555653154366 -0.6461786189099308 0  0.9355438888872768 -0.5661536166057978 0  0.9949017614880745 -0.4807901147380508 0  1.044964720408787 -0.3903848393494943 0  1.083151254749304 -0.2964371145593708 0  1.111226485007372 -0.1988741179591715 0  1.128350240437731 -0.09997166726503449 0  -2.44909380760553 4.919096193539056 0  -2.449015466734317 -4.911563417844422 0  4.911512692776786 2.448661939278539 0  4.919538233757853 -2.450053925908795 0  2.446839905709106 -4.896981724152933 0  2.441251515751295 4.900703605880323 0  -4.911530776016967 -2.448679946085246 0  -4.911530720176005 2.448683726120801 0  -1.749066368756201 4.912417661071162 0  -1.744829188754379 -4.915802631624074 0  4.921977649847158 1.744764163929447 0  4.910701687724923 -1.748626878428307 0  -4.910978566860262 -1.748349312760272 0  -4.911789960706456 1.748085912821533 0  1.74637335296512 4.906379110054957 0  1.747856667871657 -4.894708005649415 0  -1.149265118423135 4.910498248635761 0  -1.130078448604786 -4.91826972059695 0  -4.911081862270578 -1.14853925217459 0  -4.910906447143467 1.148338792565611 0  1.144232045846192 -4.914525453516635 0  1.149269798113893 4.910489885128819 0  4.911237756869554 1.146819480748015 0  4.921837806719366 -1.152530346448705 0  -0.5468897839296272 -4.911833858148396 0  -0.5466504287225784 4.920348963067375 0  -4.910124758894594 -0.5490485047314491 0  -4.910149951753371 0.5476024044923802 0  4.909481013727222 -0.5493733478094999 0  4.920859469366437 0.5460842774409488 0  0.542692926972607 -4.898980145199964 0  0.551382871762074 4.917236938054622 0  -4.912607060401013 -3.048906330228848 0  4.919130612559256 3.046883088204295 0  4.912122963615743 -3.048892002096915 0  -4.913451491730275 3.045992965494297 0  3.055762702282502 -4.918088327594004 0  -3.049127918160026 -4.912072566221267 0  3.05268475779048 4.914137591892796 0  -3.048570755202807 4.91295643451501 0  -4.909349032219235 -0.04994166514003526 0  0.04513355114369652 -4.913798211986287 0  0.04958265294982825 4.920684895497732 0  4.916249481499703 -0.05132161177989916 0  3.545984783379446 -4.919520457367737 0  -3.54929748550796
[...]
<PointData  Vectors="f_1332"> 
<DataArray  type="Float64"  Name="f_1332"  NumberOfComponents="3" format="ascii">-4.5511937376880688e-07 -4.5513309233932523e-07 0.0000000000000000e+00  4.5511758904765852e-07 -4.5513181085548568e-07 0.0000000000000000e+00  5.0307251148258158e-07 5.0308250942025696e-07 0.0000000000000000e+00  -4.5511895036390581e-07 4.5513248366322027e-07 0.0000000000000000e+00  -6.2031528686335757e-01 -1.2655091832049719e-02 0.0000000000000000e+00  9.1168510231623472e-08 -9.0607889445518871e-07 0.0000000000000000e+00  -1.0660069298953574e-07 -8.6020128960907350e-07 0.0000000000000000e+00  1.0476461046659259e-07 -8.7329452650447272e-07 0.0000000000000000e+00  -9.1407430160204361e-08 -8.8100575810277839e-07 0.0000000000000000e+00  -2.1243690829724559e-08 -9.0513205045601345e-07 0.0000000000000000e+00  3.5871368943130796e-08 -1.0622594321167167e-06 0.0000000000000000e+00  6.0394639281173242e-09 -9.3734678322209224e-07 0.0000000000000000e+00  7.3454722020778501e-08 -7.7983544631729576e-07 0.0000000000000000e+00  -1.0506389989232885e-07 -8.4593862794372754e-07 0.0000000000000000e+00  1.2026492167160311e-07 -8.2626480470877933e-07 0.0000000000000000e+00  -2.6626806932352063e-08 -6.8119212066651883e-07 0.0000000000000000e+00  -5.3887964455238692e-09 -7.5331495993522390e-07 0.0000000000000000e+00  -1.3016743048589394e-08 -7.6779704548463007e-07 0.0000000000000000e+00  1.0352480114675165e-08 -7.7671838444235925e-07 0.0000000000000000e+00  2.8197251643700023e-10 -7.6109301592178750e-07 0.0000000000000000e+00  2.9057196235750673e-10 -7.6044814254791861e-07 0.0000000000000000e+00  5.0508091789388177e-08 -7.2633505815870724e-07 0.0000000000000000e+00  -4.4572763575525587e-08 -6.8800125534092252e-07 0.0000000000000000e+00  3.0591700366139875e-10 -7.5844024078161075e-07 0.0000000000000000e+00  3.9898219230221257e-08 -6.6127715515095668e-07 0.0000000000000000e+00  -1.2849878255452308e-07 -8.0723715434120781e-07 0.0000000000000000e+00  9.7325347210393238e-08 -8.4940481108036675e-07 0.0000000000000000e+00  -9.4290971858723704e-08 -8.4925655533393143e-07 0.0000000000000000e+00  1.2504238952578845e-07 -7.9924912874299806e-07 0.0000000000000000e+00  -3.7911577520498467e-08 -6.4699627224721793e-07 0.0000000000000000e+00  3.2423742377228707e-10 -7.5344277222382602e-07 0.0000000000000000e+00  3.5580591866588693e-08 -6.8510004236452969e-07 0.0000000000000000e+00  -1.2120737494817770e-07 -8.1102348258130134e-07 0.0000000000000000e+00  1.0025855924185129e-07 -8.4542182082480653e-07 0.0000000000000000e+00  -9.4966230882015082e-08 -8.6650991456927353e-07 0.0000000000000000e+00  1.0174443738194469e-09 -8.6788342069982135e-07 0.0000000000000000e+00  6.7816747244676253e-08 -9.7432630998831949e-07 0.0000000000000000e+00  1.1455833203329197e-08 -7.9103035035559471e-07 0.0000000000000000e+00  7.9238717453661706e-09 -7.6230070777264886e-07 0.0000000000000000e+00  6.1319845840804756e-10 -7.4759631380483791e-07 0.0000000000000000e+00  9.9292780096272822e-09 -7.2525657863383751e-07 0.0000000000000000e+00  4.0584608940359563e-08 -6.3620998204906940e-07 0.0000000000000000e+00  -7.9976270912033912e-08 -6.7766905863720222e-07 0.0000000000000000e+00  -8.9173614993672063e-08 -9.6371214990610958e-07 0.0000000000000000e+00  9.7946908146433793e-08 -9.6032037472512409e-07 0.0000000000000000e+00  5.2256726480176097e-08 -7.0020258413846229e-07 0.0000000000000000e+00  -9.5574007369091356e-08 -8.2530516568289496e-07 0.0000000000000000e+00  -1.0711019989530371e-08 -7.5159340799712406e-07 0.0000000000000000e+00  5.8067767947655475e-08 -9.1384384277185300e-07 0.0000000000000000e+00  1.8507717922863732e-09 -7.5738138629087955e-07 0.0000000000000000e+00  4.5694886977041516e-09 -7.5457336180247539e-07 0.0000000000000000e+00  7.8334652362147323e-11 -7.4211747822131768e-07 0.0000000000000000e+00  -3.6838947598219927e-10 -7.4299104720785442e-07 0.0000000000000000e+00  -1.8613082152267026e-09 -7.4743092592547284e-07 0.0000000000000000e+00  -1.2197625012401175e-08 -7.7631317810314260e-07 0.0000000000000000e+00  -7.2697276125629731e-08 -9.6117819917124276e-07 0.0000000000000000e+00  7.7551497074743597e-09 -8.3316300160897779e-07 0.0000000000000000e+00  9.1609261837105434e-08 -8.2464329970216952e-07 0.0000000000000000e+00  -1.0598311682818660e-07 -8.1700751549851152e-07 0.0000000000000000e+00  1.1978417076939477e-07 -7.9969765032412213e-07 0.0000000000000000e+00  -2.7941394634253664e-08 -6.6260938440331078e-07 0.0000000000000000e+00  -9.4029330645612913e-09 -7.3938309142880147e-07 0.0000000000000000e+00  -6.6680187570268057e-09 -7.5076026402145210e-07 0.0000000000000000e+00  5.2222557444101583e-09 -7.5230810264166244e-07 0.0000000000000000e+00  -5.1263331826308179e-09 -7.5542663030983717e-07 0.0000000000000000e+00  -1.0083939710631939e-08 -7.8595933497410425e-07 0.0000000000000000e+00  4.7593052041881198e-08 -7.1361322563102159e-07 0.0000000000000000e+00  -8.6860746993507898e-08 -7.6248660246996681e-07 0.0000000000000000e+00  1.3047192176585782e-08 -8.7449630227831849e-07 0.0000000000000000e+00  5.8987994206247073e-09 -8.3778305129512955e-07 0.0000000000000000e+00  1.5655091542702482e-08 -8.3047545098709548e-07 0.0000000000000000e+00  7.2646668261330405e-08 -6.8868400288495679e-07 0.0000000000000000e+00  -6.8307723558349143e-08 -6.8594040958018878e-07 0.0000000000000000e+00  -1.4631695400749472e-08 -8.1127969572120631e-07 0.0000000000000000e+00  2.7602931531206602e-08 -7.9239590743265162e-07 0.0000000000000000e+00  1.8113607091122113e-09 -7.5809429120299159e-07 0.0000000000000000e+00  9.8840404330788640e-11 -7.5306841711517015e-07 0.0000000000000000e+00  -5.6011271331769876e-09 -7.7661416129946482e-07 0.0000000000000000e+00  5.3597424534176381e-08 -6.8916506119574836e-07 0.0000000000000000e+00  -3.3406852606545624e-08 -6.6085070150237312e-07 0.0000000000000000e+00  -1.6577768398405557e-08 -7.4823262532087277e-07 0.0000000000000000e+00  -4.3694187323324425e-08 -8.0820043616106601e-07 0.0000000000000000e+00  -6.2645989037981914e-09 -8.8035567001873266e-07 0.0000000000000000e+00  8.5819852301811659e-08 -7.4714249416668295e-07 0.0000000000000000e+00  -6.2380670027273033e-08 -7.1783360331679346e-07 0.0000000000000000e+00  -4.7757162398440408e-09 -8.3021007964926848e-07 0.0000000000000000e+00  4.1491631744494338e-08 -7.8776972064278912e-07 0.0000000000000000e+00  -1.9013962332283278e-08 -7.5778705663973341e-07 0.0000000000000000e+00  -2.5337387824773171e-08 -7.9632589588777176e-07 0.0000000000000000e+00  2.9931955323027134e-09 -8.5232848754936034e-07 0.0000000000000000e+00  7.5039560317565683e-08 -7.1637256214649480e-07 0.0000000000000000e+00  -7.3101699968173490e-08 -7.1415122576822677e-07 0.0000000000000000e+00  -8.1483984903416448e-09 -8.4519288962151160e-07 0.0000000000000000e+00  3.3325725634914296e-08 -8.1040987855767352e-07 0.0000000000000000e+00  1.6023226442760913e-08 -7.4594233535645875e-07 0.0000000000000000e+00  -1.2393157967366403e-08 -7.4062528340408371e-07 0.0000000000000000e+00  -6.9155340713849830e-09 -7.7776644324249857e-07 0.0000000000000000e+00  5.2254384500493957e-08 -6.9634917875624869e-07 0.0000000000000000e+00  -6.5803894500936725e-08 -7.0879884930437245e-07 0.0000000000000000e+00  -1.8675778799958075e-08 -8.4043887765680409e-07 0.0000000000000000e+00  2.8430677797075597e-08 -8.1836214939642634e-07 0.0000000000000000e+00  3.3367759154574100e-09 -7.8031949930210793e-07 0.0000000000000000e+00  -6.7198711124322998e-09 -7.9444713319396922e-07 0.0000000000000000e+00  -6.0197812907943643e-08 -9.4818370097679865e-07 0.0000000000000000e+00  8.9112110621584744e-07 8.8213527295576332e-08 0.0000000000000000e+00  8.8542282170856478e-07 -1.2423604113033957e-07 0.0000000000000000e+00  9.1708623672845915e-07 1.1031953381723597e-07 0.0000000000000000e+00  7.5686290670559911e-07 -2.5068697652839140e-08 0.0000000000000000e+00  8.0194088048174994e-07 1.6777724349368610e-08 0.0000000000000000e+00  7.8020407113169394e-07 4.6977889110724021e-10 0.0000000000000000e+00  7.7968988520583490e-07 -2.6458598759794519e-10 0.0000000000000000e+00  7.7951916035171927e-07 7.2726817868649372e-10 0.0000000000000000e+00  7.8370075798114241e-07 -6.4593431761291908e-09 0.0000000000000000e+00  7.9235077131034934e-07 3.7562550532615335e-09 0.0000000000000000e+00  7.9548363631533574e-07 -6.8233344192452321e-09 0.0000000000000000e+00  7.9385311565296531e-07 1.1850896823827432e-08 0.0000000000000000e+00  7.8642167826315638e-07 -1.2898627652759441e-08 0.0000000000000000e+00  7.8668767731857322e-07 9.0666167890467337e-09 0.0000000000000000e+00  8.0115661510118519e-07 -1.4271426029569410e-08 0.0000000000000000e+00  7.8975019700435260e-07 2.2870535829731638e-08 0.0000000000000000e+00  7.7284109618958126e-07 -3.5192086562877517e-09 0.0000000000000000e+00  7.8194898151075334e-07 -1.1261720348584923e-08 0.0000000000000000e+00  7.7141836917308988e-07 1.6231411390288076e-08 0.0000000000000000e+00  7.7689021553297081e-07 -1.8144646911405381e-08 0.0000000000000000e+00  7.9646420478450050e-07 6.0533546411678578e-09 0.0000000000000000e+00  7.7149121749951561e-07 1.3320187268356402e-08 0.0000000000000000e+00  8.0420427769670272e-07 -3.2054387200209688e-08 0.0000000000000000e+00  8.3787005960368734e-07 -8.2789322395826958e-09 0.0000000000000000e+00  8.3574710442936744e-07 8.9094845803270207e-09 0.0000000000000000e+00  7.9635114306842176e-07 2.1434563624756132e-08 0.0000000000000000e+00  7.6436852874221338e-07 1.0760500213021043e-08 0.0000000000000000e+00  7.5106439737039122e-07 4.3090801523560426e-10 0.0000000000000000e+00  7.5007924798842596e-07 4.4821800497962906e-10 0.0000000000000000e+00  7.4908583530007998e-07 4.4897072675686604e-10 0.0000000000000000e+00  7.4813056065767554e-07 4.4575707262904664e-10 0.0000000000000000e+00  7.4714398249669938e-07 4.5838797980320857e-10 0.0000000000000000e+00  7.5713275026336851e-07 -1.1323074586618337e-08 0.0000000000000000e+00  7.7106811381826291e-07 1.5805890946156555e-09 0.0000000000000000e+00  7.5834134832347973e-07 1.1208876842255316e-08 0.0000000000000000e+00  7.9027274307857987e-07 -3.0775391820597656e-08 0.0000000000000000e+00  8.2286288162057585e-07 -9.8680523966275147e-09 0.0000000000000000e+00  8.5101569475692225e-07 -6.0918902475743870e-09 0.0000000000000000e+00  8.4938171793168281e-07 1.7941251269737959e-08 0.0000000000000000e+00  7.3206825087155918e-07 5.2858004287411061e-10 0.0000000000000000e+00  8.1929191485843256e-07 3.4220449849238713e-08 0.0000000000000000e+00  7.4147184701259216e-07 -1.0296071888271561e-09 0.0000000000000000e+00  7.3751833506173118e-07 1.5987804836110617e-09 0.0000000000000000e+00  7.3715340508967048e-07 2.5489339042626493e-10 0.0000000000000000e+00  7.9182250516954634e-07 -3.0199640888021517e-08 0.0000000000000000e+00  8.0161486009271166e-07 -9.1866488077026748e-09 0.0000000000000000e+00  8.2375060474123305e-07 -1.6203356007821870e-09 0.0000000000000000e+00  8.1457199128042904e-07 7.0091309176348658e-09 0.0000000000000000e+00  8.1072856170321435e-07 6.6534519334511610e-09 0.0000000000000000e+00  8.0936874548874389e-07 -1.4664488274455855e-08 0.0000000000000000e+00  8.3988359028744865e-07 -2.0759821908742812e-09 0.0000000000000000e+00  8.4914722828314750e-07 -1.7273209230196069e-09 0.0000000000000000e+00  8.2907477148719312e-07 5.5333902363198489e-10 0.0000000000000000e+00  8.4343302508729595e-07 5.1142673784296951e-10 0.0000000000000000e+00  8.4990232580004398e-07 -1.4041528621070361e-09 0.0000000000000000e+00  8.2998608195055563e-07 4.3602692136358876e-10 0.0000000000000000e+00  8.4155433724591418e-07 1.4323719637351929e-09 0.0000000000000000e+00  8.3632795610000984e-07 2.7057409952618149e-09 0.0000000000000000e+00  7.9379352564035039e-07 2.4693439009871559e-08 0.0000000000000000e+00  7.7180748700466262e-07 -2.5602342066965197e-11 0.0000000000000000e+00  7.6862621652843099e-07 8.8129229424059413e-09 0.0000000000000000e+00  7.6607015973872859e-07 -1.1951783872507364e-08 0.0000000000000000e+00  7.7227518952241519e-07 -2.2170859869298517e-10 0.0000000000000000e+00  7.8524803374478906e-07 -2.4196048465845862e-11 0.0000000000000000e+00  8.0445575135393101e-07 -2.3975578768893079e-08 0.0000000000000000e+00  8.4662335454065254e-07 -3.8530314211266841e-09 0.0000000000000000e+00  8.6082523544414494e-07 -2.8328059703831165e-09 0.0000000000000000e+00  8.4240365072037185e-07 -5.3147831636096269e-11 0.0000000000000000e+00  8.5419130465938436e-07 3.3988215475632332e-09 0.0000000000000000e+00  8.2913962712113746e-07 1.2313335446136340e-08 0.0000000000000000e+00  7.7993246419602530e-07 2.2633724437266830e-08 0.0000000000000000e+00  7.5479050738617580e-07 4.0622210126926907e-09 0.0000000000000000e+00  7.5198955977013706e-07 -4.2087386721095634e-10 0.0000000000000000e+00  7.5288870559555006e-07 -3.9542101030250452e-10 0.0000000000000000e+00  7.5629013924138658e-07 -1.4500014664441630e-09 0.0000000000000000e+00  7.6390916433995646e-07 -4.7823072293055546e-09 0.0000000000000000e+00  7.8491222017396454e-07 -1.0475190895914789e-08 0.0000000000000000e+00  8.1736349142773715e-07 -2.3680070283139927e-08 0.0000000000000000e+00  8.5708327790081480e-07 -1.0175115161318130e-09 0.0000000000000000e+00  8.3706717625035016e-07 1.1438906844088241e-08 0.0000000000000000e+00  8.0921722866664822e-07 1.4918353063795436e-08 0.0000000000000000e+00  8.0284465796345526e-07 -8.0221639045899474e-09 0.0000000000000000e+00  8.2180325408288584e-07 -1.9123380580708167e-08 0.0000000000000000e+00  8.5659045642630711e-07 2.1149057277292191e-10 0.0000000000000000e+00  8.4117302542545075e-07 1.0741415075056595e-08 0.0000000000000000e+00  8.1327853199341364e-07 8.7874376594265131e-09 0.0000000000000000e+00  7.8249395791785551e-07 1.8412238426565669e-08 0.0000000000000000e+00  7.7314834938428149e-07 -8.0253022945900166e-09 0.0000000000000000e+00  7.7232370417945718e-07 7.4928708074998595e-09 0.0000000000000000e+00  7.6463775619287248e-07 -2.4084473330103789e-10 0.0000000000000000e+00  7.6518011066179230e-07 -2.3348540666182683e-10 0.0000000000000000e+00  7.7870437685683042e-07 -1.1384397726378559e-08 0.0000000000000000e+00  7.7911111215567211e-07 1.0936829349373512e-08 0.0000000000000000e+00  7.6947045434194125e-07 -2.5099273590745649e-09 0.0000000000000000e+00  8.0022839979906693e-07 -1.2049507236986654e-08 0.0000000000000000e+00  8.1443484522929274e-07 -6.9839767797475588e-09 0.0000000000000000e+00  8.2320119178789331e-07 -1.7205906553474732e-08 0.0000000000000000e+00  8.4636700174036355e-07 -3.7408631954011964e-09 0.0000000000000000e+00  1.0392244040303464e-06 -6.0184021116520845e-08 0.0000000000000000e+00  -1.0908334168080127e-07 9.7277167573399289e-07 0.0000000000000000e+00  5.7015138217013026e-08 8.2994784122517619e-07 0.0000000000000000e+00  1.0482648868184838e-09 9.4630368162269707e-07 0.0000000000000000e+00  3.4513003468398258e-08 1.0620383949090246e-06 0.0000000000000000e+00  -1.8630110811100305e-08 9.0130175077955677e-07 0.0000000000000000e+00  -8.8528928391248160e-08 8.9482385973727075e-07 0.0000000000000000e+00  1.3334115929533182e-07 9.1995156459267799e-07 0.0000000000000000e+00  -1.4568037384533972e-07 9.2547300693402396e-07 0.0000000000000000e+00  1.1957744317918707e-08 7.0705899431102911e-07 0.0000000000000000e+00  7.7423025305399082e-09 7.6237677527687488e-07 0.0000000000000000e+00  -1.2210637469429639e-08 7.7848511256349421e-07 0.0000000000000000e+00  -1.1620265098477535e-08 7.5255189357653349e-07 0.0000000000000000e+00  -3.3815351283213822e-08 6.6261161199359569e-07 0.0000000000000000e+00  5.6706216571170272e-08 6.9604274198709145e-07 0.0000000000000000e+00  1.0537112998834268e-09 7.9205540277919748e-07 0.0000000000000000e+00  -1.8252091857298096e-09 7.8210003054178281e-07 0.0000000000000000e+00  -1.4671089118763010e-09 7.7598483243641413e-07 0.0000000000000000e+00  2.1457115403819356e-09 7.7904377142827800e-07 0.0000000000000000e+00  -1.2946209559458306e-09 7.8921486535063715e-07 0.0000000000000000e+00  -5.6487695045370474e-08 6.9608778316548180e-07 0.0000000000000000e+00  4.2330493098472316e-08 6.7731965428785355e-07 0.0000000000000000e+00  -3.8212841021206640e-09 7.4795469908700592e-07 0.0000000000000000e+00  9.1619525151336723e-09 7.5333913335005481e-07 0.0000000000000000e+00  -9.0323266627702891e-09 7.5013010986544965e-07 0.0000000000000000e+00  -2.7844930875606287e-08 6.7317006697718741e-07 0.0000000000000000e+00  1.1964592704645704e-07 8.1095699613863029e-07 0.0000000000000000e+00  -1.0517070815213962e-07 8.3447438527498920e-07 0.0000000000000000e+00  7.3763666749885207e-08 7.6690554117490458e-07 0.0000000000000000e+00  4.3011905284427669e-09 9.2243802032059732e-07 0.0000000000000000e+00  3.5190862613854296e-08 1.0396516119471972e-06 0.0000000000000000e+00  -2.3368042918466222e-08 8.8442233334686038e-07 0.0000000000000000e+00  -9.2536006676745997e-08 8.5718290185382567e-07 0.0000000000000000e+00  9.5961389217764259e-08 8.3901262092654093e-07 0.0000000000000000e+00  -1.2885902359290846e-07 7.9433997233566043e-07 0.0000000000000000e+00  4.2090966165384862e-08 6.5954904042203439e-07 0.0000000000000000e+00  -1.0488999800471869e-08 7.3091204760833720e-07 0.0000000000000000e+00  1.3517503491970632e-08 7.4008787829244848e-07 0.0000000000000000e+00  -3.6332894859106738e-09 7.5093036410728828e-07 0.0000000000000000e+00  -2.2868601336167418e-10 7.4473079974541447e-07 0.0000000000000000e+00  -2.1705234596032174e-10 7.4424382146648967e-07 0.0000000000000000e+00  -5.1287308497345354e-08 7.1422353172570829e-07 0.0000000000000000e+00  4.4458963922178494e-08 6.7011401171007074e-07 0.0000000000000000e+00  -1.5090921882870134e-09 7.5007897010612600e-07 0.0000000000000000e+00  2.8310541879616952e-08 7.7110493935633251e-07 0.0000000000000000e+00  -9.9071200351730919e-09 8.1336833059236266e-07 0.0000000000000000e+00  -7.0993671466932423e-08 6.8003385006011946e-07 0.0000000000000000e+00  6.8366710671962354e-08 6.7674357485938619e-07 0.0000000000000000e+00  2.5228591248910630e-08 8.1722481650336649e-07 0.0000000000000000e+00  8.6838371081892332e-10 8.4048997527899211e-07 0.0000000000000000e+00  5.5221596919488999e-09 8.5870880805895911e-07 0.0000000000000000e+00  -8.5795909562675116e-08 7.2933918137757943e-07 0.0000000000000000e+00  6.3509803945568334e-08 7.0103556123713267e-07 0.0000000000000000e+00  2.2488414422086314e-08 8.3618968482550263e-07 0.0000000000000000e+00  6.8046977628808325e-09 8.6905451363206650e-07 0.0000000000000000e+00  -1.1826891367095045e-08 8.6254023694230589e-07 0.0000000000000000e+00  -5.8392020631694042e-08 7.1716440899092135e-07 0.0000000000000000e+00  1.1943505687931827e-07 8.2801997050204031e-07 0.0000000000000000e+00  -1.0429365100635052e-07 8.5169278419367463e-07 0.0000000000000000e+00  8.6637762702933924e-08 8.3921898057291156e-07 0.0000000000000000e+00  -1.2890202209679493e-07 7.7757350603426630e-07 0.0000000000000000e+00  4.4331377351700460e-08 6.4166095961039637e-07 0.0000000000000000e+00  5.3657968171615340e-09 7.5109696695131181e-07 0.0000000000000000e+00  1.1248357205380152e-09 7.5839194928256440e-07 0.0000000000000000e+00  -5.6942651106418851e-09 7.5314314951147510e-07 0.0000000000000000e+00  1.1499687523595686e-09 7.4761111172155287e-07 0.0000000000000000e+00  -5.8587206976728647e-10 7.4914533693103710e-07 0.0000000000000000e+00  5.8656469817671635e-09 7.5466520230461680e-07 0.0000000000000000e+00  2.5717711863322400e-08 7.9146795174764269e-07 0.0000000000000000e+00  -8.9114908808208767e-09 8.2158577235208042e-07 0.0000000000000000e+00  -7.0176700059675963e-08 6.9790569118856533e-07 0.0000000000000000e+00  5.3904146126899119e-08 7.0246246064018372e-07 0.0000000000000000e+00  3.2770105795190513e-10 7.5195022988316117e-07 0.0000000000000000e+00  3.0952082726491190e-08 7.8059846383866958e-07 0.0000000000000000e+00  -1.2926969602480785e-09 8.3378875910419739e-07 0.0000000000000000e+00  -1.9184986626703344e-08 8.0038606369709472e-07 0.0000000000000000e+00  -9.8389620501736599e-09 7.6636674467889854e-07 0.0000000000000000e+00  -4.0165005838704662e-08 6.9616248298869408e-07 0.0000000000000000e+00  1.0988192150757534e-07 7.9754139500304626e-07 