<?xml version="1.0"?>
<VTKFile type="UnstructuredGrid"  version="0.1"  >
<UnstructuredGrid>
<Piece  NumberOfPoints="11902" NumberOfCells="23402">
<Points>
<DataArray  type="Float64"  NumberOfComponents="3"  format="ascii">-5 -5 0  5 -5 0  5 5 0  -5 5 0  1.197216567196905 0.001277479223619998 0  -4.9 -5 0  -4.8 -5 0  -4.7 -5 0  -4.6 -5 0  -4.5 -5 0  -4.4 -5 0  -4.3 -5 0  -4.2 -5 0  -4.1 -5 0  -4 -5 0  -3.9 -5 0  -3.8 -5 0  -3.7 -5 0  -3.6 -5 0  -3.5 -5 0  -3.4 -5 0  -3.3 -5 0  -3.2 -5 0  -3.1 -5 0  -3 -5 0  -2.9 -5 0  -2.8 -5 0  -2.7 -5 0  -2.6 -5 0  -2.5 -5 0  -2.4 -5 0  -2.3 -5 0  -2.2 -5 0  -2.1 -5 0  -2 -5 0  -1.9 -5 0  -1.8 -5 0  -1.7 -5 0  -1.6 -5 0  -1.5 -5 0  -1.4 -5 0  -1.3 -5 0  -1.2 -5 0  -1.1 -5 0  -1 -5 0  -0.9000000000000004 -5 0  -0.7999999999999998 -5 0  -0.7000000000000002 -5 0  -0.5999999999999996 -5 0  -0.5 -5 0  -0.4000000000000004 -5 0  -0.2999999999999998 -5 0  -0.2000000000000002 -5 0  -0.09999999999999964 -5 0  0 -5 0  0.09999999999999964 -5 0  0.2000000000000002 -5 0  0.2999999999999998 -5 0  0.4000000000000004 -5 0  0.5 -5 0  0.5999999999999996 -5 0  0.7000000000000002 -5 0  0.7999999999999998 -5 0  0.9000000000000004 -5 0  1 -5 0  1.1 -5 0  1.2 -5 0  1.3 -5 0  1.4 -5 0  1.5 -5 0  1.6 -5 0  1.7 -5 0  1.8 -5 0  1.9 -5 0  2 -5 0  2.1 -5 0  2.2 -5 0  2.3 -5 0  2.4 -5 0  2.5 -5 0  2.6 -5 0  2.7 -5 0  2.8 -5 0  2.9 -5 0  3 -5 0  3.1 -5 0  3.199999999999999 -5 0  3.300000000000001 -5 0  3.4 -5 0  3.5 -5 0  3.6 -5 0  3.699999999999999 -5 0  3.800000000000001 -5 0  3.9 -5 0  4 -5 0  4.1 -5 0  4.199999999999999 -5 0  4.300000000000001 -5 0  4.4 -5 0  4.5 -5 0  4.6 -5 0  4.699999999999999 -5 0  4.800000000000001 -5 0  4.9 -5 0  5 -4.9 0  5 -4.8 0  5 -4.7 0  5 -4.6 0  5 -4.5 0  5 -4.4 0  5 -4.3 0  5 -4.2 0  5 -4.1 0  5 -4 0  5 -3.9 0  5 -3.8 0  5 -3.7 0  5 -3.6 0  5 -3.5 0  5 -3.4 0  5 -3.3 0  5 -3.2 0  5 -3.1 0  5 -3 0  5 -2.9 0  5 -2.8 0  5 -2.7 0  5 -2.6 0  5 -2.5 0  5 -2.4 0  5 -2.3 0  5 -2.2 0  5 -2.1 0  5 -2 0  5 -1.9 0  5 -1.8 0  5 -1.7 0  5 -1.6 0  5 -1.5 0  5 -1.4 0  5 -1.3 0  5 -1.2 0  5 -1.1 0  5 -1 0  5 -0.9000000000000004 0  5 -0.7999999999999998 0  5 -0.7000000000000002 0  5 -0.5999999999999996 0  5 -0.5 0  5 -0.4000000000000004 0  5 -0.2999999999999998 0  5 -0.2000000000000002 0  5 -0.09999999999999964 0  5 0 0  5 0.09999999999999964 0  5 0.2000000000000002 0  5 0.2999999999999998 0  5 0.4000000000000004 0  5 0.5 0  5 0.5999999999999996 0  5 0.7000000000000002 0  5 0.7999999999999998 0  5 0.9000000000000004 0  5 1 0  5 1.1 0  5 1.2 0  5 1.3 0  5 1.4 0  5 1.5 0  5 1.6 0  5 1.7 0  5 1.8 0  5 1.9 0  5 2 0  5 2.1 0  5 2.2 0  5 2.3 0  5 2.4 0  5 2.5 0  5 2.6 0  5 2.7 0  5 2.8 0  5 2.9 0  5 3 0  5 3.1 0  5 3.199999999999999 0  5 3.300000000000001 0  5 3.4 0  5 3.5 0  5 3.6 0  5 3.699999999999999 0  5 3.800000000000001 0  5 3.9 0  5 4 0  5 4.1 0  5 4.199999999999999 0  5 4.300000000000001 0  5 4.4 0  5 4.5 0  5 4.6 0  5 4.699999999999999 0  5 4.800000000000001 0  5 4.9 0  4.9 5 0  4.8 5 0  4.7 5 0  4.6 5 0  4.5 5 0  4.4 5 0  4.3 5 0  4.2 5 0  4.1 5 0  4 5 0  3.9 5 0  3.8 5 0  3.7 5 0  3.6 5 0  3.5 5 0  3.4 5 0  3.3 5 0  3.2 5 0  3.1 5 0  3 5 0  2.9 5 0  2.8 5 0  2.7 5 0  2.6 5 0  2.5 5 0  2.4 5 0  2.3 5 0  2.2 5 0  2.1 5 0  2 5 0  1.9 5 0  1.8 5 0  1.7 5 0  1.6 5 0  1.5 5 0  1.4 5 0  1.3 5 0  1.2 5 0  1.1 5 0  1 5 0  0.9000000000000004 5 0  0.7999999999999998 5 0  0.7000000000000002 5 0  0.5999999999999996 5 0  0.5 5 0  0.4000000000000004 5 0  0.2999999999999998 5 0  0.2000000000000002 5 0  0.09999999999999964 5 0  0 5 0  -0.09999999999999964 5 0  -0.2000000000000002 5 0  -0.2999999999999998 5 0  -0.4000000000000004 5 0  -0.5 5 0  -0.5999999999999996 5 0  -0.7000000000000002 5 0  -0.7999999999999998 5 0  -0.9000000000000004 5 0  -1 5 0  -1.1 5 0  -1.2 5 0  -1.3 5 0  -1.4 5 0  -1.5 5 0  -1.6 5 0  -1.7 5 0  -1.8 5 0  -1.9 5 0  -2 5 0  -2.1 5 0  -2.2 5 0  -2.3 5 0  -2.4 5 0  -2.5 5 0  -2.6 5 0  -2.7 5 0  -2.8 5 0  -2.9 5 0  -3 5 0  -3.1 5 0  -3.199999999999999 5 0  -3.300000000000001 5 0  -3.4 5 0  -3.5 5 0  -3.6 5 0  -3.699999999999999 5 0  -3.800000000000001 5 0  -3.9 5 0  -4 5 0  -4.1 5 0  -4.199999999999999 5 0  -4.300000000000001 5 0  -4.4 5 0  -4.5 5 0  -4.6 5 0  -4.699999999999999 5 0  -4.800000000000001 5 0  -4.9 5 0  -5 4.9 0  -5 4.8 0  -5 4.7 0  -5 4.6 0  -5 4.5 0  -5 4.4 0  -5 4.3 0  -5 4.2 0  -5 4.1 0  -5 4 0  -5 3.9 0  -5 3.8 0  -5 3.7 0  -5 3.6 0  -5 3.5 0  -5 3.4 0  -5 3.3 0  -5 3.2 0  -5 3.1 0  -5 3 0  -5 2.9 0  -5 2.8 0  -5 2.7 0  -5 2.6 0  -5 2.5 0  -5 2.4 0  -5 2.3 0  -5 2.2 0  -5 2.1 0  -5 2 0  -5 1.9 0  -5 1.8 0  -5 1.7 0  -5 1.6 0  -5 1.5 0  -5 1.4 0  -5 1.3 0  -5 1.2 0  -5 1.1 0  -5 1 0  -5 0.9000000000000004 0  -5 0.7999999999999998 0  -5 0.7000000000000002 0  -5 0.5999999999999996 0  -5 0.5 0  -5 0.4000000000000004 0  -5 0.2999999999999998 0  -5 0.2000000000000002 0  -5 0.09999999999999964 0  -5 0 0  -5 -0.09999999999999964 0  -5 -0.2000000000000002 0  -5 -0.2999999999999998 0  -5 -0.4000000000000004 0  -5 -0.5 0  -5 -0.5999999999999996 0  -5 -0.7000000000000002 0  -5 -0.7999999999999998 0  -5 -0.9000000000000004 0  -5 -1 0  -5 -1.1 0  -5 -1.2 0  -5 -1.3 0  -5 -1.4 0  -5 -1.5 0  -5 -1.6 0  -5 -1.7 0  -5 -1.8 0  -5 -1.9 0  -5 -2 0  -5 -2.1 0  -5 -2.2 0  -5 -2.3 0  -5 -2.4 0  -5 -2.5 0  -5 -2.6 0  -5 -2.7 0  -5 -2.8 0  -5 -2.9 0  -5 -3 0  -5 -3.1 0  -5 -3.199999999999999 0  -5 -3.300000000000001 0  -5 -3.4 0  -5 -3.5 0  -5 -3.6 0  -5 -3.699999999999999 0  -5 -3.800000000000001 0  -5 -3.9 0  -5 -4 0  -5 -4.1 0  -5 -4.199999999999999 0  -5 -4.300000000000001 0  -5 -4.4 0  -5 -4.5 0  -5 -4.6 0  -5 -4.699999999999999 0  -5 -4.800000000000001 0  -5 -4.9 0  1.191257872860176 0.09913631885429244 0  1.172563822218183 0.1973385742341367 0  1.141278435252818 0.2946064278551154 0  1.100789433728738 0.3861552352844367 0  1.048147454690594 0.4768382958345607 0  0.9861384840312422 0.5619585634669119 0  0.9132386731335276 0.6417269898765539 0  0.8310627839620297 0.7145463771544117 0  0.7418505752903036 0.7802384608234655 0  0.6445030134678964 0.8387657025565818 0  0.5400517123167944 0.8895878921936563 0  0.4314066881701951 0.9314865781156176 0  0.3204085743917376 0.9642983618858662 0  0.2038908842455546 0.9866995413667023 0  0.08843749740440651 1.001270617128746 0  -0.02769968950159394 1.004040457566697 0  -0.1440089939610003 0.9943310927615649 0  -0.261604129304873 0.9766626326038983 0  -0.3759261394392112 0.9504720759757447 0  -0.4851556909370755 0.9139497891300167 0  -0.589638924534557 0.8683783187902953 0  -0.6890392638032111 0.8136538872498258 0  -0.7813246203720583 0.750747588616101 0  -0.8670792249939671 0.6802353134640912 0  -0.9454979123454754 0.6021525984799895 0  -1.013575846191745 0.5197179830918515 0  -1.07216663863993 0.4327736674389886 0  -1.119471107615517 0.3406465775044037 0  -1.154940654837448 0.2465490371800198 0  -1.178790066568287 0.1499485575896996 0  -1.190880005537445 0.05078715144160582 0  -1.190875914827473 -0.04904181348452077 0  -1.178729131337117 -0.1478743800806273 0  -1.155779886588572 -0.2444742374021523 0  -1.118959968316006 -0.3402803580620464 0  -1.072528740535579 -0.4315608825360437 0  -1.014561570682214 -0.5188060911960894 0  -0.9470049038719713 -0.6007969717680266 0  -0.8688972656120971 -0.6777151364052055 0  -0.7827350196920988 -0.7472411680830496 0  -0.6891630147789994 -0.8085344010898065 0  -0.5898468939483231 -0.8628713414557527 0  -0.4824379839109378 -0.9096662776161515 0  -0.3726713823993861 -0.9476916085624004 0  -0.2587705620196976 -0.9753086123870933 0  -0.1426127650958409 -0.9934146595221005 0  -0.02728924295281566 -1.003169230734721 0  0.08904976152070669 -0.9987838616359274 0  0.2067499353945854 -0.9844273380333491 0  0.3220100081928528 -0.9626323004501927 0  0.4347741326833728 -0.9300646507602066 0  0.5417088980651096 -0.8886268860867681 0  0.6452246090247815 -0.8383559046284135 0  0.7420227990408428 -0.7812085329879409 0  0.8311285874373608 -0.7152552892433337 0  0.9127405673326359 -0.6411680308882219 0  0.9847179084758221 -0.5612967559677438 0  1.048006969408053 -0.4762773710957175 0  1.101823794341482 -0.3862251828923524 0  1.142694062722169 -0.2931686308025447 0  1.172819236637338 -0.1965106514748471 0  1.19127862366063 -0.09867313820028034 0  -2.44879017594216 4.918534859293668 0  -2.448685084733015 -4.91095139221673 0  4.910886127781271 2.448220826798081 0  4.918969773097159 -2.449652818357482 0  2.446455370161898 -4.896262432364479 0  2.440879539182376 4.900007921019384 0  -4.910909510382829 -2.448243753532353 0  -4.910907818842888 2.448247624596597 0  -1.748753097928939 4.911609881709516 0  -1.744529662084156 -4.915027494119279 0  4.92118616541916 1.744364964257382 0  4.909797824938541 -1.748169242712912 0  -4.910084900227496 -1.747898572636376 0  -4.910902592362463 1.747639966293759 0  1.746040789219314 4.905511242089283 0  1.747484053792174 -4.893733486203147 0  -1.149016006047782 4.909520635294512 0  -1.129854367335455 -4.917376306037574 0  -4.909963022156993 -1.148168374024032 0  -4.90978382227029 1.147968500456065 0  1.143999221639718 -4.913589910118581 0  1.149023589220848 4.909509239578586 0  4.910109424925316 1.146445684100755 0  4.920846733661349 -1.152199665549209 0  -0.5467602864307944 -4.910772793527657 0  -0.5465329891456652 4.919387308821912 0  -4.908824822778417 -0.5488423149724301 0  -4.908849260231749 0.5473985341426645 0  4.908159128164875 -0.5491631416338245 0  4.919703210125128 0.5459023097268854 0  0.5425509862768441 -4.8977611168864 0  0.5512634729536552 4.916236649804169 0  -4.912188024915801 -3.04854586971424 0  4.918739498352641 3.046545640371775 0  4.91169908417957 -3.048525570559006 0  -4.913034399486961 3.045635343396127 0  3.055491996004089 -4.917676651474808 0  -3.048836807442532 -4.911632690241524 0  3.052399782533997 4.913704827593741 0  -3.048281485443127 4.912519705922744 0  -4.907981285549019 -0.04992104515954481 0  0.04512571512204248 -4.912729260011204 0  0.04957363070606104 4.919698440463447 0  4.914973802852637 -0.05130231307613953 0  3.545769802551115 -4.919232121801832 0  -3.54906390
[...]
<PointData  Vectors="f_2286"> 
<DataArray  type="Float64"  Name="f_2286"  NumberOfComponents="3" format="ascii">-4.5504684726247443e-07 -4.5506497849836693e-07 0.0000000000000000e+00  4.5504448918467458e-07 -4.5506320431463412e-07 0.0000000000000000e+00  5.0300013466529848e-07 5.0301337784944839e-07 0.0000000000000000e+00  -4.5504629277300490e-07 4.5506419279611675e-07 0.0000000000000000e+00  -4.0420140555323952e-01 -7.7768649065913702e-03 0.0000000000000000e+00  9.1233377418321381e-08 -9.0583430327053629e-07 0.0000000000000000e+00  -1.0651380688651941e-07 -8.5971116746267381e-07 0.0000000000000000e+00  1.0482294534964959e-07 -8.7270646465889006e-07 0.0000000000000000e+00  -9.1314364373532149e-08 -8.8007955642725497e-07 0.0000000000000000e+00  -2.1148714486891103e-08 -9.0399352066060814e-07 0.0000000000000000e+00  3.5948586286126254e-08 -1.0607917067816287e-06 0.0000000000000000e+00  6.1186212944778118e-09 -9.3579159031738027e-07 0.0000000000000000e+00  7.3523724519085767e-08 -7.7844281669494937e-07 0.0000000000000000e+00  -1.0496982496322884e-07 -8.4393218238774907e-07 0.0000000000000000e+00  1.2032787560317390e-07 -8.2450802899384674e-07 0.0000000000000000e+00  -2.6536595889321499e-08 -6.7930599328820045e-07 0.0000000000000000e+00  -5.3007660845563879e-09 -7.5109736507688451e-07 0.0000000000000000e+00  -1.2925405312559821e-08 -7.6531732457335010e-07 0.0000000000000000e+00  1.0442480023793661e-08 -7.7406167760322619e-07 0.0000000000000000e+00  3.7529690670635563e-10 -7.5825501491771920e-07 0.0000000000000000e+00  3.8612111979865217e-10 -7.5740097636849013e-07 0.0000000000000000e+00  5.0597608523882091e-08 -7.2337038437593277e-07 0.0000000000000000e+00  -4.4469134764477419e-08 -6.8470500694938559e-07 0.0000000000000000e+00  4.0660756197069452e-10 -7.5474505162268685e-07 0.0000000000000000e+00  3.9998733456367109e-08 -6.5798310290303071e-07 0.0000000000000000e+00  -1.2839783977978981e-07 -8.0237827023492722e-07 0.0000000000000000e+00  9.7424362352381828e-08 -8.4484209362008239e-07 0.0000000000000000e+00  -9.4179669386667077e-08 -8.4374917120769770e-07 0.0000000000000000e+00  1.2513336703929581e-07 -7.9459284668546244e-07 0.0000000000000000e+00  -3.7800309733368369e-08 -6.4249904445098164e-07 0.0000000000000000e+00  4.3316924861302970e-10 -7.4813889785708865e-07 0.0000000000000000e+00  3.5690380431214282e-08 -6.8019148854859010e-07 0.0000000000000000e+00  -1.2110867112474890e-07 -8.0434376152486767e-07 0.0000000000000000e+00  1.0036671304329639e-07 -8.3903802203671581e-07 0.0000000000000000e+00  -9.4859473518769548e-08 -8.5896265998945065e-07 0.0000000000000000e+00  1.1520421816819790e-09 -8.6041692960602831e-07 0.0000000000000000e+00  6.7931859596830817e-08 -9.6585950840105550e-07 0.0000000000000000e+00  1.1558912165323417e-08 -7.8377636310894880e-07 0.0000000000000000e+00  8.0236020523963250e-09 -7.5507795782371038e-07 0.0000000000000000e+00  7.0893732953734065e-10 -7.4027910086809709e-07 0.0000000000000000e+00  1.0022671066155372e-08 -7.1799315289454142e-07 0.0000000000000000e+00  4.0680660487981640e-08 -6.2978095500075009e-07 0.0000000000000000e+00  -7.9916431455256242e-08 -6.7028641438255620e-07 0.0000000000000000e+00  -8.9115479623925056e-08 -9.5303664467477828e-07 0.0000000000000000e+00  9.8032429291369231e-08 -9.4995702803922449e-07 0.0000000000000000e+00  5.2332862692176477e-08 -6.9247136537747476e-07 0.0000000000000000e+00  -9.5530879500446304e-08 -8.1568360770854604e-07 0.0000000000000000e+00  -1.0648444324287914e-08 -7.4290623102723588e-07 0.0000000000000000e+00  5.8128533943258303e-08 -9.0319638039522228e-07 0.0000000000000000e+00  1.8905649294852587e-09 -7.4841782380215848e-07 0.0000000000000000e+00  4.6026051358595333e-09 -7.4556703921417046e-07 0.0000000000000000e+00  1.0279267089919322e-10 -7.3319761425901627e-07 0.0000000000000000e+00  -3.5181644317345773e-10 -7.3401623431551649e-07 0.0000000000000000e+00  -1.8530811441197835e-09 -7.3837390477353673e-07 0.0000000000000000e+00  -1.2200146837233587e-08 -7.6688981276599954e-07 0.0000000000000000e+00  -7.2720906690668848e-08 -9.4950156777985333e-07 0.0000000000000000e+00  7.7328921892024765e-09 -8.2311205173319097e-07 0.0000000000000000e+00  9.1606828542951394e-08 -8.1463426137024931e-07 0.0000000000000000e+00  -1.0603634926378724e-07 -8.0733462247543250e-07 0.0000000000000000e+00  1.1977564000733212e-07 -7.9004822051101038e-07 0.0000000000000000e+00  -2.7993628842320697e-08 -6.5489047259161411e-07 0.0000000000000000e+00  -9.4576928657060786e-09 -7.3082455086666989e-07 0.0000000000000000e+00  -6.7282232858583937e-09 -7.4218804660076872e-07 0.0000000000000000e+00  5.1578573560165071e-09 -7.4382824663015921e-07 0.0000000000000000e+00  -5.1987321475275428e-09 -7.4708375324372288e-07 0.0000000000000000e+00  -1.0162600675014043e-08 -7.7745715704370106e-07 0.0000000000000000e+00  4.7520259083088193e-08 -7.0590995250291457e-07 0.0000000000000000e+00  -8.6959535971932706e-08 -7.5483630173511854e-07 0.0000000000000000e+00  1.2957180898802614e-08 -8.6560781251881084e-07 0.0000000000000000e+00  5.8046303006514586e-09 -8.2951588636379100e-07 0.0000000000000000e+00  1.5559397193369255e-08 -8.2247911383526099e-07 0.0000000000000000e+00  7.2555320509316649e-08 -6.8205096088019215e-07 0.0000000000000000e+00  -6.8414972781522994e-08 -6.8002818808538285e-07 0.0000000000000000e+00  -1.4738446859373012e-08 -8.0429827873055149e-07 0.0000000000000000e+00  2.7496396613289604e-08 -7.8566954333485447e-07 0.0000000000000000e+00  1.7032439613806284e-09 -7.5198782353805305e-07 0.0000000000000000e+00  -9.9276676835786612e-12 -7.4724689961034420e-07 0.0000000000000000e+00  -5.7102558766070908e-09 -7.7087872707377564e-07 0.0000000000000000e+00  5.3489603006488035e-08 -6.8407710923173351e-07 0.0000000000000000e+00  -3.3514821402362678e-08 -6.5649379701864217e-07 0.0000000000000000e+00  -1.6685624172570926e-08 -7.4346225956069966e-07 0.0000000000000000e+00  -4.3798201244835291e-08 -8.0339556532460474e-07 0.0000000000000000e+00  -6.3703761916663614e-09 -8.7525271960102845e-07 0.0000000000000000e+00  8.5710610321680012e-08 -7.4272196098414782e-07 0.0000000000000000e+00  -6.2475265024104801e-08 -7.1429441690149860e-07 0.0000000000000000e+00  -4.8767131537370250e-09 -8.2615161815881208e-07 0.0000000000000000e+00  4.1387000606982856e-08 -7.8400497088980891e-07 0.0000000000000000e+00  -1.9109634121625368e-08 -7.5456586187537581e-07 0.0000000000000000e+00  -2.5429352462628235e-08 -7.9318135631235040e-07 0.0000000000000000e+00  2.8992009078421995e-09 -8.4912338257958426e-07 0.0000000000000000e+00  7.4938900294359555e-08 -7.1367571950796709e-07 0.0000000000000000e+00  -7.3178521911898154e-08 -7.1202310241886443e-07 0.0000000000000000e+00  -8.2355100714664373e-09 -8.4272332169463117e-07 0.0000000000000000e+00  3.3233956476596949e-08 -8.0816106647954649e-07 0.0000000000000000e+00  1.5936327478500545e-08 -7.4408923049499737e-07 0.0000000000000000e+00  -1.2473698112168311e-08 -7.3902100053494047e-07 0.0000000000000000e+00  -6.9957854078318119e-09 -7.7626558815293877e-07 0.0000000000000000e+00  5.2165680411433836e-08 -6.9508192659572653e-07 0.0000000000000000e+00  -6.5869929273448018e-08 -7.0782654940411665e-07 0.0000000000000000e+00  -1.8751038048009602e-08 -8.3942961726668804e-07 0.0000000000000000e+00  2.8348040259004037e-08 -8.1752530978952176e-07 0.0000000000000000e+00  3.2596154159597987e-09 -7.7971772018012350e-07 0.0000000000000000e+00  -6.7948903003305931e-09 -7.9402400382303118e-07 0.0000000000000000e+00  -6.0267620125396603e-08 -9.4792334393402147e-07 0.0000000000000000e+00  8.9089478676766771e-07 8.8267564650856609e-08 0.0000000000000000e+00  8.8494667529252421e-07 -1.2415375214305774e-07 0.0000000000000000e+00  9.1654762806898026e-07 1.1036687879988567e-07 0.0000000000000000e+00  7.5614990402596106e-07 -2.4995727506397254e-08 0.0000000000000000e+00  8.0107566851496721e-07 1.6844087266590372e-08 0.0000000000000000e+00  7.7917826983612860e-07 5.4061297815520928e-10 0.0000000000000000e+00  7.7849634655805487e-07 -1.9193676293981944e-10 0.0000000000000000e+00  7.7815635744392954e-07 8.0169173497292382e-10 0.0000000000000000e+00  7.8213921584498509e-07 -6.3814315424708007e-09 0.0000000000000000e+00  7.9061120235165894e-07 3.8348385724447997e-09 0.0000000000000000e+00  7.9352130450408275e-07 -6.7403554107543177e-09 0.0000000000000000e+00  7.9174708697397258e-07 1.1933365222120314e-08 0.0000000000000000e+00  7.8406217760769749e-07 -1.2808366152252130e-08 0.0000000000000000e+00  7.8418267672857887e-07 9.1563431976230366e-09 0.0000000000000000e+00  7.9831169703014148e-07 -1.4174485645440314e-08 0.0000000000000000e+00  7.8684486811108779e-07 2.2965133785706359e-08 0.0000000000000000e+00  7.6967661681250365e-07 -3.4164696417678164e-09 0.0000000000000000e+00  7.7847520627226169e-07 -1.1153822056053290e-08 0.0000000000000000e+00  7.6785241752042929e-07 1.6339148792753679e-08 0.0000000000000000e+00  7.7290027172607629e-07 -1.8028259090366445e-08 0.0000000000000000e+00  7.9220837421179329e-07 6.1708538790664948e-09 0.0000000000000000e+00  7.6712866200517032e-07 1.3440807750577503e-08 0.0000000000000000e+00  7.9915448901336246e-07 -3.1925135525988802e-08 0.0000000000000000e+00  8.3241036854887014e-07 -8.1483051461042060e-09 0.0000000000000000e+00  8.3006139147659804e-07 9.0424379949908951e-09 0.0000000000000000e+00  7.9068126962889256e-07 2.1570444672587805e-08 0.0000000000000000e+00  7.5856799893756022e-07 1.0900388625103701e-08 0.0000000000000000e+00  7.4500343680881507e-07 5.7378494260867716e-10 0.0000000000000000e+00  7.4371237851997296e-07 5.9326077377470968e-10 0.0000000000000000e+00  7.4241020178776576e-07 5.9569005936020257e-10 0.0000000000000000e+00  7.4114417199553097e-07 5.9354684923468310e-10 0.0000000000000000e+00  7.3984703016796909e-07 6.0653171235785139e-10 0.0000000000000000e+00  7.4935536283003992e-07 -1.1176528530111206e-08 0.0000000000000000e+00  7.6288536149432946e-07 1.7272435256994654e-09 0.0000000000000000e+00  7.5002216899979446e-07 1.1354695716408016e-08 0.0000000000000000e+00  7.8107511670857966e-07 -3.0639072260615081e-08 0.0000000000000000e+00  8.1306181464815116e-07 -9.7324928228954815e-09 0.0000000000000000e+00  8.4056580038142473e-07 -5.9607090670067774e-09 0.0000000000000000e+00  8.3873215428220456e-07 1.8070916744388796e-08 0.0000000000000000e+00  7.2260595654891089e-07 6.4744107602129046e-10 0.0000000000000000e+00  8.0850459475511559e-07 3.4341769226775853e-08 0.0000000000000000e+00  7.3139250021224179e-07 -9.2865953631426475e-10 0.0000000000000000e+00  7.2729985251807775e-07 1.6903473798277305e-09 0.0000000000000000e+00  7.2675603570066083e-07 3.3480042212289114e-10 0.0000000000000000e+00  7.8040722337713424e-07 -3.0142389605745939e-08 0.0000000000000000e+00  7.8997734376561755e-07 -9.1342850871120008e-09 0.0000000000000000e+00  8.1168509042334316e-07 -1.5787431329473644e-09 0.0000000000000000e+00  8.0256956138835927e-07 7.0401000850672353e-09 0.0000000000000000e+00  7.9872610150976888e-07 6.6703832814130441e-09 0.0000000000000000e+00  7.9737152687174347e-07 -1.4669910138705089e-08 0.0000000000000000e+00  8.2744346523872282e-07 -2.0908573927190698e-09 0.0000000000000000e+00  8.3661876112269965e-07 -1.7557190865041057e-09 0.0000000000000000e+00  8.1693372003497769e-07 5.1206128632382546e-10 0.0000000000000000e+00  8.3119047889306893e-07 4.5667389617244571e-10 0.0000000000000000e+00  8.3771626096921316e-07 -1.4719990810408016e-09 0.0000000000000000e+00  8.1826613414345841e-07 3.5681677290568149e-10 0.0000000000000000e+00  8.2986728784502665e-07 1.3421223209608004e-09 0.0000000000000000e+00  8.2493933872796882e-07 2.6057518284243617e-09 0.0000000000000000e+00  7.8315309504884984e-07 2.4590457351389184e-08 0.0000000000000000e+00  7.6179882446459495e-07 -1.4412256162765440e-10 0.0000000000000000e+00  7.5889095102065177e-07 8.6893445544813295e-09 0.0000000000000000e+00  7.5673940409718231e-07 -1.2086501276438530e-08 0.0000000000000000e+00  7.6311790062021327e-07 -3.5886869810418105e-10 0.0000000000000000e+00  7.7624743828271631e-07 -1.6543211867125537e-10 0.0000000000000000e+00  7.9568189652080957e-07 -2.4123297243219663e-08 0.0000000000000000e+00  8.3764061388315454e-07 -4.0000580848448366e-09 0.0000000000000000e+00  8.5205262933370850e-07 -2.9807899585262473e-09 0.0000000000000000e+00  8.3416822098441228e-07 -2.0112308800382390e-10 0.0000000000000000e+00  8.4618824538355586e-07 3.2514586302513030e-09 0.0000000000000000e+00  8.2167957650491563e-07 1.2167226849713520e-08 0.0000000000000000e+00  7.7318824582072484e-07 2.2489223667365585e-08 0.0000000000000000e+00  7.4867052807557668e-07 3.9194741698916704e-09 0.0000000000000000e+00  7.4622472249656687e-07 -5.6094118408130150e-10 0.0000000000000000e+00  7.4742125392629675e-07 -5.3252997100625869e-10 0.0000000000000000e+00  7.5110256228941662e-07 -1.5837502545718770e-09 0.0000000000000000e+00  7.5898053543971774e-07 -4.9121382460293310e-09 0.0000000000000000e+00  7.8017021578368993e-07 -1.0600629358241158e-08 0.0000000000000000e+00  8.1278141060185024e-07 -2.3800217723347907e-08 0.0000000000000000e+00  8.5247802309778921e-07 -1.1358375110241443e-09 0.0000000000000000e+00  8.3280185306546944e-07 1.1323332465441999e-08 0.0000000000000000e+00  8.0534657661124302e-07 1.4806267699549022e-08 0.0000000000000000e+00  7.9935186561001546e-07 -8.1275385700783430e-09 0.0000000000000000e+00  8.1851958573409876e-07 -1.9223318806431219e-08 0.0000000000000000e+00  8.5335304446779563e-07 1.1284375293823627e-10 0.0000000000000000e+00  8.3819880053759801e-07 1.0645117839366162e-08 0.0000000000000000e+00  8.1063144323847667e-07 8.6948619171232410e-09 0.0000000000000000e+00  7.8012587656177047e-07 1.8321270619466027e-08 0.0000000000000000e+00  7.7108079297283323e-07 -8.1087549069904037e-09 0.0000000000000000e+00  7.7040990891801188e-07 7.4095674376221687e-09 0.0000000000000000e+00  7.6294494465244027e-07 -3.2010739343776118e-10 0.0000000000000000e+00  7.6366437496479693e-07 -3.1039619734632985e-10 0.0000000000000000e+00  7.7735968666639983e-07 -1.1457072235064339e-08 0.0000000000000000e+00  7.7789949089875834e-07 1.0861987453818165e-08 0.0000000000000000e+00  7.6845868495834438e-07 -2.5804345441808168e-09 0.0000000000000000e+00  7.9936053937191801e-07 -1.2116974283238514e-08 0.0000000000000000e+00  8.1371197663802828e-07 -7.0512846826541329e-09 0.0000000000000000e+00  8.2264032350365142e-07 -1.7270528399772662e-08 0.0000000000000000e+00  8.4595205664170281e-07 -3.8073631265132601e-09 0.0000000000000000e+00  1.0389709910557014e-06 -6.0241725813335091e-08 0.0000000000000000e+00  -1.0914482133413015e-07 9.7251652525176543e-07 0.0000000000000000e+00  5.6930438758827457e-08 8.2947981006372185e-07 0.0000000000000000e+00  9.7164704093078302e-10 9.4559554375822994e-07 0.0000000000000000e+00  3.4429847891937445e-08 1.0609952379402363e-06 0.0000000000000000e+00  -1.8727937706062091e-08 9.0019872851741380e-07 0.0000000000000000e+00  -8.8597436387425249e-08 8.9363201875037580e-07 0.0000000000000000e+00  1.3324711663256635e-07 9.1821945727565863e-07 0.0000000000000000e+00  -1.4573648357710253e-07 9.2392526542916239e-07 0.0000000000000000e+00  1.1872606837179827e-08 7.0547465907897379e-07 0.0000000000000000e+00  7.6564031141338038e-09 7.6049835668232901e-07 0.0000000000000000e+00  -1.2295356856236026e-08 7.7641541477445377e-07 0.0000000000000000e+00  -1.1706603715285498e-08 7.5035507208407111e-07 0.0000000000000000e+00  -3.3899580029922727e-08 6.6054773311454734e-07 0.0000000000000000e+00  5.6607413635264402e-08 6.9346078639299328e-07 0.0000000000000000e+00  9.5992033044259183e-10 7.8907402272266447e-07 0.0000000000000000e+00  -1.9203954628141538e-09 7.7894380814777322e-07 0.0000000000000000e+00  -1.5648627110493549e-09 7.7262987914795653e-07 0.0000000000000000e+00  2.0451259240895921e-09 7.7543821477821316e-07 0.0000000000000000e+00  -1.3964445446378612e-09 7.8534016155766301e-07 0.0000000000000000e+00  -5.6584624870133481e-08 6.9263903912701364e-07 0.0000000000000000e+00  4.2223762120807920e-08 6.7342741582453184e-07 0.0000000000000000e+00  -3.9272883993376718e-09 7.4360427868839132e-07 0.0000000000000000e+00  9.0542337309606817e-09 7.4867623069982888e-07 0.0000000000000000e+00  -9.1405287147916198e-09 7.4531487731115412e-07 0.0000000000000000e+00  -2.7953722461649458e-08 6.6870640346802412e-07 0.0000000000000000e+00  1.1954287830610874e-07 8.0475367677400960e-07 0.0000000000000000e+00  -1.0527714111245633e-07 8.2867837714206703e-07 0.0000000000000000e+00  7.3656013463010419e-08 7.6069578339230842e-07 0.0000000000000000e+00  4.1928109904415169e-09 9.1499137053919127e-07 0.0000000000000000e+00  3.5081849042881259e-08 1.0308234763706804e-06 0.0000000000000000e+00  -2.3497683028028404e-08 8.7683735987379602e-07 0.0000000000000000e+00  -9.2649242222139237e-08 8.4980402558474961e-07 0.0000000000000000e+00  9.5869737512996422e-08 8.3088435357667268e-07 0.0000000000000000e+00  -1.2896308905782222e-07 7.8716422673143677e-07 0.0000000000000000e+00  4.1999925426055691e-08 6.5291892892225580e-07 0.0000000000000000e+00  -1.0582181298245598e-08 7.2354269158786977e-07 0.0000000000000000e+00  1.3432004557197118e-08 7.3235960734819288e-07 0.0000000000000000e+00  -3.7166983179243629e-09 7.4295401948136172e-07 0.0000000000000000e+00  -3.0650979374152165e-10 7.3663859829533297e-07 0.0000000000000000e+00  -2.8944113596598852e-10 7.3599579468615007e-07 0.0000000000000000e+00  -5.1363427985038538e-08 7.0627661661035956e-07 0.0000000000000000e+00  4.4409793022209312e-08 6.6235522074205315e-07 0.0000000000000000e+00  -1.5620072321654277e-09 7.4136001105315577e-07 0.0000000000000000e+00  2.8270076300992085e-08 7.6198566190117312e-07 0.0000000000000000e+00  -9.9482726384854267e-09 8.0370091594585222e-07 0.0000000000000000e+00  -7.1041853614013420e-08 6.7196245102058591e-07 0.0000000000000000e+00  6.8361560174383231e-08 6.6853488487300599e-07 0.0000000000000000e+00  2.5219958497771845e-08 8.0729582041571060e-07 0.0000000000000000e+00  8.6122926535597414e-10 8.3026273907820640e-07 0.0000000000000000e+00  5.5235520660076694e-09 8.4824915741364854e-07 0.0000000000000000e+00  -8.5808898315307828e-08 7.2045477921685271e-07 0.0000000000000000e+00  6.3542297585830452e-08 6.9258354138880195e-07 0.0000000000000000e+00  2.2518233547411045e-08 8.2611369929581678e-07 0.0000000000000000e+00  6.8382001606019026e-09 8.5863871740152302e-07 0.0000000000000000e+00  -1.1790138714085885e-08 8.5227073680339616e-07 0.0000000000000000e+00  -5.8357889032134385e-08 7.0865821991098885e-07 0.0000000000000000e+00  1.1950921829499771e-07 8.1861632572178104e-07 0.0000000000000000e+00  -1.0425392196070946e-07 8.4172462001889283e-07 0.0000000000000000e+00  8.6720319247797865e-08 8.2995803492374884e-07 0.0000000000000000e+00  -1.2886176732242469e-07 7.6864432960597659e-07 0.0000000000000000e+00  4.4419193739021854e-08 6.3484578384517180e-07 0.0000000000000000e+00  5.4502283396194144e-09 7.4314815694503033e-07 0.0000000000000000e+00  1.2127176765219904e-09 7.5054186176661413e-07 0.0000000000000000e+00  -5.6027007081429408e-09 7.4552264366586740e-07 0.0000000000000000e+00  1.2462013251617851e-09 7.4027211913588304e-07 0.0000000000000000e+00  -4.8673328325817444e-10 7.4199729323604572e-07 0.0000000000000000e+00  5.9684042464328811e-09 7.4770733285995822e-07 0.0000000000000000e+00  2.5823708364709524e-08 7.8447695704027019e-07 0.0000000000000000e+00  -8.8061377156602550e-09 8.1445237667352156e-07 0.0000000000000000e+00  -7.0073651070863942e-08 6.9183284139562951e-07 0.0000000000000000e+00  5.4013436817863159e-08 6.9703216619956738e-07 0.0000000000000000e+00  4.3756881761505785e-10 7.4616244901774978e-07 0.0000000000000000e+00  3.1061191358745129e-08 7.7495366526605521e-07 0.0000000000000000e+00  -1.1832456876057096e-09 8.2789966863866306e-07 0.0000000000000000e+00  -1.9075597998292119e-08 7.9492020205882624e-07 0.0000000000000000e+00  -9.7309285524515110e-09 7.6140801189818185e-07 0.0000000000000000e+00  -4.0055278397415603e-08 6.9176226041385372e-07 0.0000000000000000e+00  1.0997801516111073e-07 7.9331091406716726e-07