<?xml version="1.0"?>
<VTKFile type="UnstructuredGrid"  version="0.1"  >
<UnstructuredGrid>
<Piece  NumberOfPoints="11902" NumberOfCells="23402">
<Points>
<DataArray  type="Float64"  NumberOfComponents="3"  format="ascii">-5 -5 0  5 -5 0  5 5 0  -5 5 0  1.211414245166217 0.001335550656508288 0  -4.9 -5 0  -4.8 -5 0  -4.7 -5 0  -4.6 -5 0  -4.5 -5 0  -4.4 -5 0  -4.3 -5 0  -4.2 -5 0  -4.1 -5 0  -4 -5 0  -3.9 -5 0  -3.8 -5 0  -3.7 -5 0  -3.6 -5 0  -3.5 -5 0  -3.4 -5 0  -3.3 -5 0  -3.2 -5 0  -3.1 -5 0  -3 -5 0  -2.9 -5 0  -2.8 -5 0  -2.7 -5 0  -2.6 -5 0  -2.5 -5 0  -2.4 -5 0  -2.3 -5 0  -2.2 -5 0  -2.1 -5 0  -2 -5 0  -1.9 -5 0  -1.8 -5 0  -1.7 -5 0  -1.6 -5 0  -1.5 -5 0  -1.4 -5 0  -1.3 -5 0  -1.2 -5 0  -1.1 -5 0  -1 -5 0  -0.9000000000000004 -5 0  -0.7999999999999998 -5 0  -0.7000000000000002 -5 0  -0.5999999999999996 -5 0  -0.5 -5 0  -0.4000000000000004 -5 0  -0.2999999999999998 -5 0  -0.2000000000000002 -5 0  -0.09999999999999964 -5 0  0 -5 0  0.09999999999999964 -5 0  0.2000000000000002 -5 0  0.2999999999999998 -5 0  0.4000000000000004 -5 0  0.5 -5 0  0.5999999999999996 -5 0  0.7000000000000002 -5 0  0.7999999999999998 -5 0  0.9000000000000004 -5 0  1 -5 0  1.1 -5 0  1.2 -5 0  1.3 -5 0  1.4 -5 0  1.5 -5 0  1.6 -5 0  1.7 -5 0  1.8 -5 0  1.9 -5 0  2 -5 0  2.1 -5 0  2.2 -5 0  2.3 -5 0  2.4 -5 0  2.5 -5 0  2.6 -5 0  2.7 -5 0  2.8 -5 0  2.9 -5 0  3 -5 0  3.1 -5 0  3.199999999999999 -5 0  3.300000000000001 -5 0  3.4 -5 0  3.5 -5 0  3.6 -5 0  3.699999999999999 -5 0  3.800000000000001 -5 0  3.9 -5 0  4 -5 0  4.1 -5 0  4.199999999999999 -5 0  4.300000000000001 -5 0  4.4 -5 0  4.5 -5 0  4.6 -5 0  4.699999999999999 -5 0  4.800000000000001 -5 0  4.9 -5 0  5 -4.9 0  5 -4.8 0  5 -4.7 0  5 -4.6 0  5 -4.5 0  5 -4.4 0  5 -4.3 0  5 -4.2 0  5 -4.1 0  5 -4 0  5 -3.9 0  5 -3.8 0  5 -3.7 0  5 -3.6 0  5 -3.5 0  5 -3.4 0  5 -3.3 0  5 -3.2 0  5 -3.1 0  5 -3 0  5 -2.9 0  5 -2.8 0  5 -2.7 0  5 -2.6 0  5 -2.5 0  5 -2.4 0  5 -2.3 0  5 -2.2 0  5 -2.1 0  5 -2 0  5 -1.9 0  5 -1.8 0  5 -1.7 0  5 -1.6 0  5 -1.5 0  5 -1.4 0  5 -1.3 0  5 -1.2 0  5 -1.1 0  5 -1 0  5 -0.9000000000000004 0  5 -0.7999999999999998 0  5 -0.7000000000000002 0  5 -0.5999999999999996 0  5 -0.5 0  5 -0.4000000000000004 0  5 -0.2999999999999998 0  5 -0.2000000000000002 0  5 -0.09999999999999964 0  5 0 0  5 0.09999999999999964 0  5 0.2000000000000002 0  5 0.2999999999999998 0  5 0.4000000000000004 0  5 0.5 0  5 0.5999999999999996 0  5 0.7000000000000002 0  5 0.7999999999999998 0  5 0.9000000000000004 0  5 1 0  5 1.1 0  5 1.2 0  5 1.3 0  5 1.4 0  5 1.5 0  5 1.6 0  5 1.7 0  5 1.8 0  5 1.9 0  5 2 0  5 2.1 0  5 2.2 0  5 2.3 0  5 2.4 0  5 2.5 0  5 2.6 0  5 2.7 0  5 2.8 0  5 2.9 0  5 3 0  5 3.1 0  5 3.199999999999999 0  5 3.300000000000001 0  5 3.4 0  5 3.5 0  5 3.6 0  5 3.699999999999999 0  5 3.800000000000001 0  5 3.9 0  5 4 0  5 4.1 0  5 4.199999999999999 0  5 4.300000000000001 0  5 4.4 0  5 4.5 0  5 4.6 0  5 4.699999999999999 0  5 4.800000000000001 0  5 4.9 0  4.9 5 0  4.8 5 0  4.7 5 0  4.6 5 0  4.5 5 0  4.4 5 0  4.3 5 0  4.2 5 0  4.1 5 0  4 5 0  3.9 5 0  3.8 5 0  3.7 5 0  3.6 5 0  3.5 5 0  3.4 5 0  3.3 5 0  3.2 5 0  3.1 5 0  3 5 0  2.9 5 0  2.8 5 0  2.7 5 0  2.6 5 0  2.5 5 0  2.4 5 0  2.3 5 0  2.2 5 0  2.1 5 0  2 5 0  1.9 5 0  1.8 5 0  1.7 5 0  1.6 5 0  1.5 5 0  1.4 5 0  1.3 5 0  1.2 5 0  1.1 5 0  1 5 0  0.9000000000000004 5 0  0.7999999999999998 5 0  0.7000000000000002 5 0  0.5999999999999996 5 0  0.5 5 0  0.4000000000000004 5 0  0.2999999999999998 5 0  0.2000000000000002 5 0  0.09999999999999964 5 0  0 5 0  -0.09999999999999964 5 0  -0.2000000000000002 5 0  -0.2999999999999998 5 0  -0.4000000000000004 5 0  -0.5 5 0  -0.5999999999999996 5 0  -0.7000000000000002 5 0  -0.7999999999999998 5 0  -0.9000000000000004 5 0  -1 5 0  -1.1 5 0  -1.2 5 0  -1.3 5 0  -1.4 5 0  -1.5 5 0  -1.6 5 0  -1.7 5 0  -1.8 5 0  -1.9 5 0  -2 5 0  -2.1 5 0  -2.2 5 0  -2.3 5 0  -2.4 5 0  -2.5 5 0  -2.6 5 0  -2.7 5 0  -2.8 5 0  -2.9 5 0  -3 5 0  -3.1 5 0  -3.199999999999999 5 0  -3.300000000000001 5 0  -3.4 5 0  -3.5 5 0  -3.6 5 0  -3.699999999999999 5 0  -3.800000000000001 5 0  -3.9 5 0  -4 5 0  -4.1 5 0  -4.199999999999999 5 0  -4.300000000000001 5 0  -4.4 5 0  -4.5 5 0  -4.6 5 0  -4.699999999999999 5 0  -4.800000000000001 5 0  -4.9 5 0  -5 4.9 0  -5 4.8 0  -5 4.7 0  -5 4.6 0  -5 4.5 0  -5 4.4 0  -5 4.3 0  -5 4.2 0  -5 4.1 0  -5 4 0  -5 3.9 0  -5 3.8 0  -5 3.7 0  -5 3.6 0  -5 3.5 0  -5 3.4 0  -5 3.3 0  -5 3.2 0  -5 3.1 0  -5 3 0  -5 2.9 0  -5 2.8 0  -5 2.7 0  -5 2.6 0  -5 2.5 0  -5 2.4 0  -5 2.3 0  -5 2.2 0  -5 2.1 0  -5 2 0  -5 1.9 0  -5 1.8 0  -5 1.7 0  -5 1.6 0  -5 1.5 0  -5 1.4 0  -5 1.3 0  -5 1.2 0  -5 1.1 0  -5 1 0  -5 0.9000000000000004 0  -5 0.7999999999999998 0  -5 0.7000000000000002 0  -5 0.5999999999999996 0  -5 0.5 0  -5 0.4000000000000004 0  -5 0.2999999999999998 0  -5 0.2000000000000002 0  -5 0.09999999999999964 0  -5 0 0  -5 -0.09999999999999964 0  -5 -0.2000000000000002 0  -5 -0.2999999999999998 0  -5 -0.4000000000000004 0  -5 -0.5 0  -5 -0.5999999999999996 0  -5 -0.7000000000000002 0  -5 -0.7999999999999998 0  -5 -0.9000000000000004 0  -5 -1 0  -5 -1.1 0  -5 -1.2 0  -5 -1.3 0  -5 -1.4 0  -5 -1.5 0  -5 -1.6 0  -5 -1.7 0  -5 -1.8 0  -5 -1.9 0  -5 -2 0  -5 -2.1 0  -5 -2.2 0  -5 -2.3 0  -5 -2.4 0  -5 -2.5 0  -5 -2.6 0  -5 -2.7 0  -5 -2.8 0  -5 -2.9 0  -5 -3 0  -5 -3.1 0  -5 -3.199999999999999 0  -5 -3.300000000000001 0  -5 -3.4 0  -5 -3.5 0  -5 -3.6 0  -5 -3.699999999999999 0  -5 -3.800000000000001 0  -5 -3.9 0  -5 -4 0  -5 -4.1 0  -5 -4.199999999999999 0  -5 -4.300000000000001 0  -5 -4.4 0  -5 -4.5 0  -5 -4.6 0  -5 -4.699999999999999 0  -5 -4.800000000000001 0  -5 -4.9 0  1.205246195620933 0.09861359386792856 0  1.186106259732537 0.196479324949137 0  1.154268080313704 0.2935513513145043 0  1.113178140572103 0.3846256272044539 0  1.05958070940556 0.4752123127568282 0  0.9966932796570069 0.5602106338755445 0  0.9226989437848198 0.6399835481739581 0  0.8395287868898379 0.7129101212761267 0  0.7494293056770759 0.7784585051712175 0  0.6507473330793002 0.8368183025409196 0  0.5448718011490806 0.8879925775563245 0  0.4352173194712161 0.9301283451621788 0  0.3233820892102493 0.9629912474064546 0  0.205302645260582 0.9853094631485334 0  0.088931961889284 1.000613226322037 0  -0.02772375183570247 1.003444902900694 0  -0.1446832034457221 0.9930631230078321 0  -0.2640451295406579 0.9752077977099747 0  -0.3795687165325736 0.9493009679933356 0  -0.4895337753049214 0.9128432764294422 0  -0.5950620166272305 0.8670983392838327 0  -0.6954104665163608 0.8124122876291059 0  -0.7884485181110876 0.7492189632612284 0  -0.8753550560064739 0.6783165355009607 0  -0.9551911026196109 0.6000567570359652 0  -1.024435156161132 0.5178831088604654 0  -1.083918478845874 0.4311748854793609 0  -1.132127249660026 0.339274335681013 0  -1.168201594135458 0.2457033848789504 0  -1.19232038551811 0.1495856362301862 0  -1.20449725360038 0.05073605612084892 0  -1.204479743815153 -0.04885656476608921 0  -1.192219885357498 -0.147322006657047 0  -1.168796899303125 -0.2433987117167141 0  -1.131393675773259 -0.3389954467219842 0  -1.084244746380965 -0.4300794814478641 0  -1.02550879822975 -0.517073462837899 0  -0.9568828729576468 -0.5987613305833411 0  -0.8774640587592202 -0.6757909148121033 0  -0.7902747862705506 -0.7455358241199016 0  -0.6957856538216144 -0.8067170410720341 0  -0.595140681160643 -0.8608795636048866 0  -0.4864928494434801 -0.908173134673944 0  -0.3757570259392133 -0.9464035840004806 0  -0.2609944861662079 -0.9740104797607481 0  -0.1432957038092726 -0.9922493679306247 0  -0.02751597279954052 -1.002527446571166 0  0.08950814107902137 -0.9976497144488286 0  0.2085828068640169 -0.9828507184886721 0  0.3252018285796197 -0.9613214836361393 0  0.4388285238512092 -0.9287092573334216 0  0.5467043738694453 -0.8870523143315493 0  0.651517352287216 -0.8365263330406169 0  0.7495695136994369 -0.7795180619157296 0  0.8395759089199794 -0.7136955112400765 0  0.922167113475764 -0.6394800933428677 0  0.9950771812101953 -0.5595717782082659 0  1.059402523602338 -0.4745868949786658 0  1.114180162052287 -0.3846764310077219 0  1.155765568089914 -0.2919438253272522 0  1.186425722856985 -0.1956146258951935 0  1.205288360540199 -0.0981462216393925 0  -2.448731910418756 4.918427466619412 0  -2.448621687284928 -4.910834283556603 0  4.910766279691637 2.448136662277236 0  4.918861043947395 -2.449576291527184 0  2.446381563338673 -4.896124794859397 0  2.440808166883127 4.899874833842813 0  -4.910790651668243 -2.448160517866763 0  -4.910788665550474 2.448164406941749 0  -1.748692879808956 4.911455017434126 0  -1.744472076706265 -4.914878875988406 0  4.921034627514346 1.74428870439271 0  4.909624721377726 -1.748081830968432 0  -4.909913740352033 -1.747812463252722 0  -4.910732658395289 1.747554766078737 0  1.74597685540698 4.905344900101452 0  1.747412390929415 -4.893546634309959 0  -1.148968043037487 4.909332915571537 0  -1.129811179211111 -4.917204728658721 0  -4.909748530725961 -1.148097454939819 0  -4.909568619917714 1.14789768057308 0  1.143954352067309 -4.913410236059445 0  1.148976154264058 4.909320932629742 0  4.909893150619618 1.14637420407119 0  4.920656778473472 -1.152136444858133 0  -0.5467353485644628 -4.910568796475085 0  -0.5465103083335341 4.919202461582731 0  -4.908575434278522 -0.5488028644023674 0  -4.908599736639123 0.5473595057306319 0  4.907905555350112 -0.5491229202940052 0  4.919481438711833 0.545867480490099 0  0.5425235884793866 -4.897526758357851 0  0.5512404144447018 4.916044360508633 0  -4.912107920863486 -3.048477143441723 0  4.918664763847623 3.04648130516065 0  4.911618059729196 -3.048455713266071 0  -4.912954684457489 3.045567155822017 0  3.055440177980518 -4.917598018776649 0  -3.048781057329522 -4.911548667377707 0  3.052345227002925 4.913622157904584 0  -3.048226125016078 4.912436271505127 0  -4.9077188264513 -0.04991710833755744 0  0.04512420134533329 -4.912523697617567 0  0.04957187169284904 4.919508764906313 0  4.914729051740393 -0.0512986282355405 0  3.545728657144636 -4.91917711257851 0  -3.549019241521162 4.912
[...]
<PointData  Vectors="f_2604"> 
<DataArray  type="Float64"  Name="f_2604"  NumberOfComponents="3" format="ascii">-4.5503306095653980e-07 -4.5505203549473030e-07 0.0000000000000000e+00  4.5503060083911454e-07 -4.5505015311931710e-07 0.0000000000000000e+00  5.0298639783065079e-07 5.0300026636566667e-07 0.0000000000000000e+00  -4.5503248513638488e-07 4.5505122280117540e-07 0.0000000000000000e+00  -3.5547145000848868e-01 -6.7452100407485215e-03 0.0000000000000000e+00  9.1245608094520118e-08 -9.0578788787736813e-07 0.0000000000000000e+00  -1.0649731846434904e-07 -8.5961817294370085e-07 0.0000000000000000e+00  1.0483404550026012e-07 -8.7259499066165921e-07 0.0000000000000000e+00  -9.1296624757062285e-08 -8.7990368667326971e-07 0.0000000000000000e+00  -2.1130636540773530e-08 -9.0377738686158090e-07 0.0000000000000000e+00  3.5963409424107852e-08 -1.0605133118785696e-06 0.0000000000000000e+00  6.1337264550876473e-09 -9.3549635001764611e-07 0.0000000000000000e+00  7.3536789329900335e-08 -7.7817816061750745e-07 0.0000000000000000e+00  -1.0495192672050321e-07 -8.4355102168626477e-07 0.0000000000000000e+00  1.2033995121701615e-07 -8.2417443129716254e-07 0.0000000000000000e+00  -2.6519395665127412e-08 -6.7894755309594066e-07 0.0000000000000000e+00  -5.2840276421173618e-09 -7.5067598370651652e-07 0.0000000000000000e+00  -1.2907961225058656e-08 -7.6484622030193677e-07 0.0000000000000000e+00  1.0459638128794655e-08 -7.7355698205837170e-07 0.0000000000000000e+00  3.9310300288435764e-10 -7.5771583120195839e-07 0.0000000000000000e+00  4.0439202674604542e-10 -7.5682208439548536e-07 0.0000000000000000e+00  5.0614639760183424e-08 -7.2280728581810915e-07 0.0000000000000000e+00  -4.4449438435058228e-08 -6.8407889824136992e-07 0.0000000000000000e+00  4.2579374195765997e-10 -7.5404337899079108e-07 0.0000000000000000e+00  4.0017897815926779e-08 -6.5735772821520229e-07 0.0000000000000000e+00  -1.2837868174539071e-07 -8.0145573640638356e-07 0.0000000000000000e+00  9.7443266917593114e-08 -8.4397638134627752e-07 0.0000000000000000e+00  -9.4158432328935048e-08 -8.4270388424394433e-07 0.0000000000000000e+00  1.2515082752906230e-07 -7.9370946142877807e-07 0.0000000000000000e+00  -3.7779059408832138e-08 -6.4164548849543939e-07 0.0000000000000000e+00  4.5397382480129035e-10 -7.4713245846492603e-07 0.0000000000000000e+00  3.5711349781724818e-08 -6.7926024273234732e-07 0.0000000000000000e+00  -1.2108992521800148e-07 -8.0307633588523075e-07 0.0000000000000000e+00  1.0038739567101197e-07 -8.3782745666804294e-07 0.0000000000000000e+00  -9.4839045697730735e-08 -8.5753104357380532e-07 0.0000000000000000e+00  1.1778124598782401e-09 -8.5900097776399058e-07 0.0000000000000000e+00  6.7953995121196024e-08 -9.6425422020073175e-07 0.0000000000000000e+00  1.1578685851050580e-08 -7.8240074830860404e-07 0.0000000000000000e+00  8.0426987946295642e-09 -7.5370829843144884e-07 0.0000000000000000e+00  7.2727744805157980e-10 -7.3889159931451365e-07 0.0000000000000000e+00  1.0040573177910287e-08 -7.1661594452793718e-07 0.0000000000000000e+00  4.0699075113493170e-08 -6.2856195778536108e-07 0.0000000000000000e+00  -7.9905062300967813e-08 -6.6888655673068683e-07 0.0000000000000000e+00  -8.9104505587160387e-08 -9.5101300106294177e-07 0.0000000000000000e+00  9.8048921347859926e-08 -9.4799302854247969e-07 0.0000000000000000e+00  5.2347542139655503e-08 -6.9100584148373379e-07 0.0000000000000000e+00  -9.5522646730124309e-08 -8.1385981208156405e-07 0.0000000000000000e+00  -1.0636444216048683e-08 -7.4125957612247282e-07 0.0000000000000000e+00  5.8140263535591550e-08 -9.0117858753652283e-07 0.0000000000000000e+00  1.8981949317764732e-09 -7.4671892878786815e-07 0.0000000000000000e+00  4.6089571512197478e-09 -7.4386012129833629e-07 0.0000000000000000e+00  1.0748342307759874e-10 -7.3150711012186143e-07 0.0000000000000000e+00  -3.4863611286772433e-10 -7.3231534535866968e-07 0.0000000000000000e+00  -1.8515168681855571e-09 -7.3665746584963275e-07 0.0000000000000000e+00  -1.2200705739094566e-08 -7.6510402749075722e-07 0.0000000000000000e+00  -7.2725537886169946e-08 -9.4728909045899523e-07 0.0000000000000000e+00  7.7285967561928123e-09 -8.2120747124147360e-07 0.0000000000000000e+00  9.1606345695414196e-08 -8.1273749612466962e-07 0.0000000000000000e+00  -1.0604658958086924e-07 -8.0550176211927568e-07 0.0000000000000000e+00  1.1977411487263485e-07 -7.8821946266131442e-07 0.0000000000000000e+00  -2.8003643305036224e-08 -6.5342759611651045e-07 0.0000000000000000e+00  -9.4682291799025711e-09 -7.2920247234464279e-07 0.0000000000000000e+00  -6.7397280931158527e-09 -7.4056337091018482e-07 0.0000000000000000e+00  5.1455103835550287e-09 -7.4222096820906658e-07 0.0000000000000000e+00  -5.2126076037529208e-09 -7.4550234491628311e-07 0.0000000000000000e+00  -1.0177657759868466e-08 -7.7584555004903591e-07 0.0000000000000000e+00  4.7506260850693313e-08 -7.0444956668147093e-07 0.0000000000000000e+00  -8.6978440066644401e-08 -7.5338608693561797e-07 0.0000000000000000e+00  1.2939878528038900e-08 -8.6392295513822651e-07 0.0000000000000000e+00  5.7866207870036913e-09 -8.2794850164385369e-07 0.0000000000000000e+00  1.5541177975778276e-08 -8.2096310878913153e-07 0.0000000000000000e+00  7.2537812060322818e-08 -6.8079287820006877e-07 0.0000000000000000e+00  -6.8435427099141796e-08 -6.7890700054060730e-07 0.0000000000000000e+00  -1.4758921828255720e-08 -8.0297440882434125e-07 0.0000000000000000e+00  2.7475961255579531e-08 -7.8439371762089022e-07 0.0000000000000000e+00  1.6826057117397353e-09 -7.5082959187688456e-07 0.0000000000000000e+00  -3.0672928621632427e-11 -7.4614258932102459e-07 0.0000000000000000e+00  -5.7310567165967074e-09 -7.6979065096327275e-07 0.0000000000000000e+00  5.3468998517653843e-08 -6.8311157703097836e-07 0.0000000000000000e+00  -3.3535491924974613e-08 -6.5566711967676320e-07 0.0000000000000000e+00  -1.6706292492190191e-08 -7.4255710113250350e-07 0.0000000000000000e+00  -4.3817963088307473e-08 -8.0248386776664621e-07 0.0000000000000000e+00  -6.3905548766632624e-09 -8.7428448116668070e-07 0.0000000000000000e+00  8.5689717261198015e-08 -7.4188266010197878e-07 0.0000000000000000e+00  -6.2493227709446188e-08 -7.1362257984211750e-07 0.0000000000000000e+00  -4.8959944768246222e-09 -8.2538131917804894e-07 0.0000000000000000e+00  4.1366960536315153e-08 -7.8329018175376513e-07 0.0000000000000000e+00  -1.9127885685232228e-08 -7.5395432651942540e-07 0.0000000000000000e+00  -2.5446756739054872e-08 -7.9258429907900800e-07 0.0000000000000000e+00  2.8813294186945666e-09 -8.4851486805681192e-07 0.0000000000000000e+00  7.4919666737577700e-08 -7.1316323034267706e-07 0.0000000000000000e+00  -7.3193084970940314e-08 -7.1161876377066602e-07 0.0000000000000000e+00  -8.2521272069460019e-09 -8.4225432408755565e-07 0.0000000000000000e+00  3.3216376299707638e-08 -8.0773381892737421e-07 0.0000000000000000e+00  1.5919820922706270e-08 -7.4373709918545201e-07 0.0000000000000000e+00  -1.2488945673868932e-08 -7.3871611793072376e-07 0.0000000000000000e+00  -7.0110018682192920e-09 -7.7598027666413914e-07 0.0000000000000000e+00  5.2148760266799869e-08 -6.9484085984919202e-07 0.0000000000000000e+00  -6.5882438029321800e-08 -7.0764145953817250e-07 0.0000000000000000e+00  -1.8765389186479125e-08 -8.3923778347157934e-07 0.0000000000000000e+00  2.8332194083892745e-08 -8.1736614009749709e-07 0.0000000000000000e+00  3.2449512727291849e-09 -7.7960326246026023e-07 0.0000000000000000e+00  -6.8091376446311809e-09 -7.9394355192622920e-07 0.0000000000000000e+00  -6.0280901692728155e-08 -9.4787397720098356e-07 0.0000000000000000e+00  8.9085172430950353e-07 8.8277779818129891e-08 0.0000000000000000e+00  8.8485611861935107e-07 -1.2413804158228807e-07 0.0000000000000000e+00  9.1644506211971372e-07 1.1037609897542122e-07 0.0000000000000000e+00  7.5601391868257952e-07 -2.4981857781912911e-08 0.0000000000000000e+00  8.0091076183483313e-07 1.6856748105360168e-08 0.0000000000000000e+00  7.7898278149270084e-07 5.5411989208768958e-10 0.0000000000000000e+00  7.7826893151934383e-07 -1.7808929037379516e-10 0.0000000000000000e+00  7.7789674415689935e-07 8.1587639626625806e-10 0.0000000000000000e+00  7.8184181151454797e-07 -6.3665885964560716e-09 0.0000000000000000e+00  7.9027995731838900e-07 3.8498193452517972e-09 0.0000000000000000e+00  7.9314774886835389e-07 -6.7245632219138230e-09 0.0000000000000000e+00  7.9134624019368231e-07 1.1949067798901466e-08 0.0000000000000000e+00  7.8361321644956261e-07 -1.2791163920873714e-08 0.0000000000000000e+00  7.8370609252324389e-07 9.1734491013749013e-09 0.0000000000000000e+00  7.9777062208037936e-07 -1.4156037715328522e-08 0.0000000000000000e+00  7.8629234807464073e-07 2.2983159895840186e-08 0.0000000000000000e+00  7.6907499589297792e-07 -3.3969089141804231e-09 0.0000000000000000e+00  7.7781497430712895e-07 -1.1133273937202234e-08 0.0000000000000000e+00  7.6717477138630791e-07 1.6359677441656546e-08 0.0000000000000000e+00  7.7214234108839186e-07 -1.8006127798841928e-08 0.0000000000000000e+00  7.9140014519382311e-07 6.1932116406985063e-09 0.0000000000000000e+00  7.6630037725191508e-07 1.3463749528065072e-08 0.0000000000000000e+00  7.9819618586464262e-07 -3.1900583815563038e-08 0.0000000000000000e+00  8.3137459838171049e-07 -8.1234821704721312e-09 0.0000000000000000e+00  8.2898306007544352e-07 9.0677384635953345e-09 0.0000000000000000e+00  7.8960618117856831e-07 2.1596330512959404e-08 0.0000000000000000e+00  7.5746846858911980e-07 1.0927019934387235e-08 0.0000000000000000e+00  7.4385491538112557e-07 6.0095372109704964e-10 0.0000000000000000e+00  7.4250629567667678e-07 6.2082898176465565e-10 0.0000000000000000e+00  7.4114607026744729e-07 6.2357122296326350e-10 0.0000000000000000e+00  7.3982166063255891e-07 6.2162670426722195e-10 0.0000000000000000e+00  7.3846622289419074e-07 6.3467019409227886e-10 0.0000000000000000e+00  7.4788420458706133e-07 -1.1148717203289544e-08 0.0000000000000000e+00  7.6133806385369838e-07 1.7550893257927043e-09 0.0000000000000000e+00  7.4844958722900880e-07 1.1382371455685420e-08 0.0000000000000000e+00  7.7933721818775778e-07 -3.0613239149183444e-08 0.0000000000000000e+00  8.1121051671687425e-07 -9.7068030514436417e-09 0.0000000000000000e+00  8.3859261238183270e-07 -5.9358243308645203e-09 0.0000000000000000e+00  8.3672182083972361e-07 1.8095573079924406e-08 0.0000000000000000e+00  7.2082008011320219e-07 6.7000140684074644e-10 0.0000000000000000e+00  8.0646927911209409e-07 3.4364879571135326e-08 0.0000000000000000e+00  7.2949110438014128e-07 -9.0951084088549531e-10 0.0000000000000000e+00  7.2537263112563363e-07 1.7077176949156869e-09 0.0000000000000000e+00  7.2479546490286691e-07 3.4995300404470282e-10 0.0000000000000000e+00  7.7825519958935476e-07 -3.0131590597790766e-08 0.0000000000000000e+00  7.8778373646601231e-07 -9.1243920597200203e-09 0.0000000000000000e+00  8.0941111709175741e-07 -1.5708636248192408e-09 0.0000000000000000e+00  8.0030763674489650e-07 7.0459834389001671e-09 0.0000000000000000e+00  7.9646429267538646e-07 6.6736052819117229e-09 0.0000000000000000e+00  7.9511073668554114e-07 -1.4670967635089289e-08 0.0000000000000000e+00  8.2509925279482775e-07 -2.0937051126351928e-09 0.0000000000000000e+00  8.3425783210695456e-07 -1.7611125434615214e-09 0.0000000000000000e+00  8.1464558325194314e-07 5.0423354575596780e-10 0.0000000000000000e+00  8.2888301266404187e-07 4.4628026918928028e-10 0.0000000000000000e+00  8.3541914212222713e-07 -1.4848692106963927e-09 0.0000000000000000e+00  8.1605647160064025e-07 3.4179685053904675e-10 0.0000000000000000e+00  8.2766343733176572e-07 1.3250021123004761e-09 0.0000000000000000e+00  8.2279128020350910e-07 2.5868020772059067e-09 0.0000000000000000e+00  7.8114562217695834e-07 2.4570968023232557e-08 0.0000000000000000e+00  7.5990998844005536e-07 -1.6659936380094730e-10 0.0000000000000000e+00  7.5705320471876314e-07 8.6658927518688072e-09 0.0000000000000000e+00  7.5497747669246797e-07 -1.2112090066860101e-08 0.0000000000000000e+00  7.6138822567868450e-07 -3.8491260613072694e-10 0.0000000000000000e+00  7.7454685896470816e-07 -1.9225463334604379e-10 0.0000000000000000e+00  7.9402359034979640e-07 -2.4151388233961743e-08 0.0000000000000000e+00  8.3594238742949381e-07 -4.0280088395942417e-09 0.0000000000000000e+00  8.5039360785590216e-07 -3.0089066334381582e-09 0.0000000000000000e+00  8.3261022248451672e-07 -2.2922079012119950e-10 0.0000000000000000e+00  8.4467369878974072e-07 3.2234866515197349e-09 0.0000000000000000e+00  8.2026729321888385e-07 1.2139480784160889e-08 0.0000000000000000e+00  7.7191098424236853e-07 2.2461794805776884e-08 0.0000000000000000e+00  7.4751101572348989e-07 3.8923653718604538e-09 0.0000000000000000e+00  7.4513209819034635e-07 -5.8755768680783705e-10 0.0000000000000000e+00  7.4638464748214604e-07 -5.5860198945063884e-10 0.0000000000000000e+00  7.5011869603056675e-07 -1.6092001228608409e-09 0.0000000000000000e+00  7.5804549352624839e-07 -4.9368469210837277e-09 0.0000000000000000e+00  7.7927032769160572e-07 -1.0624501160503685e-08 0.0000000000000000e+00  8.1191161111160346e-07 -2.3823106557989838e-08 0.0000000000000000e+00  8.5160368784968009e-07 -1.1583587658632270e-09 0.0000000000000000e+00  8.3199185029501270e-07 1.1301339375864665e-08 0.0000000000000000e+00  8.0461130978546470e-07 1.4784934248136272e-08 0.0000000000000000e+00  7.9868817907859934e-07 -8.1476011610708420e-09 0.0000000000000000e+00  8.1789548235941065e-07 -1.9242363375669648e-08 0.0000000000000000e+00  8.5273768104267066e-07 9.4053114109136428e-11 0.0000000000000000e+00  8.3763332264426681e-07 1.0626803777661988e-08 0.0000000000000000e+00  8.1012798956667401e-07 8.6772593088440998e-09 0.0000000000000000e+00  7.7967534748074759e-07 1.8303976832922194e-08 0.0000000000000000e+00  7.7068728929484702e-07 -8.1246532414201000e-09 0.0000000000000000e+00  7.7004559702952117e-07 7.3937096647618032e-09 0.0000000000000000e+00  7.6262261195216814e-07 -3.3520589261961050e-10 0.0000000000000000e+00  7.6337570448874461e-07 -3.2506135306337750e-10 0.0000000000000000e+00  7.7710356731700638e-07 -1.1470947121807709e-08 0.0000000000000000e+00  7.7766870119232354e-07 1.0847717533181033e-08 0.0000000000000000e+00  7.6826591172770816e-07 -2.5938693952130575e-09 0.0000000000000000e+00  7.9919519698481212e-07 -1.2129849616646151e-08 0.0000000000000000e+00  8.1357425829780782e-07 -7.0641242100254616e-09 0.0000000000000000e+00  8.2253345857421104e-07 -1.7282859337627969e-08 0.0000000000000000e+00  8.4587304975359768e-07 -3.8200939976731614e-09 0.0000000000000000e+00  1.0389229888433090e-06 -6.0252721989540732e-08 0.0000000000000000e+00  -1.0915643959855023e-07 9.7246812030961276e-07 0.0000000000000000e+00  5.6914273035747795e-08 8.2939073832543463e-07 0.0000000000000000e+00  9.5710992102521744e-10 9.4546122390231586e-07 0.0000000000000000e+00  3.4414171327507292e-08 1.0607974885195343e-06 0.0000000000000000e+00  -1.8746527392473756e-08 8.9998937880096036e-07 0.0000000000000000e+00  -8.8610432655756526e-08 8.9340584154487396e-07 0.0000000000000000e+00  1.3322919737225069e-07 9.1789055381658726e-07 0.0000000000000000e+00  -1.4574735790416314e-07 9.2363149029298586e-07 0.0000000000000000e+00  1.1856442252370991e-08 7.0517356717783094e-07 0.0000000000000000e+00  7.6400599428632736e-09 7.6014144671543106e-07 0.0000000000000000e+00  -1.2311517645843808e-08 7.7602235291863131e-07 0.0000000000000000e+00  -1.1723078142087339e-08 7.4993771309073514e-07 0.0000000000000000e+00  -3.3915661442058301e-08 6.6015562250176612e-07 0.0000000000000000e+00  5.6588588176843028e-08 6.9297018545544191e-07 0.0000000000000000e+00  9.4210646316393867e-10 7.8850780142053214e-07 0.0000000000000000e+00  -1.9384485186980534e-09 7.7834452935565101e-07 0.0000000000000000e+00  -1.5834911831488547e-09 7.7199290029395808e-07 0.0000000000000000e+00  2.0258721649627171e-09 7.7475374697280348e-07 0.0000000000000000e+00  -1.4159098256329825e-09 7.8460458961232149e-07 0.0000000000000000e+00  -5.6603097002600208e-08 6.9198437563380603e-07 0.0000000000000000e+00  4.2203450173963536e-08 6.7268851962014109e-07 0.0000000000000000e+00  -3.9474836316549753e-09 7.4277863050740311e-07 0.0000000000000000e+00  9.0337007329115600e-09 7.4779149317631162e-07 0.0000000000000000e+00  -9.1611967527288068e-09 7.4440125063858577e-07 0.0000000000000000e+00  -2.7974478012415223e-08 6.6785962741092445e-07 0.0000000000000000e+00  1.1952330667459708e-07 8.0357678430782298e-07 0.0000000000000000e+00  -1.0529749660991549e-07 8.2757943259238748e-07 0.0000000000000000e+00  7.3635398546905032e-08 7.5951784706234251e-07 0.0000000000000000e+00  4.1721333797825995e-09 9.1357946419906383e-07 0.0000000000000000e+00  3.5061138742069256e-08 1.0291498190776098e-06 0.0000000000000000e+00  -2.3522454635439243e-08 8.7539948405800211e-07 0.0000000000000000e+00  -9.2670895709364166e-08 8.4840540391772591e-07 0.0000000000000000e+00  9.5852196362817748e-08 8.2934336703253488e-07 0.0000000000000000e+00  -1.2898313038620976e-07 7.8580423803980078e-07 0.0000000000000000e+00  4.1982500219124855e-08 6.5166198710355127e-07 0.0000000000000000e+00  -1.0600015330035857e-08 7.2214578350131147e-07 0.0000000000000000e+00  1.3415595230339472e-08 7.3089474020855311e-07 0.0000000000000000e+00  -3.7326848085139548e-09 7.4144220152557155e-07 0.0000000000000000e+00  -3.2145025552406975e-10 7.3510483459768225e-07 0.0000000000000000e+00  -3.0336573536494101e-10 7.3443252370263928e-07 0.0000000000000000e+00  -5.1377991852762270e-08 7.0477058285191982e-07 0.0000000000000000e+00  4.4400448343919396e-08 6.6088478775959763e-07 0.0000000000000000e+00  -1.5721036900402995e-09 7.3970781969606317e-07 0.0000000000000000e+00  2.8262210464883220e-08 7.6025761182723421e-07 0.0000000000000000e+00  -9.9561942100498001e-09 8.0186920108713489e-07 0.0000000000000000e+00  -7.1051045658227103e-08 6.7043295454637571e-07 0.0000000000000000e+00  6.8360527354335287e-08 6.6697929115761979e-07 0.0000000000000000e+00  2.5218403341601758e-08 8.0541464722715479e-07 0.0000000000000000e+00  8.5986539739054547e-10 8.2832492508520343e-07 0.0000000000000000e+00  5.5237781975714994e-09 8.4626753979422175e-07 0.0000000000000000e+00  -8.5811357847682672e-08 7.1877130171475719e-07 0.0000000000000000e+00  6.3548495575333315e-08 6.9098199726705864e-07 0.0000000000000000e+00  2.2523997588511887e-08 8.2420469627654416e-07 0.0000000000000000e+00  6.8446261405555084e-09 8.5666513456019407e-07 0.0000000000000000e+00  -1.1783106829785829e-08 8.5032503270182524e-07 0.0000000000000000e+00  -5.8351299396599504e-08 7.0704623937038748e-07 0.0000000000000000e+00  1.1952352897561259e-07 8.1683472497187525e-07 0.0000000000000000e+00  -1.0424634790127147e-07 8.3983573615520939e-07 0.0000000000000000e+00  8.6736137445889907e-08 8.2820332147900883e-07 0.0000000000000000e+00  -1.2885417617316435e-07 7.6695192222554953e-07 0.0000000000000000e+00  4.4436017784460397e-08 6.3355411465117622e-07 0.0000000000000000e+00  5.4664201750171163e-09 7.4164149451547014e-07 0.0000000000000000e+00  1.2294954341142715e-09 7.4905385765947991e-07 0.0000000000000000e+00  -5.5851610372081540e-09 7.4407800782068996e-07 0.0000000000000000e+00  1.2646292439655092e-09 7.3888074621410120e-07 0.0000000000000000e+00  -4.6777579343294624e-10 7.4064202223053910e-07 0.0000000000000000e+00  5.9880813542010045e-09 7.4638805580017682e-07 0.0000000000000000e+00  2.5843959558075108e-08 7.8315127523013222e-07 0.0000000000000000e+00  -8.7860344257357803e-09 8.1309968044245126e-07 0.0000000000000000e+00  -7.0053916900488389e-08 6.9068072519014944e-07 0.0000000000000000e+00  5.4034293603931285e-08 6.9600221999680318e-07 0.0000000000000000e+00  4.5863553228843830e-10 7.4506452034533386e-07 0.0000000000000000e+00  3.1082020864454939e-08 7.7388280331446786e-07 0.0000000000000000e+00  -1.1623399343140871e-09 8.2678252536338613e-07 0.0000000000000000e+00  -1.9054698524810865e-08 7.9388303682255403e-07 0.0000000000000000e+00  -9.7103787060167254e-09 7.6046702179698312e-07 0.0000000000000000e+00  -4.0034286034258570e-08 6.9092707442172794e-07 0.0000000000000000e+00  1.0999640699203296e-07 7.9250824979331782e-07