<?xml version="1.0"?>
<VTKFile type="UnstructuredGrid"  version="0.1"  >
<UnstructuredGrid>
<Piece  NumberOfPoints="11902" NumberOfCells="23402">
<Points>
<DataArray  type="Float64"  NumberOfComponents="3"  format="ascii">-5 -5 0  5 -5 0  5 5 0  -5 5 0  1.114558233322134 0.0007677048187864728 0  -4.9 -5 0  -4.8 -5 0  -4.7 -5 0  -4.6 -5 0  -4.5 -5 0  -4.4 -5 0  -4.3 -5 0  -4.2 -5 0  -4.1 -5 0  -4 -5 0  -3.9 -5 0  -3.8 -5 0  -3.7 -5 0  -3.6 -5 0  -3.5 -5 0  -3.4 -5 0  -3.3 -5 0  -3.2 -5 0  -3.1 -5 0  -3 -5 0  -2.9 -5 0  -2.8 -5 0  -2.7 -5 0  -2.6 -5 0  -2.5 -5 0  -2.4 -5 0  -2.3 -5 0  -2.2 -5 0  -2.1 -5 0  -2 -5 0  -1.9 -5 0  -1.8 -5 0  -1.7 -5 0  -1.6 -5 0  -1.5 -5 0  -1.4 -5 0  -1.3 -5 0  -1.2 -5 0  -1.1 -5 0  -1 -5 0  -0.9000000000000004 -5 0  -0.7999999999999998 -5 0  -0.7000000000000002 -5 0  -0.5999999999999996 -5 0  -0.5 -5 0  -0.4000000000000004 -5 0  -0.2999999999999998 -5 0  -0.2000000000000002 -5 0  -0.09999999999999964 -5 0  0 -5 0  0.09999999999999964 -5 0  0.2000000000000002 -5 0  0.2999999999999998 -5 0  0.4000000000000004 -5 0  0.5 -5 0  0.5999999999999996 -5 0  0.7000000000000002 -5 0  0.7999999999999998 -5 0  0.9000000000000004 -5 0  1 -5 0  1.1 -5 0  1.2 -5 0  1.3 -5 0  1.4 -5 0  1.5 -5 0  1.6 -5 0  1.7 -5 0  1.8 -5 0  1.9 -5 0  2 -5 0  2.1 -5 0  2.2 -5 0  2.3 -5 0  2.4 -5 0  2.5 -5 0  2.6 -5 0  2.7 -5 0  2.8 -5 0  2.9 -5 0  3 -5 0  3.1 -5 0  3.199999999999999 -5 0  3.300000000000001 -5 0  3.4 -5 0  3.5 -5 0  3.6 -5 0  3.699999999999999 -5 0  3.800000000000001 -5 0  3.9 -5 0  4 -5 0  4.1 -5 0  4.199999999999999 -5 0  4.300000000000001 -5 0  4.4 -5 0  4.5 -5 0  4.6 -5 0  4.699999999999999 -5 0  4.800000000000001 -5 0  4.9 -5 0  5 -4.9 0  5 -4.8 0  5 -4.7 0  5 -4.6 0  5 -4.5 0  5 -4.4 0  5 -4.3 0  5 -4.2 0  5 -4.1 0  5 -4 0  5 -3.9 0  5 -3.8 0  5 -3.7 0  5 -3.6 0  5 -3.5 0  5 -3.4 0  5 -3.3 0  5 -3.2 0  5 -3.1 0  5 -3 0  5 -2.9 0  5 -2.8 0  5 -2.7 0  5 -2.6 0  5 -2.5 0  5 -2.4 0  5 -2.3 0  5 -2.2 0  5 -2.1 0  5 -2 0  5 -1.9 0  5 -1.8 0  5 -1.7 0  5 -1.6 0  5 -1.5 0  5 -1.4 0  5 -1.3 0  5 -1.2 0  5 -1.1 0  5 -1 0  5 -0.9000000000000004 0  5 -0.7999999999999998 0  5 -0.7000000000000002 0  5 -0.5999999999999996 0  5 -0.5 0  5 -0.4000000000000004 0  5 -0.2999999999999998 0  5 -0.2000000000000002 0  5 -0.09999999999999964 0  5 0 0  5 0.09999999999999964 0  5 0.2000000000000002 0  5 0.2999999999999998 0  5 0.4000000000000004 0  5 0.5 0  5 0.5999999999999996 0  5 0.7000000000000002 0  5 0.7999999999999998 0  5 0.9000000000000004 0  5 1 0  5 1.1 0  5 1.2 0  5 1.3 0  5 1.4 0  5 1.5 0  5 1.6 0  5 1.7 0  5 1.8 0  5 1.9 0  5 2 0  5 2.1 0  5 2.2 0  5 2.3 0  5 2.4 0  5 2.5 0  5 2.6 0  5 2.7 0  5 2.8 0  5 2.9 0  5 3 0  5 3.1 0  5 3.199999999999999 0  5 3.300000000000001 0  5 3.4 0  5 3.5 0  5 3.6 0  5 3.699999999999999 0  5 3.800000000000001 0  5 3.9 0  5 4 0  5 4.1 0  5 4.199999999999999 0  5 4.300000000000001 0  5 4.4 0  5 4.5 0  5 4.6 0  5 4.699999999999999 0  5 4.800000000000001 0  5 4.9 0  4.9 5 0  4.8 5 0  4.7 5 0  4.6 5 0  4.5 5 0  4.4 5 0  4.3 5 0  4.2 5 0  4.1 5 0  4 5 0  3.9 5 0  3.8 5 0  3.7 5 0  3.6 5 0  3.5 5 0  3.4 5 0  3.3 5 0  3.2 5 0  3.1 5 0  3 5 0  2.9 5 0  2.8 5 0  2.7 5 0  2.6 5 0  2.5 5 0  2.4 5 0  2.3 5 0  2.2 5 0  2.1 5 0  2 5 0  1.9 5 0  1.8 5 0  1.7 5 0  1.6 5 0  1.5 5 0  1.4 5 0  1.3 5 0  1.2 5 0  1.1 5 0  1 5 0  0.9000000000000004 5 0  0.7999999999999998 5 0  0.7000000000000002 5 0  0.5999999999999996 5 0  0.5 5 0  0.4000000000000004 5 0  0.2999999999999998 5 0  0.2000000000000002 5 0  0.09999999999999964 5 0  0 5 0  -0.09999999999999964 5 0  -0.2000000000000002 5 0  -0.2999999999999998 5 0  -0.4000000000000004 5 0  -0.5 5 0  -0.5999999999999996 5 0  -0.7000000000000002 5 0  -0.7999999999999998 5 0  -0.9000000000000004 5 0  -1 5 0  -1.1 5 0  -1.2 5 0  -1.3 5 0  -1.4 5 0  -1.5 5 0  -1.6 5 0  -1.7 5 0  -1.8 5 0  -1.9 5 0  -2 5 0  -2.1 5 0  -2.2 5 0  -2.3 5 0  -2.4 5 0  -2.5 5 0  -2.6 5 0  -2.7 5 0  -2.8 5 0  -2.9 5 0  -3 5 0  -3.1 5 0  -3.199999999999999 5 0  -3.300000000000001 5 0  -3.4 5 0  -3.5 5 0  -3.6 5 0  -3.699999999999999 5 0  -3.800000000000001 5 0  -3.9 5 0  -4 5 0  -4.1 5 0  -4.199999999999999 5 0  -4.300000000000001 5 0  -4.4 5 0  -4.5 5 0  -4.6 5 0  -4.699999999999999 5 0  -4.800000000000001 5 0  -4.9 5 0  -5 4.9 0  -5 4.8 0  -5 4.7 0  -5 4.6 0  -5 4.5 0  -5 4.4 0  -5 4.3 0  -5 4.2 0  -5 4.1 0  -5 4 0  -5 3.9 0  -5 3.8 0  -5 3.7 0  -5 3.6 0  -5 3.5 0  -5 3.4 0  -5 3.3 0  -5 3.2 0  -5 3.1 0  -5 3 0  -5 2.9 0  -5 2.8 0  -5 2.7 0  -5 2.6 0  -5 2.5 0  -5 2.4 0  -5 2.3 0  -5 2.2 0  -5 2.1 0  -5 2 0  -5 1.9 0  -5 1.8 0  -5 1.7 0  -5 1.6 0  -5 1.5 0  -5 1.4 0  -5 1.3 0  -5 1.2 0  -5 1.1 0  -5 1 0  -5 0.9000000000000004 0  -5 0.7999999999999998 0  -5 0.7000000000000002 0  -5 0.5999999999999996 0  -5 0.5 0  -5 0.4000000000000004 0  -5 0.2999999999999998 0  -5 0.2000000000000002 0  -5 0.09999999999999964 0  -5 0 0  -5 -0.09999999999999964 0  -5 -0.2000000000000002 0  -5 -0.2999999999999998 0  -5 -0.4000000000000004 0  -5 -0.5 0  -5 -0.5999999999999996 0  -5 -0.7000000000000002 0  -5 -0.7999999999999998 0  -5 -0.9000000000000004 0  -5 -1 0  -5 -1.1 0  -5 -1.2 0  -5 -1.3 0  -5 -1.4 0  -5 -1.5 0  -5 -1.6 0  -5 -1.7 0  -5 -1.8 0  -5 -1.9 0  -5 -2 0  -5 -2.1 0  -5 -2.2 0  -5 -2.3 0  -5 -2.4 0  -5 -2.5 0  -5 -2.6 0  -5 -2.7 0  -5 -2.8 0  -5 -2.9 0  -5 -3 0  -5 -3.1 0  -5 -3.199999999999999 0  -5 -3.300000000000001 0  -5 -3.4 0  -5 -3.5 0  -5 -3.6 0  -5 -3.699999999999999 0  -5 -3.800000000000001 0  -5 -3.9 0  -5 -4 0  -5 -4.1 0  -5 -4.199999999999999 0  -5 -4.300000000000001 0  -5 -4.4 0  -5 -4.5 0  -5 -4.6 0  -5 -4.699999999999999 0  -5 -4.800000000000001 0  -5 -4.9 0  1.109156527723519 0.1003877393833533 0  1.092329004626716 0.1996634754898433 0  1.063951420092331 0.2973917156793491 0  1.026370646620596 0.3908001012647357 0  0.9781794394810748 0.4817544094700255 0  0.9207704667517869 0.5674552974551497 0  0.8535638616680348 0.6472786185934224 0  0.7772845368733323 0.7203885413800342 0  0.6941071421123045 0.7867033511942596 0  0.6039910820578128 0.8455451529838923 0  0.5073741999520833 0.8955898294703397 0  0.405742474765828 0.9368954959220783 0  0.3012818537235689 0.9693333397332452 0  0.1929298208009444 0.9914411101989575 0  0.08367096903107371 1.004295297768275 0  -0.02683392808344217 1.006878258599731 0  -0.1370929806418618 0.9988631430316899 0  -0.2462803585848505 0.9817855060478028 0  -0.3530303533069923 0.9548971285252359 0  -0.456016606939645 0.9181453607175173 0  -0.5542573877310576 0.8727465496542591 0  -0.6473107220254826 0.818193219991996 0  -0.7339313977018255 0.755751491682964 0  -0.8134331429600041 0.6859338243097002 0  -0.8851639615750934 0.6084047286520319 0  -0.9476576025761848 0.5252683977442226 0  -1.001385418689797 0.4374075076542857 0  -1.044593995121511 0.3446300562620622 0  -1.077165568162232 0.2489689287026482 0  -1.099298933524113 0.1508682389563463 0  -1.110551955340022 0.0508014766898202 0  -1.110578537623662 -0.04983973534990017 0  -1.099349101446193 -0.1497489304196897 0  -1.078336252936521 -0.2478285587168204 0  -1.044529923508328 -0.3441258543534077 0  -1.001640238805311 -0.4363448645040169 0  -0.9481714942594196 -0.524406185036116 0  -0.8858154874615087 -0.6072630298447279 0  -0.8140646735997876 -0.6841402955371645 0  -0.7341262872295518 -0.753687138779081 0  -0.6469544320903582 -0.8155217019037804 0  -0.5545899056012201 -0.870325364187994 0  -0.4548258996377526 -0.9159034250660933 0  -0.3517384461034606 -0.953170836568054 0  -0.2448061277987232 -0.9804613032724426 0  -0.1360262289625646 -0.9979365245506886 0  -0.02613738048866762 -1.006435547016675 0  0.0840337938787173 -1.003365140869634 0  0.1941113428987357 -0.9902374686820643 0  0.3018489485060483 -0.9681126271804378 0  0.407551271662632 -0.9357938147332656 0  0.5080844296109961 -0.8946711469634958 0  0.6044178486575982 -0.8447856237932053 0  0.6943475246901967 -0.7870982950396586 0  0.7774685079308638 -0.7207217788491473 0  0.8532445899502383 -0.6468313039210145 0  0.9200742713650362 -0.5667634785637771 0  0.9783417625995423 -0.4813205328218665 0  1.027367600999945 -0.3908838468229754 0  1.064878677198346 -0.2968173693585519 0  1.092410581184162 -0.1991745904174342 0  1.109187294302027 -0.1001323945242564 0  -2.449201045167875 4.919294892945127 0  -2.44913215243894 -4.911780049233652 0  4.911734493223355 2.448818418435691 0  4.91973947285569 -2.45019621965215 0  2.446975698921951 -4.897236300337259 0  2.441382894628302 4.900949855588135 0  -4.911750694760839 -2.448834682219084 0  -4.911751226489176 2.448838427077684 0  -1.749176799506039 4.912702992902906 0  -1.744934763418585 -4.916076427490757 0  4.922257434807079 1.744905562423539 0  4.91102115116438 -1.748788987523597 0  -4.911294445350739 -1.748508974588787 0  -4.912103619848306 1.748243870306411 0  1.746490576436419 4.906685693879227 0  1.747987982360152 -4.89505220275753 0  -1.149352792549738 4.910843027589164 0  -1.130157268127158 -4.918584780886305 0  -4.911476835107505 -1.148670463486192 0  -4.911302758431576 1.148469789168918 0  1.144313948865815 -4.914855358623432 0  1.14935642289717 4.910835719696165 0  4.911636076857778 1.146951717192208 0  4.922187687769078 -1.15264734359094 0  -0.5469353290681238 -4.91220764250736 0  -0.5466916740407255 4.920687758391739 0  -4.91058323402216 -0.5491213873393549 0  -4.910608695362067 0.5476744560444599 0  4.909947216406652 -0.5494476493098627 0  4.921267285963573 0.5461485871363598 0  0.5427427956910309 -4.899409574123223 0  0.5514248095059411 4.917589325206089 0  -4.912755556234135 -3.04903434140651 0  4.919269235952411 3.047002921657396 0  4.912273172203649 -3.049022131529647 0  -4.913599309838311 3.046119962176768 0  3.055858514988842 -4.918234297851799 0  -3.049230929423997 -4.912228540166426 0  3.052785614230239 4.914291029860345 0  -3.048673148918025 4.913111275638849 0  -4.909831273960316 -0.04994895543092776 0  0.0451363050363883 -4.914174665711552 0  0.0495858081807091 4.92103231301053 0  4.916699265941587 -0.05132843854989886 0  3.546060928347166 -4.91962282304191 0  -3.549380257086817 4.
[...]
<PointData  Vectors="f_1120"> 
<DataArray  type="Float64"  Name="f_1120"  NumberOfComponents="3" format="ascii">-4.5514520770190283e-07 -4.5515735022283359e-07 0.0000000000000000e+00  4.5514363236648435e-07 -4.5515622969403538e-07 0.0000000000000000e+00  5.0309830920503778e-07 5.0310715351950797e-07 0.0000000000000000e+00  -4.5514483364009676e-07 4.5515681027433791e-07 0.0000000000000000e+00  -6.8477079889482328e-01 -1.4159863254831673e-02 0.0000000000000000e+00  9.1145301986020592e-08 -9.0616610519025204e-07 0.0000000000000000e+00  -1.0663167078736341e-07 -8.6037606910014869e-07 0.0000000000000000e+00  1.0474383439499757e-07 -8.7350437654256280e-07 0.0000000000000000e+00  -9.1440539068605989e-08 -8.8133599012766347e-07 0.0000000000000000e+00  -2.1277507200988582e-08 -9.0553808353888673e-07 0.0000000000000000e+00  3.5843996933309260e-08 -1.0627831540998399e-06 0.0000000000000000e+00  6.0113202573261835e-09 -9.3790151140558143e-07 0.0000000000000000e+00  7.3430093380955566e-08 -7.8033199496532786e-07 0.0000000000000000e+00  -1.0509739645736008e-07 -8.4665414478056137e-07 0.0000000000000000e+00  1.2024260070435668e-07 -8.2689155463194305e-07 0.0000000000000000e+00  -2.6658889669968063e-08 -6.8186474500928909e-07 0.0000000000000000e+00  -5.4201439731833582e-09 -7.5410591257971768e-07 0.0000000000000000e+00  -1.3049195171818535e-08 -7.6868163949048188e-07 0.0000000000000000e+00  1.0320477947391885e-08 -7.7766623805709077e-07 0.0000000000000000e+00  2.4880283060343384e-10 -7.6210558418162346e-07 0.0000000000000000e+00  2.5665134386171183e-10 -7.6153545832813338e-07 0.0000000000000000e+00  5.0476239034653099e-08 -7.2739317589293179e-07 0.0000000000000000e+00  -4.4609665590402481e-08 -6.8917771652721126e-07 0.0000000000000000e+00  2.7011480863274007e-10 -7.5975943624444549e-07 0.0000000000000000e+00  3.9862499941020782e-08 -6.6245341377634815e-07 0.0000000000000000e+00  -1.2853476023792463e-07 -8.0897206047428613e-07 0.0000000000000000e+00  9.7290198118760819e-08 -8.5103488283861269e-07 0.0000000000000000e+00  -9.4330527258338197e-08 -8.5122377150897314e-07 0.0000000000000000e+00  1.2501018990606826e-07 -8.0091301294548466e-07 0.0000000000000000e+00  -3.7951088863879660e-08 -6.4860303019617993e-07 0.0000000000000000e+00  2.8556882029532126e-10 -7.5533811855077533e-07 0.0000000000000000e+00  3.5541633044683695e-08 -6.8685449736408435e-07 0.0000000000000000e+00  -1.2124253570494987e-07 -8.1341085057669824e-07 0.0000000000000000e+00  1.0022022501535237e-07 -8.4770454003100342e-07 0.0000000000000000e+00  -9.5004108673143611e-08 -8.6920826798252254e-07 0.0000000000000000e+00  9.6974530875654848e-10 -8.7055358489338857e-07 0.0000000000000000e+00  6.7776063645255301e-08 -9.7735485417300445e-07 0.0000000000000000e+00  1.1419344685418884e-08 -7.9362499681217272e-07 0.0000000000000000e+00  7.8885375157943473e-09 -7.6488442141400736e-07 0.0000000000000000e+00  5.7928514522212752e-10 -7.5021408698799182e-07 0.0000000000000000e+00  9.8962118179187531e-09 -7.2785540916583632e-07 0.0000000000000000e+00  4.0550620279351150e-08 -6.3851048130096543e-07 0.0000000000000000e+00  -7.9997580459527164e-08 -6.8031078409653287e-07 0.0000000000000000e+00  -8.9194380626123605e-08 -9.6753298288080653e-07 0.0000000000000000e+00  9.7916754367934857e-08 -9.6403031039497405e-07 0.0000000000000000e+00  5.2229873420259633e-08 -7.0297008266141000e-07 0.0000000000000000e+00  -9.5589343391181067e-08 -8.2874943504901766e-07 0.0000000000000000e+00  -1.0733151991316261e-08 -7.5470343248804684e-07 0.0000000000000000e+00  5.8046356766118997e-08 -9.1765624003835915e-07 0.0000000000000000e+00  1.8366895142515713e-09 -7.6059073936522075e-07 0.0000000000000000e+00  4.5577727632541363e-09 -7.5779819545941340e-07 0.0000000000000000e+00  6.9680359155128954e-11 -7.4531145195186324e-07 0.0000000000000000e+00  -3.7425197777450546e-10 -7.4620477686057225e-07 0.0000000000000000e+00  -1.8642323379832890e-09 -7.5067415339531590e-07 0.0000000000000000e+00  -1.2196807059040871e-08 -7.7968767686241094e-07 0.0000000000000000e+00  -7.2689032496807144e-08 -9.6535987333334614e-07 0.0000000000000000e+00  7.7629937270674220e-09 -8.3676232638767100e-07 0.0000000000000000e+00  9.1610144252226510e-08 -8.2822741019997694e-07 0.0000000000000000e+00  -1.0596434724066702e-07 -8.2047142448091896e-07 0.0000000000000000e+00  1.1978733717464995e-07 -8.0315265272007475e-07 0.0000000000000000e+00  -2.7922918322206302e-08 -6.6537313485875617e-07 0.0000000000000000e+00  -9.3835885207535143e-09 -7.4244725806065379e-07 0.0000000000000000e+00  -6.6466749936594080e-09 -7.5382917992999597e-07 0.0000000000000000e+00  5.2450541647862123e-09 -7.5534368614634026e-07 0.0000000000000000e+00  -5.1007006367389235e-09 -7.5841292837571111e-07 0.0000000000000000e+00  -1.0056073508024442e-08 -7.8900246450399183e-07 0.0000000000000000e+00  4.7618802682159566e-08 -7.1636997956726483e-07 0.0000000000000000e+00  -8.6825768927367608e-08 -7.6522444830009007e-07 0.0000000000000000e+00  1.3079024873415339e-08 -8.7767698299214369e-07 0.0000000000000000e+00  5.9321877642305465e-09 -8.4074089018426317e-07 0.0000000000000000e+00  1.5689101882857913e-08 -8.3333617759872690e-07 0.0000000000000000e+00  7.2679047669470036e-08 -6.9105624423475341e-07 0.0000000000000000e+00  -6.8269663969632983e-08 -6.8805498428450058e-07 0.0000000000000000e+00  -1.4593898051581585e-08 -8.1377645323046027e-07 0.0000000000000000e+00  2.7640664931812979e-08 -7.9480089256593220e-07 0.0000000000000000e+00  1.8497428495497970e-09 -7.6027747639699437e-07 0.0000000000000000e+00  1.3747184594227100e-10 -7.5514942033536437e-07 0.0000000000000000e+00  -5.5623544954060334e-09 -7.7866411432379148e-07 0.0000000000000000e+00  5.3635701565076132e-08 -6.9098309904887362e-07 0.0000000000000000e+00  -3.3368578245632795e-08 -6.6240757914216756e-07 0.0000000000000000e+00  -1.6539544686410461e-08 -7.4993702690261002e-07 0.0000000000000000e+00  -4.3657168439291462e-08 -8.0991703934062450e-07 0.0000000000000000e+00  -6.2270194423608486e-09 -8.8217857520733323e-07 0.0000000000000000e+00  8.5858631197172925e-08 -7.4872089445269582e-07 0.0000000000000000e+00  -6.2346989112768311e-08 -7.1909742720230843e-07 0.0000000000000000e+00  -4.7398407123946020e-09 -8.3165924718548782e-07 0.0000000000000000e+00  4.1528745340013400e-08 -7.8911363720973850e-07 0.0000000000000000e+00  -1.8979963652695108e-08 -7.5893692932111916e-07 0.0000000000000000e+00  -2.5304573920150909e-08 -7.9744824301126190e-07 0.0000000000000000e+00  3.0266603744158815e-09 -8.5347237032269255e-07 0.0000000000000000e+00  7.5075317423907658e-08 -7.1733448540314199e-07 0.0000000000000000e+00  -7.3074308573570864e-08 -7.1491037824174509e-07 0.0000000000000000e+00  -8.1174299340540288e-09 -8.4607392692271672e-07 0.0000000000000000e+00  3.3358283194069007e-08 -8.1121191128695493e-07 0.0000000000000000e+00  1.6054188536212606e-08 -7.4660313315636727e-07 0.0000000000000000e+00  -1.2364412850088092e-08 -7.4119728666786864e-07 0.0000000000000000e+00  -6.8869128610506005e-09 -7.7830144378296313e-07 0.0000000000000000e+00  5.2285927258334827e-08 -6.9680070001517591e-07 0.0000000000000000e+00  -6.5780329006311533e-08 -7.0914515482403433e-07 0.0000000000000000e+00  -1.8649010563704854e-08 -8.4079857788978046e-07 0.0000000000000000e+00  2.8459987598122771e-08 -8.1866026179016405e-07 0.0000000000000000e+00  3.3642676443750921e-09 -7.8053385818977094e-07 0.0000000000000000e+00  -6.6931323278095276e-09 -7.9459786397769081e-07 0.0000000000000000e+00  -6.0172952371722742e-08 -9.4827656580032109e-07 0.0000000000000000e+00  8.9120165028580532e-07 8.8194242325627238e-08 0.0000000000000000e+00  8.8559233736252871e-07 -1.2426527861600716e-07 0.0000000000000000e+00  9.1727783901861086e-07 1.1030289087437345e-07 0.0000000000000000e+00  7.5711641190712818e-07 -2.5094678267722601e-08 0.0000000000000000e+00  8.0224860741077324e-07 1.6754143005331578e-08 0.0000000000000000e+00  7.8056897356744896e-07 4.4460063855143744e-10 0.0000000000000000e+00  7.8011452740753489e-07 -2.9041504484158795e-10 0.0000000000000000e+00  7.8000411490932337e-07 7.0080701843748740e-10 0.0000000000000000e+00  7.8425655322788903e-07 -6.4870519093719750e-09 0.0000000000000000e+00  7.9297004336185092e-07 3.7283171467831109e-09 0.0000000000000000e+00  7.9618238816010549e-07 -6.8528618916408660e-09 0.0000000000000000e+00  7.9460315767556531e-07 1.1821559920676109e-08 0.0000000000000000e+00  7.8726223018643879e-07 -1.2930726971348198e-08 0.0000000000000000e+00  7.8758020428764081e-07 9.0347158025511440e-09 0.0000000000000000e+00  8.0217056381449796e-07 -1.4305928429939127e-08 0.0000000000000000e+00  7.9078581137554370e-07 2.2836895718797424e-08 0.0000000000000000e+00  7.7396943407195651e-07 -3.5557667285504621e-09 0.0000000000000000e+00  7.8318796214286908e-07 -1.1300112967105305e-08 0.0000000000000000e+00  7.7269047532953912e-07 1.6193092348994126e-08 0.0000000000000000e+00  7.7831409688573539e-07 -1.8186097240187478e-08 0.0000000000000000e+00  7.9798336630967253e-07 6.0115283775400245e-09 0.0000000000000000e+00  7.7304891643811365e-07 1.3277241526869073e-08 0.0000000000000000e+00  8.0600814197703968e-07 -3.2100455276433106e-08 0.0000000000000000e+00  8.3982094708054887e-07 -8.3254743377394743e-09 0.0000000000000000e+00  8.3777938435772469e-07 8.8621513689979478e-09 0.0000000000000000e+00  7.9837833707053003e-07 2.1386218390407756e-08 0.0000000000000000e+00  7.6644314630184157e-07 1.0710705450478840e-08 0.0000000000000000e+00  7.5323293520725221e-07 3.8001190399961306e-10 0.0000000000000000e+00  7.5235805080887016e-07 3.9653597436042965e-10 0.0000000000000000e+00  7.5147602312072726e-07 3.9668308876901487e-10 0.0000000000000000e+00  7.5063293645850952e-07 3.9308059519228549e-10 0.0000000000000000e+00  7.4975856793132909e-07 4.0557429979855050e-10 0.0000000000000000e+00  7.5992056600941613e-07 -1.1375352175225773e-08 0.0000000000000000e+00  7.7400228641321269e-07 1.5282920916650975e-09 0.0000000000000000e+00  7.6132548263290760e-07 1.1156871605080402e-08 0.0000000000000000e+00  7.9357333332666953e-07 -3.0824080904740545e-08 0.0000000000000000e+00  8.2638122400437504e-07 -9.9164562444267961e-09 0.0000000000000000e+00  8.5476822867762625e-07 -6.1387074856221424e-09 0.0000000000000000e+00  8.5320709476700553e-07 1.7895045826799230e-08 0.0000000000000000e+00  7.3546805762001621e-07 4.8617252962408952e-10 0.0000000000000000e+00  8.2316893296744394e-07 3.4177271019571602e-08 0.0000000000000000e+00  7.4509527015077500e-07 -1.0656388334695160e-09 0.0000000000000000e+00  7.4119263176848742e-07 1.5660991341181024e-09 0.0000000000000000e+00  7.4089280760399572e-07 2.2636606596644522e-10 0.0000000000000000e+00  7.9592887147350358e-07 -3.0220161084086354e-08 0.0000000000000000e+00  8.0580179061161106e-07 -9.2053861475175170e-09 0.0000000000000000e+00  8.2809208462038402e-07 -1.6351938447552622e-09 0.0000000000000000e+00  8.1889111620346893e-07 6.9980898261671371e-09 0.0000000000000000e+00  8.1504793315018122e-07 6.6474233073163042e-09 0.0000000000000000e+00  8.1368629804144457e-07 -1.4662591745707136e-08 0.0000000000000000e+00  8.4436053646735330e-07 -2.0706976614896441e-09 0.0000000000000000e+00  8.5365577769582271e-07 -1.7171903650076355e-09 0.0000000000000000e+00  8.3344349773890587e-07 5.6807727529308987e-10 0.0000000000000000e+00  8.4783780583294571e-07 5.3096569025908528e-10 0.0000000000000000e+00  8.5428615087985978e-07 -1.3799354239276078e-09 0.0000000000000000e+00  8.3420143363264393e-07 4.6430686100591542e-10 0.0000000000000000e+00  8.4575702045744286e-07 1.4645863151986685e-09 0.0000000000000000e+00  8.4042235316394557e-07 2.7414481635966267e-09 0.0000000000000000e+00  7.9761792446542777e-07 2.4730256830143917e-08 0.0000000000000000e+00  7.7540373537740338e-07 1.6701786504257458e-11 0.0000000000000000e+00  7.7212320027949818e-07 8.8570227376359801e-09 0.0000000000000000e+00  7.6942074888488460e-07 -1.1903751243514768e-08 0.0000000000000000e+00  7.7556244967913797e-07 -1.7278943379372277e-10 0.0000000000000000e+00  7.8847797777019287e-07 2.6169864543613687e-11 0.0000000000000000e+00  8.0760317927079961e-07 -2.3922956279993141e-08 0.0000000000000000e+00  8.4984470281285829e-07 -3.8006355524563766e-09 0.0000000000000000e+00  8.6397012421218816e-07 -2.7800562855849076e-09 0.0000000000000000e+00  8.4535487829324185e-07 -3.8621224223404785e-13 0.0000000000000000e+00  8.5705821981718559e-07 3.4513728668177791e-09 0.0000000000000000e+00  8.3181105286354203e-07 1.2365430060834267e-08 0.0000000000000000e+00  7.8234664972388138e-07 2.2685260057915518e-08 0.0000000000000000e+00  7.5698035779473260e-07 4.1131060623530525e-09 0.0000000000000000e+00  7.5405156856039020e-07 -3.7096452630058551e-10 0.0000000000000000e+00  7.5484366063695336e-07 -3.4658481505742319e-10 0.0000000000000000e+00  7.5814438455271637e-07 -1.4023806840515298e-09 0.0000000000000000e+00  7.6567026928793633e-07 -4.7360889988899919e-09 0.0000000000000000e+00  7.8660610530889580e-07 -1.0430539719042740e-08 0.0000000000000000e+00  8.1899972098826315e-07 -2.3637330821641885e-08 0.0000000000000000e+00  8.5872741466177218e-07 -9.7539515047166817e-10 0.0000000000000000e+00  8.3858954581714855e-07 1.1480049685187940e-08 0.0000000000000000e+00  8.1059833443443019e-07 1.4958249102576614e-08 0.0000000000000000e+00  8.0409055156099054e-07 -7.9846697776992163e-09 0.0000000000000000e+00  8.2297423911483113e-07 -1.9087840220396114e-08 0.0000000000000000e+00  8.5774476033344681e-07 2.4658191091162357e-10 0.0000000000000000e+00  8.4223323591072953e-07 1.0775698468635807e-08 0.0000000000000000e+00  8.1422185559881529e-07 8.8203982176229970e-09 0.0000000000000000e+00  7.8333763525711941e-07 1.8444630036393841e-08 0.0000000000000000e+00  7.7388471738979636e-07 -7.9956225048982539e-09 0.0000000000000000e+00  7.7300518178021475e-07 7.5225103062954814e-09 0.0000000000000000e+00  7.6524039733719016e-07 -2.1265385178709360e-10 0.0000000000000000e+00  7.6571960951260318e-07 -2.0614526766550025e-10 0.0000000000000000e+00  7.7918292232870530e-07 -1.1358581481211704e-08 0.0000000000000000e+00  7.7954226008369268e-07 1.0963434853621914e-08 0.0000000000000000e+00  7.6983040403788756e-07 -2.4848563167044998e-09 0.0000000000000000e+00  8.0053713439553011e-07 -1.2025536759458729e-08 0.0000000000000000e+00  8.1469198478284611e-07 -6.9600576323117354e-09 0.0000000000000000e+00  8.2340068234076904e-07 -1.7182946198441547e-08 0.0000000000000000e+00  8.4651463654892882e-07 -3.7172734165396126e-09 0.0000000000000000e+00  1.0393147900393371e-06 -6.0163506689157854e-08 0.0000000000000000e+00  -1.0906137067837783e-07 9.7286266139492319e-07 0.0000000000000000e+00  5.7045250209034469e-08 8.3011448561952353e-07 0.0000000000000000e+00  1.0755855974777504e-09 9.4655627397713007e-07 0.0000000000000000e+00  3.4542749291653518e-08 1.0624106290708478e-06 0.0000000000000000e+00  -1.8595252910119488e-08 9.0169515246413972e-07 0.0000000000000000e+00  -8.8504498609875782e-08 8.9524902707499078e-07 0.0000000000000000e+00  1.3337461841144748e-07 9.2056924823281618e-07 0.0000000000000000e+00  -1.4566058158056685e-07 9.2602518847191890e-07 0.0000000000000000e+00  1.1988087501593733e-08 7.0762387887335430e-07 0.0000000000000000e+00  7.7728836286655757e-09 7.6304663491463646e-07 0.0000000000000000e+00  -1.2180517832809004e-08 7.7922343277364852e-07 0.0000000000000000e+00  -1.1589575617937647e-08 7.5333548151731787e-07 0.0000000000000000e+00  -3.3785423730153578e-08 6.6334785094967513e-07 0.0000000000000000e+00  5.6741362551584237e-08 6.9696375138704076e-07 0.0000000000000000e+00  1.0871211446007570e-09 7.9311927381484411e-07 0.0000000000000000e+00  -1.7912803140157625e-09 7.8322653037118907e-07 0.0000000000000000e+00  -1.4323495838448597e-09 7.7718239704181287e-07 0.0000000000000000e+00  2.1813960048064540e-09 7.8033098459398495e-07 0.0000000000000000e+00  -1.2584760730804442e-09 7.9059827968448002e-07 0.0000000000000000e+00  -5.6453244201203380e-08 6.9731931764848288e-07 0.0000000000000000e+00  4.2368467979073975e-08 6.7870955272665303e-07 0.0000000000000000e+00  -3.7835990940930029e-09 7.4950860597396058e-07 0.0000000000000000e+00  9.2002368944823686e-09 7.5500499615736653e-07 0.0000000000000000e+00  -8.9939167213010647e-09 7.5185058440246808e-07 0.0000000000000000e+00  -2.7806296237249951e-08 6.7476524299466888e-07 0.0000000000000000e+00  1.1968263642116961e-07 8.1317379307667778e-07 0.0000000000000000e+00  -1.0513298003678664e-07 8.3654667286282880e-07 0.0000000000000000e+00  7.3801845122854884e-08 7.6912528215350798e-07 0.0000000000000000e+00  4.3396767086478679e-09 9.2510083113943167e-07 0.0000000000000000e+00  3.5229662986533315e-08 1.0428088297185501e-06 0.0000000000000000e+00  -2.3322045368416219e-08 8.8713538040150755e-07 0.0000000000000000e+00  -9.2495881229779341e-08 8.5982270155897545e-07 0.0000000000000000e+00  9.5993904201170777e-08 8.4192025930029981e-07 0.0000000000000000e+00  -1.2882229811717789e-07 7.9690768629704353e-07 0.0000000000000000e+00  4.2123247432673623e-08 6.6192123444424646e-07 0.0000000000000000e+00  -1.0455981591298647e-08 7.3354915406342207e-07 0.0000000000000000e+00  1.3547764197202294e-08 7.4285367459952886e-07 0.0000000000000000e+00  -3.6037560973669918e-09 7.5378522679455319e-07 0.0000000000000000e+00  -2.0115286398171763e-10 7.4762733384973106e-07 0.0000000000000000e+00  -1.9146869176247261e-10 7.4719634211676972e-07 0.0000000000000000e+00  -5.1260356723096004e-08 7.1706861702112517e-07 0.0000000000000000e+00  4.4476466361596595e-08 6.7289178916294385e-07 0.0000000000000000e+00  -1.4903164533612331e-09 7.5320087627349068e-07 0.0000000000000000e+00  2.8324776823880776e-08 7.7437030447751716e-07 0.0000000000000000e+00  -9.8925865080698452e-09 8.1683029948794314e-07 0.0000000000000000e+00  -7.0976605592601651e-08 6.8292421071657791e-07 0.0000000000000000e+00  6.8368522391553429e-08 6.7968305044527035e-07 0.0000000000000000e+00  2.5231750234869283e-08 8.2078079737146593e-07 0.0000000000000000e+00  8.7092448277161364e-10 8.4415268263027593e-07 0.0000000000000000e+00  5.5216316660134827e-09 8.6245498224742528e-07 0.0000000000000000e+00  -8.5791317928732864e-08 7.3252087451829733e-07 0.0000000000000000e+00  6.3498301583584509e-08 7.0406240700921378e-07 0.0000000000000000e+00  2.2477913202183191e-08 8.3979828023170724e-07 0.0000000000000000e+00  6.7928454182378373e-09 8.7278453191881267e-07 0.0000000000000000e+00  -1.1839917091960774e-08 8.6621789793982655e-07 0.0000000000000000e+00  -5.8404081830200789e-08 7.2021013384082041e-07 0.0000000000000000e+00  1.1940893502888651e-07 8.3138742142616980e-07 0.0000000000000000e+00  -1.0430778984949520e-07 8.5526176469141933e-07 0.0000000000000000e+00  8.6608561546763024e-08 8.4253485638421171e-07 0.0000000000000000e+00  -1.2891643511548675e-07 7.8076971128867850e-07 0.0000000000000000e+00  4.4300296685769529e-08 6.4410049999886330e-07 0.0000000000000000e+00  5.3359107600135535e-09 7.5394192361366735e-07 0.0000000000000000e+00  1.0936544764882055e-09 7.6120131717101725e-07 0.0000000000000000e+00  -5.7267023857326499e-09 7.5587000392213276e-07 0.0000000000000000e+00  1.1158729023639522e-09 7.5023693533495269e-07 0.0000000000000000e+00  -6.2102534055512939e-10 7.5170253716266117e-07 0.0000000000000000e+00  5.8292364934484944e-09 7.5715410636867405e-07 0.0000000000000000e+00  2.5680114185778882e-08 7.9396839229286752e-07 0.0000000000000000e+00  -8.9488963853576422e-09 8.2413686745908094e-07 0.0000000000000000e+00  -7.0213243835909766e-08 7.0007675639911318e-07 0.0000000000000000e+00  5.3865359040055174e-08 7.0440400481548203e-07 0.0000000000000000e+00  2.8878287538884437e-10 7.5401917196911992e-07 0.0000000000000000e+00  3.0913352779711761e-08 7.8261608744773267e-07 0.0000000000000000e+00  -1.3315489059323657e-09 8.3589352319894551e-07 0.0000000000000000e+00  -1.9223817375013897e-08 8.0233908178120919e-07 0.0000000000000000e+00  -9.8773969265488106e-09 7.6813835479137114e-07 0.0000000000000000e+00  -4.0203940478076090e-08 6.9773421622366396e-07 0.0000000000000000e+00  1.0984785481633308e-07 7.9905276781116658e-07 0.