<?xml version="1.0"?>
<VTKFile type="UnstructuredGrid"  version="0.1"  >
<UnstructuredGrid>
<Piece  NumberOfPoints="11902" NumberOfCells="23402">
<Points>
<DataArray  type="Float64"  NumberOfComponents="3"  format="ascii">-5 -5 0  5 -5 0  5 5 0  -5 5 0  1.142671555627608 0.00095760486832195 0  -4.9 -5 0  -4.8 -5 0  -4.7 -5 0  -4.6 -5 0  -4.5 -5 0  -4.4 -5 0  -4.3 -5 0  -4.2 -5 0  -4.1 -5 0  -4 -5 0  -3.9 -5 0  -3.8 -5 0  -3.7 -5 0  -3.6 -5 0  -3.5 -5 0  -3.4 -5 0  -3.3 -5 0  -3.2 -5 0  -3.1 -5 0  -3 -5 0  -2.9 -5 0  -2.8 -5 0  -2.7 -5 0  -2.6 -5 0  -2.5 -5 0  -2.4 -5 0  -2.3 -5 0  -2.2 -5 0  -2.1 -5 0  -2 -5 0  -1.9 -5 0  -1.8 -5 0  -1.7 -5 0  -1.6 -5 0  -1.5 -5 0  -1.4 -5 0  -1.3 -5 0  -1.2 -5 0  -1.1 -5 0  -1 -5 0  -0.9000000000000004 -5 0  -0.7999999999999998 -5 0  -0.7000000000000002 -5 0  -0.5999999999999996 -5 0  -0.5 -5 0  -0.4000000000000004 -5 0  -0.2999999999999998 -5 0  -0.2000000000000002 -5 0  -0.09999999999999964 -5 0  0 -5 0  0.09999999999999964 -5 0  0.2000000000000002 -5 0  0.2999999999999998 -5 0  0.4000000000000004 -5 0  0.5 -5 0  0.5999999999999996 -5 0  0.7000000000000002 -5 0  0.7999999999999998 -5 0  0.9000000000000004 -5 0  1 -5 0  1.1 -5 0  1.2 -5 0  1.3 -5 0  1.4 -5 0  1.5 -5 0  1.6 -5 0  1.7 -5 0  1.8 -5 0  1.9 -5 0  2 -5 0  2.1 -5 0  2.2 -5 0  2.3 -5 0  2.4 -5 0  2.5 -5 0  2.6 -5 0  2.7 -5 0  2.8 -5 0  2.9 -5 0  3 -5 0  3.1 -5 0  3.199999999999999 -5 0  3.300000000000001 -5 0  3.4 -5 0  3.5 -5 0  3.6 -5 0  3.699999999999999 -5 0  3.800000000000001 -5 0  3.9 -5 0  4 -5 0  4.1 -5 0  4.199999999999999 -5 0  4.300000000000001 -5 0  4.4 -5 0  4.5 -5 0  4.6 -5 0  4.699999999999999 -5 0  4.800000000000001 -5 0  4.9 -5 0  5 -4.9 0  5 -4.8 0  5 -4.7 0  5 -4.6 0  5 -4.5 0  5 -4.4 0  5 -4.3 0  5 -4.2 0  5 -4.1 0  5 -4 0  5 -3.9 0  5 -3.8 0  5 -3.7 0  5 -3.6 0  5 -3.5 0  5 -3.4 0  5 -3.3 0  5 -3.2 0  5 -3.1 0  5 -3 0  5 -2.9 0  5 -2.8 0  5 -2.7 0  5 -2.6 0  5 -2.5 0  5 -2.4 0  5 -2.3 0  5 -2.2 0  5 -2.1 0  5 -2 0  5 -1.9 0  5 -1.8 0  5 -1.7 0  5 -1.6 0  5 -1.5 0  5 -1.4 0  5 -1.3 0  5 -1.2 0  5 -1.1 0  5 -1 0  5 -0.9000000000000004 0  5 -0.7999999999999998 0  5 -0.7000000000000002 0  5 -0.5999999999999996 0  5 -0.5 0  5 -0.4000000000000004 0  5 -0.2999999999999998 0  5 -0.2000000000000002 0  5 -0.09999999999999964 0  5 0 0  5 0.09999999999999964 0  5 0.2000000000000002 0  5 0.2999999999999998 0  5 0.4000000000000004 0  5 0.5 0  5 0.5999999999999996 0  5 0.7000000000000002 0  5 0.7999999999999998 0  5 0.9000000000000004 0  5 1 0  5 1.1 0  5 1.2 0  5 1.3 0  5 1.4 0  5 1.5 0  5 1.6 0  5 1.7 0  5 1.8 0  5 1.9 0  5 2 0  5 2.1 0  5 2.2 0  5 2.3 0  5 2.4 0  5 2.5 0  5 2.6 0  5 2.7 0  5 2.8 0  5 2.9 0  5 3 0  5 3.1 0  5 3.199999999999999 0  5 3.300000000000001 0  5 3.4 0  5 3.5 0  5 3.6 0  5 3.699999999999999 0  5 3.800000000000001 0  5 3.9 0  5 4 0  5 4.1 0  5 4.199999999999999 0  5 4.300000000000001 0  5 4.4 0  5 4.5 0  5 4.6 0  5 4.699999999999999 0  5 4.800000000000001 0  5 4.9 0  4.9 5 0  4.8 5 0  4.7 5 0  4.6 5 0  4.5 5 0  4.4 5 0  4.3 5 0  4.2 5 0  4.1 5 0  4 5 0  3.9 5 0  3.8 5 0  3.7 5 0  3.6 5 0  3.5 5 0  3.4 5 0  3.3 5 0  3.2 5 0  3.1 5 0  3 5 0  2.9 5 0  2.8 5 0  2.7 5 0  2.6 5 0  2.5 5 0  2.4 5 0  2.3 5 0  2.2 5 0  2.1 5 0  2 5 0  1.9 5 0  1.8 5 0  1.7 5 0  1.6 5 0  1.5 5 0  1.4 5 0  1.3 5 0  1.2 5 0  1.1 5 0  1 5 0  0.9000000000000004 5 0  0.7999999999999998 5 0  0.7000000000000002 5 0  0.5999999999999996 5 0  0.5 5 0  0.4000000000000004 5 0  0.2999999999999998 5 0  0.2000000000000002 5 0  0.09999999999999964 5 0  0 5 0  -0.09999999999999964 5 0  -0.2000000000000002 5 0  -0.2999999999999998 5 0  -0.4000000000000004 5 0  -0.5 5 0  -0.5999999999999996 5 0  -0.7000000000000002 5 0  -0.7999999999999998 5 0  -0.9000000000000004 5 0  -1 5 0  -1.1 5 0  -1.2 5 0  -1.3 5 0  -1.4 5 0  -1.5 5 0  -1.6 5 0  -1.7 5 0  -1.8 5 0  -1.9 5 0  -2 5 0  -2.1 5 0  -2.2 5 0  -2.3 5 0  -2.4 5 0  -2.5 5 0  -2.6 5 0  -2.7 5 0  -2.8 5 0  -2.9 5 0  -3 5 0  -3.1 5 0  -3.199999999999999 5 0  -3.300000000000001 5 0  -3.4 5 0  -3.5 5 0  -3.6 5 0  -3.699999999999999 5 0  -3.800000000000001 5 0  -3.9 5 0  -4 5 0  -4.1 5 0  -4.199999999999999 5 0  -4.300000000000001 5 0  -4.4 5 0  -4.5 5 0  -4.6 5 0  -4.699999999999999 5 0  -4.800000000000001 5 0  -4.9 5 0  -5 4.9 0  -5 4.8 0  -5 4.7 0  -5 4.6 0  -5 4.5 0  -5 4.4 0  -5 4.3 0  -5 4.2 0  -5 4.1 0  -5 4 0  -5 3.9 0  -5 3.8 0  -5 3.7 0  -5 3.6 0  -5 3.5 0  -5 3.4 0  -5 3.3 0  -5 3.2 0  -5 3.1 0  -5 3 0  -5 2.9 0  -5 2.8 0  -5 2.7 0  -5 2.6 0  -5 2.5 0  -5 2.4 0  -5 2.3 0  -5 2.2 0  -5 2.1 0  -5 2 0  -5 1.9 0  -5 1.8 0  -5 1.7 0  -5 1.6 0  -5 1.5 0  -5 1.4 0  -5 1.3 0  -5 1.2 0  -5 1.1 0  -5 1 0  -5 0.9000000000000004 0  -5 0.7999999999999998 0  -5 0.7000000000000002 0  -5 0.5999999999999996 0  -5 0.5 0  -5 0.4000000000000004 0  -5 0.2999999999999998 0  -5 0.2000000000000002 0  -5 0.09999999999999964 0  -5 0 0  -5 -0.09999999999999964 0  -5 -0.2000000000000002 0  -5 -0.2999999999999998 0  -5 -0.4000000000000004 0  -5 -0.5 0  -5 -0.5999999999999996 0  -5 -0.7000000000000002 0  -5 -0.7999999999999998 0  -5 -0.9000000000000004 0  -5 -1 0  -5 -1.1 0  -5 -1.2 0  -5 -1.3 0  -5 -1.4 0  -5 -1.5 0  -5 -1.6 0  -5 -1.7 0  -5 -1.8 0  -5 -1.9 0  -5 -2 0  -5 -2.1 0  -5 -2.2 0  -5 -2.3 0  -5 -2.4 0  -5 -2.5 0  -5 -2.6 0  -5 -2.7 0  -5 -2.8 0  -5 -2.9 0  -5 -3 0  -5 -3.1 0  -5 -3.199999999999999 0  -5 -3.300000000000001 0  -5 -3.4 0  -5 -3.5 0  -5 -3.6 0  -5 -3.699999999999999 0  -5 -3.800000000000001 0  -5 -3.9 0  -5 -4 0  -5 -4.1 0  -5 -4.199999999999999 0  -5 -4.300000000000001 0  -5 -4.4 0  -5 -4.5 0  -5 -4.6 0  -5 -4.699999999999999 0  -5 -4.800000000000001 0  -5 -4.9 0  1.13713756376774 0.1002067913594512 0  1.119752413180268 0.1992933478073259 0  1.090428907656609 0.2970026396824118 0  1.051940949853455 0.3899420490959815 0  1.002375781040418 0.480895024768821 0  0.9435064393519506 0.5664712532552617 0  0.8744513836904296 0.6462695316192014 0  0.7961345761848234 0.7192319467265996 0  0.7108594807801737 0.7854051924251404 0  0.6183797361188924 0.844219831334003 0  0.5191463352889912 0.8943681855796324 0  0.4149905342565463 0.9357810726898868 0  0.3081431052286154 0.9683593850530381 0  0.1970835726198026 0.9905753754218311 0  0.08555980450847749 1.003722017781519 0  -0.02723497601549426 1.006341555093289 0  -0.1398431446260121 0.9980184433120428 0  -0.2517181393255984 0.9808520119403873 0  -0.3610992055124623 0.9540821707680069 0  -0.4664315507527779 0.9173705955594488 0  -0.5668697412922802 0.8720113534956205 0  -0.6621598086441345 0.8173836572029122 0  -0.7508368587115714 0.754904999596032 0  -0.8324015119095406 0.6850224189909038 0  -0.9062035180365264 0.6073268757261109 0  -0.9704322491421731 0.5242996990502788 0  -1.025738797969527 0.4366438540095611 0  -1.070202186275947 0.343944535407558 0  -1.103670973101692 0.2485957827760757 0  -1.126389228933804 0.1507978513523527 0  -1.137950478222229 0.05086987378487464 0  -1.137976188117482 -0.04964910785964444 0  -1.126428275457628 -0.1493714292701678 0  -1.104901500108395 -0.2471654566060083 0  -1.070063429571611 -0.3434271639640138 0  -1.026063129404154 -0.4354322154645965 0  -0.9711030203579388 -0.5233288882278576 0  -0.9071041038145883 -0.6060201214793771 0  -0.8333354667123389 -0.6828841593033426 0  -0.7512697976150643 -0.7523250662402026 0  -0.661848382572768 -0.8139890938561291 0  -0.5672353411837615 -0.8687140435851373 0  -0.4647994392182535 -0.9144814491975196 0  -0.3593088659652919 -0.9519571841502256 0  -0.2498048692825285 -0.9793695876792273 0  -0.1385945829564909 -0.9969924466036818 0  -0.02649355926309062 -1.005761815868214 0  0.08604418066217284 -1.002424463147445 0  0.1987221658412258 -0.9890285154122982 0  0.3090011504696419 -0.9669188062014979 0  0.417327003640085 -0.9345129199637076 0  0.5201479033201928 -0.8933832202384435 0  0.6189064033933158 -0.8434955469672323 0  0.7111028969208102 -0.7859845590576479 0  0.7962991843693283 -0.7196793140473848 0  0.8740713125919819 -0.6457416078536191 0  0.9425993802014099 -0.565743916868884 0  1.002468062885783 -0.4804261404756301 0  1.053019034170011 -0.3900471280945329 0  1.091534106777828 -0.2961755862668106 0  1.11986866157428 -0.1986785583172342 0  1.137157064929552 -0.0998666872397289 0  -2.449046915039804 4.919009369964449 0  -2.448964442662372 -4.911468758002903 0  4.911415774769231 2.448593613486995 0  4.919450301367619 -2.449991794877736 0  2.446780524166575 -4.896870479240699 0  2.441194066569012 4.900596002215355 0  -4.911434681588553 -2.448612382995541 0  -4.91143436902711 2.448616177728505 0  -1.749018045358659 4.912292886779573 0  -1.744782988883006 -4.915682901844459 0  4.921855326058095 1.744702387600398 0  4.910562011319776 -1.748556055207807 0  -4.910840462948318 -1.74827955936467 0  -4.911652826657996 1.748016903337709 0  1.746322056173384 4.906245043680747 0  1.747799202244202 -4.894557484877347 0  -1.149226731043753 4.910347392516777 0  -1.130043932963544 -4.918131865107134 0  -4.910909093850149 -1.148481900968462 0  -4.910733092350912 1.148281534907054 0  1.144196181414638 -4.914381100616889 0  1.149231867539467 4.910338564472805 0  4.911063519616154 1.146761680074427 0  4.921684760552965 -1.152479208300767 0  -0.5468698363246223 -4.911670245618668 0  -0.5466323580800804 4.920200668721783 0  -4.909924141085519 -0.5490166372328023 0  -4.909949215958171 0.5475709000983982 0  4.909277008648764 -0.5493408598463462 0  4.92068101615703 0.546056157311671 0  0.5426710809060254 -4.898792174761276 0  0.5513644988468402 4.917082691793612 0  -4.912542202500218 -3.048850459889592 0  4.919070068044673 3.046830785456048 0  4.912057356220409 -3.048835205910889 0  -4.913386930429692 3.045937536810556 0  3.055720836020088 -4.918024583966973 0  -3.049082904055125 -4.912004455573078 0  3.052640686794895 4.914070585993824 0  -3.048526014499689 4.912888816248167 0  -4.909137989314844 -0.04993847704535533 0  0.04513234510967346 -4.913633412733586 0  0.04958126946655783 4.920532808689079 0  4.916052639374131 -0.05131862712378303 0  3.545951522246513 -4.919475776289449 0  -3.5492613341
[...]
<PointData  Vectors="f_1438"> 
<DataArray  type="Float64"  Name="f_1438"  NumberOfComponents="3" format="ascii">-4.5510811072346755e-07 -4.5512251503856460e-07 0.0000000000000000e+00  4.5510623510194344e-07 -4.5512116172675627e-07 0.0000000000000000e+00  5.0306126574231690e-07 5.0307176627479799e-07 0.0000000000000000e+00  -4.5510766601392274e-07 4.5512187694211551e-07 0.0000000000000000e+00  -5.9041371292921463e-01 -1.1961021229499125e-02 0.0000000000000000e+00  9.1178616629042039e-08 -9.0604088323217952e-07 0.0000000000000000e+00  -1.0658719075442750e-07 -8.6012511446739053e-07 0.0000000000000000e+00  1.0477366782438320e-07 -8.7320308691316995e-07 0.0000000000000000e+00  -9.1392991515765373e-08 -8.8086183276624796e-07 0.0000000000000000e+00  -2.1228947007590610e-08 -9.0495510382682718e-07 0.0000000000000000e+00  3.5883316328054788e-08 -1.0620312355127438e-06 0.0000000000000000e+00  6.0517392420003700e-09 -9.3710505831956067e-07 0.0000000000000000e+00  7.3465454082826014e-08 -7.7961905963528976e-07 0.0000000000000000e+00  -1.0504929491003360e-07 -8.4562682730015524e-07 0.0000000000000000e+00  1.2027466421556119e-07 -8.2599172968410370e-07 0.0000000000000000e+00  -2.6612814014515857e-08 -6.8089902747600740e-07 0.0000000000000000e+00  -5.3751281983466559e-09 -7.5297032626083084e-07 0.0000000000000000e+00  -1.3002585250837932e-08 -7.6741163315642179e-07 0.0000000000000000e+00  1.0366439237791377e-08 -7.7630543290951634e-07 0.0000000000000000e+00  2.9644260391001354e-10 -7.6065188154111294e-07 0.0000000000000000e+00  3.0537410077577983e-10 -7.5997446576186743e-07 0.0000000000000000e+00  5.0521984418670283e-08 -7.2587413925977029e-07 0.0000000000000000e+00  -4.4556672578204193e-08 -6.8748878862643483e-07 0.0000000000000000e+00  3.2153497560656468e-10 -7.5786565145567799e-07 0.0000000000000000e+00  3.9913804138788122e-08 -6.6076486784402166e-07 0.0000000000000000e+00  -1.2848309862653334e-07 -8.0648154229326037e-07 0.0000000000000000e+00  9.7340688689649201e-08 -8.4869499320735204e-07 0.0000000000000000e+00  -9.4273715162377526e-08 -8.4839988634732375e-07 0.0000000000000000e+00  1.2505645511702881e-07 -7.9852465999018336e-07 0.0000000000000000e+00  -3.7894335303642497e-08 -6.4629664881983491e-07 0.0000000000000000e+00  3.4111462217347266e-10 -7.5261755127646079e-07 0.0000000000000000e+00  3.5597598541043086e-08 -6.8433622606445864e-07 0.0000000000000000e+00  -1.2119204438189528e-07 -8.0998410485062777e-07 0.0000000000000000e+00  1.0027530014033059e-07 -8.4442816877301627e-07 0.0000000000000000e+00  -9.4949698563750563e-08 -8.6533529732499493e-07 0.0000000000000000e+00  1.0382737177543817e-09 -8.6672118478779070e-07 0.0000000000000000e+00  6.7834526937657478e-08 -9.7300818352835202e-07 0.0000000000000000e+00  1.1471772007187291e-08 -7.8990108093227310e-07 0.0000000000000000e+00  7.9393031376824691e-09 -7.6117624371389982e-07 0.0000000000000000e+00  6.2800997806688315e-10 -7.4645707573778349e-07 0.0000000000000000e+00  9.9437218490583552e-09 -7.2412563786889118e-07 0.0000000000000000e+00  4.0599459385706381e-08 -6.3520891157099603e-07 0.0000000000000000e+00  -7.9966978667394561e-08 -6.7651950508152303e-07 0.0000000000000000e+00  -8.9164566224301874e-08 -9.6204962029253729e-07 0.0000000000000000e+00  9.7960096576863625e-08 -9.5870622641821548e-07 0.0000000000000000e+00  5.2268469788057890e-08 -6.9899847685693114e-07 0.0000000000000000e+00  -9.5567318996593939e-08 -8.2380661729335401e-07 0.0000000000000000e+00  -1.0701348039375097e-08 -7.5024033207180808e-07 0.0000000000000000e+00  5.8077134503055178e-08 -9.1218526676101257e-07 0.0000000000000000e+00  1.8569243356207682e-09 -7.5598516097196141e-07 0.0000000000000000e+00  4.5746079206931327e-09 -7.5317042940182548e-07 0.0000000000000000e+00  8.2115837393269546e-11 -7.4072798883884674e-07 0.0000000000000000e+00  -3.6582786616037979e-10 -7.4159297720126970e-07 0.0000000000000000e+00  -1.8600320387495356e-09 -7.4602003315382295e-07 0.0000000000000000e+00  -1.2197990738684759e-08 -7.7484518899789734e-07 0.0000000000000000e+00  -7.2700893051260600e-08 -9.5935909748698618e-07 0.0000000000000000e+00  7.7517185195174789e-09 -8.3159721294811538e-07 0.0000000000000000e+00  9.1608882377186662e-08 -8.2308409890055550e-07 0.0000000000000000e+00  -1.0599132841004136e-07 -8.1550062129889727e-07 0.0000000000000000e+00  1.1978280772208807e-07 -7.9819455863953528e-07 0.0000000000000000e+00  -2.7949468809272918e-08 -6.6140701413442155e-07 0.0000000000000000e+00  -9.4113883178702184e-09 -7.3804998803816606e-07 0.0000000000000000e+00  -6.6773395336299491e-09 -7.4942506401014263e-07 0.0000000000000000e+00  5.2122968926711840e-09 -7.5098735933893259e-07 0.0000000000000000e+00  -5.1375302080776058e-09 -7.5412728710647860e-07 0.0000000000000000e+00  -1.0096110759144268e-08 -7.8463522489543755e-07 0.0000000000000000e+00  4.7581803479893645e-08 -7.1241365269249139e-07 0.0000000000000000e+00  -8.6876028761372173e-08 -7.6129525509895130e-07 0.0000000000000000e+00  1.3033284243194812e-08 -8.7311219360606364e-07 0.0000000000000000e+00  5.8842208400174554e-09 -8.3649583842338179e-07 0.0000000000000000e+00  1.5640250512553037e-08 -8.2923045193879315e-07 0.0000000000000000e+00  7.2632532120243959e-08 -6.8765148790867300e-07 0.0000000000000000e+00  -6.8324340201976157e-08 -6.8502005346369909e-07 0.0000000000000000e+00  -1.4648204376514919e-08 -8.1019294152731730e-07 0.0000000000000000e+00  2.7586453343520930e-08 -7.9134901301059021e-07 0.0000000000000000e+00  1.7946081015229914e-09 -7.5714391226786863e-07 0.0000000000000000e+00  8.1981107410313337e-11 -7.5216246797210401e-07 0.0000000000000000e+00  -5.6180465757325021e-09 -7.7572168078393049e-07 0.0000000000000000e+00  5.3580719923016350e-08 -6.8837347373309607e-07 0.0000000000000000e+00  -3.3423563914227858e-08 -6.6017282579080673e-07 0.0000000000000000e+00  -1.6594457934955801e-08 -7.4749047353801542e-07 0.0000000000000000e+00  -4.3710334314015607e-08 -8.0745294432810931e-07 0.0000000000000000e+00  -6.2809965529324014e-09 -8.7956184746998343e-07 0.0000000000000000e+00  8.5802929842595790e-08 -7.4645504666768405e-07 0.0000000000000000e+00  -6.2395358974671097e-08 -7.1728317757534921e-07 0.0000000000000000e+00  -4.7913701337771264e-09 -8.2957890327828366e-07 0.0000000000000000e+00  4.1475432818101873e-08 -7.8718433021259931e-07 0.0000000000000000e+00  -1.9028795449822090e-08 -7.5728618218427371e-07 0.0000000000000000e+00  -2.5351689744083118e-08 -7.9583698476368763e-07 0.0000000000000000e+00  2.9786025657552244e-09 -8.5183017404301807e-07 0.0000000000000000e+00  7.5023959983213883e-08 -7.1595344378815187e-07 0.0000000000000000e+00  -7.3113640162245475e-08 -7.1382046693072379e-07 0.0000000000000000e+00  -8.1619072136542380e-09 -8.4480902270560593e-07 0.0000000000000000e+00  3.3311516976056995e-08 -8.1006039861427507e-07 0.0000000000000000e+00  1.6009728278681690e-08 -7.4565438128465275e-07 0.0000000000000000e+00  -1.2405684357826425e-08 -7.4037601228108444e-07 0.0000000000000000e+00  -6.9280085438865756e-09 -7.7753327923870689e-07 0.0000000000000000e+00  5.2240626939380652e-08 -6.9615236873110633e-07 0.0000000000000000e+00  -6.5814163556423876e-08 -7.0864788772917895e-07 0.0000000000000000e+00  -1.8687452989734585e-08 -8.4028209703596564e-07 0.0000000000000000e+00  2.8417886333585656e-08 -8.1823219445033857e-07 0.0000000000000000e+00  3.3247913157273170e-09 -7.8022605096638646e-07 0.0000000000000000e+00  -6.7315263328933035e-09 -7.9438142226842593e-07 0.0000000000000000e+00  -6.0208651384883259e-08 -9.4814322823094668e-07 0.0000000000000000e+00  8.9108597970326551e-07 8.8221932973309941e-08 0.0000000000000000e+00  8.8534890227491816e-07 -1.2422328528224619e-07 0.0000000000000000e+00  9.1700266685119929e-07 1.1032681493286252e-07 0.0000000000000000e+00  7.5675232915821609e-07 -2.5057368105782843e-08 0.0000000000000000e+00  8.0180666304542068e-07 1.6788012909333142e-08 0.0000000000000000e+00  7.8004492609267024e-07 4.8076314234486950e-10 0.0000000000000000e+00  7.7950469705097709e-07 -2.5331845860919204e-10 0.0000000000000000e+00  7.7930768365661774e-07 7.3881128077079561e-10 0.0000000000000000e+00  7.8345840780231045e-07 -6.4472567742176080e-09 0.0000000000000000e+00  7.9208075976076358e-07 3.7684425192786831e-09 0.0000000000000000e+00  7.9517899745493956e-07 -6.8104566160346805e-09 0.0000000000000000e+00  7.9352613499415817e-07 1.1863692643629421e-08 0.0000000000000000e+00  7.8605527741433131e-07 -1.2884626428345030e-08 0.0000000000000000e+00  7.8629864398716835e-07 9.0805326440003113e-09 0.0000000000000000e+00  8.0071470440516708e-07 -1.4256379859159247e-08 0.0000000000000000e+00  7.8929886762041058e-07 2.2885209645941661e-08 0.0000000000000000e+00  7.7234941273021386e-07 -3.5032652366126552e-09 0.0000000000000000e+00  7.8140914142147678e-07 -1.1244977096024196e-08 0.0000000000000000e+00  7.7086413793695262e-07 1.6248124896979172e-08 0.0000000000000000e+00  7.7626994075414350e-07 -1.8126574705648515e-08 0.0000000000000000e+00  7.9580248610375781e-07 6.0715934515164801e-09 0.0000000000000000e+00  7.7081278463979712e-07 1.3338913419608753e-08 0.0000000000000000e+00  8.0341875073783563e-07 -3.2034306883956125e-08 0.0000000000000000e+00  8.3702060330768935e-07 -8.2586428868439654e-09 0.0000000000000000e+00  8.3486230940405622e-07 8.9301232762882614e-09 0.0000000000000000e+00  7.9546866005694483e-07 2.1455647184042651e-08 0.0000000000000000e+00  7.6346551798929386e-07 1.0782212643851632e-08 0.0000000000000000e+00  7.5012063269429037e-07 4.5309581498671102e-10 0.0000000000000000e+00  7.4908762674166148e-07 4.7074657664913468e-10 0.0000000000000000e+00  7.4804588553586563e-07 4.7176208976870007e-10 0.0000000000000000e+00  7.4704194749831395e-07 4.6871681050576766e-10 0.0000000000000000e+00  7.4600671087049695e-07 4.8140600945000896e-10 0.0000000000000000e+00  7.5592030153519087e-07 -1.1300294962117365e-08 0.0000000000000000e+00  7.6979218174262220e-07 1.6033798382928274e-09 0.0000000000000000e+00  7.5704385907611902e-07 1.1231540216160429e-08 0.0000000000000000e+00  7.8883787261985238e-07 -3.0754184815163880e-08 0.0000000000000000e+00  8.2133354005855760e-07 -9.8469668266143755e-09 0.0000000000000000e+00  8.4938475919653192e-07 -6.0714933861261268e-09 0.0000000000000000e+00  8.4771930866051259e-07 1.7961390685813298e-08 0.0000000000000000e+00  7.3059094054108444e-07 5.4705712700306778e-10 0.0000000000000000e+00  8.1760741729339297e-07 3.4239277062960269e-08 0.0000000000000000e+00  7.3989767842629596e-07 -1.0139102049733204e-09 0.0000000000000000e+00  7.3592220338769925e-07 1.6130182332584891e-09 0.0000000000000000e+00  7.3552911756254798e-07 2.6732040635056457e-10 0.0000000000000000e+00  7.9003895481246205e-07 -3.0190713353234630e-08 0.0000000000000000e+00  7.9979641736497504e-07 -9.1784919839351359e-09 0.0000000000000000e+00  8.2186512736101427e-07 -1.6138643334830256e-09 0.0000000000000000e+00  8.1269627925612012e-07 7.0139427396199189e-09 0.0000000000000000e+00  8.0885278019047168e-07 6.6560803666054971e-09 0.0000000000000000e+00  8.0749376495709782e-07 -1.4665319763998279e-08 0.0000000000000000e+00  8.3793938611354804e-07 -2.0782870360293497e-09 0.0000000000000000e+00  8.4718926672349154e-07 -1.7317347597621830e-09 0.0000000000000000e+00  8.2717746763337280e-07 5.4691922892821225e-10 0.0000000000000000e+00  8.4151998470027430e-07 5.0291460921073273e-10 0.0000000000000000e+00  8.4799828257747857e-07 -1.4147027913709918e-09 0.0000000000000000e+00  8.2815508596357164e-07 4.2370794318833945e-10 0.0000000000000000e+00  8.3972870655310715e-07 1.4183383260400032e-09 0.0000000000000000e+00  8.3454920816642440e-07 2.6901874249172242e-09 0.0000000000000000e+00  7.9213191383846684e-07 2.4677407766594249e-08 0.0000000000000000e+00  7.7024482859281426e-07 -4.4032374062303337e-11 0.0000000000000000e+00  7.6710652423578388e-07 8.7937100737643136e-09 0.0000000000000000e+00  7.6461390986082413e-07 -1.1972716786638889e-08 0.0000000000000000e+00  7.7084629497310692e-07 -2.4302548319663727e-10 0.0000000000000000e+00  7.8384387793829402e-07 -4.6144405249988546e-11 0.0000000000000000e+00  8.0308728172910342e-07 -2.3998518458089103e-08 0.0000000000000000e+00  8.4522257524302881e-07 -3.8758690286382922e-09 0.0000000000000000e+00  8.5945752327989670e-07 -2.8557967303810094e-09 0.0000000000000000e+00  8.4111998804498853e-07 -7.6142347356583913e-11 0.0000000000000000e+00  8.5294414528409608e-07 3.3759194221574495e-09 0.0000000000000000e+00  8.2797735422698521e-07 1.2290631537547780e-08 0.0000000000000000e+00  7.7888196895824953e-07 2.2611265965607923e-08 0.0000000000000000e+00  7.5383748906275024e-07 4.0400420134438640e-09 0.0000000000000000e+00  7.5109205588682801e-07 -4.4263031846096960e-10 0.0000000000000000e+00  7.5203768782881928e-07 -4.1671195592684804e-10 0.0000000000000000e+00  7.5548285925770097e-07 -1.4707648236611291e-09 0.0000000000000000e+00  7.6314234029604861e-07 -4.8024602650398583e-09 0.0000000000000000e+00  7.8417457713480047e-07 -1.0494661447405136e-08 0.0000000000000000e+00  8.1665086978532207e-07 -2.3698710859087456e-08 0.0000000000000000e+00  8.5636714847196190e-07 -1.0358771216133251e-09 0.0000000000000000e+00  8.3640401889731199e-07 1.1420966552023272e-08 0.0000000000000000e+00  8.0861554404982950e-07 1.4900955843063041e-08 0.0000000000000000e+00  8.0230181701318349e-07 -8.0385159256763277e-09 0.0000000000000000e+00  8.2129300015418212e-07 -1.9138882954516524e-08 0.0000000000000000e+00  8.5608743729990345e-07 1.9618544320442436e-10 0.0000000000000000e+00  8.4071097045103407e-07 1.0726465364149343e-08 0.0000000000000000e+00  8.1286737723599694e-07 8.7730648575723027e-09 0.0000000000000000e+00  7.8212620249990494e-07 1.8398114160185465e-08 0.0000000000000000e+00  7.7282733342335509e-07 -8.0382483895932890e-09 0.0000000000000000e+00  7.7202659764994056e-07 7.4799437959871054e-09 0.0000000000000000e+00  7.6437499788900351e-07 -2.5314128204702028e-10 0.0000000000000000e+00  7.6494486677177607e-07 -2.4541245090263586e-10 0.0000000000000000e+00  7.7849569820739549e-07 -1.1395662066504365e-08 0.0000000000000000e+00  7.7892309498499565e-07 1.0925222882198617e-08 0.0000000000000000e+00  7.6931347336058790e-07 -2.5208639039636786e-09 0.0000000000000000e+00  8.0009374984445009e-07 -1.2059965885776442e-08 0.0000000000000000e+00  8.1432269442279304e-07 -6.9944124642290083e-09 0.0000000000000000e+00  8.2311418083466720e-07 -1.7215924455411210e-08 0.0000000000000000e+00  8.4630261298938128e-07 -3.7511596494970680e-09 0.0000000000000000e+00  1.0391850063054898e-06 -6.0192970807944374e-08 0.0000000000000000e+00  -1.0909291206271348e-07 9.7273201979640221e-07 0.0000000000000000e+00  5.7002004201192571e-08 8.2987518355445163e-07 0.0000000000000000e+00  1.0363572010600335e-09 9.4619360294564941e-07 0.0000000000000000e+00  3.4500048685892036e-08 1.0618761950048411e-06 0.0000000000000000e+00  -1.8645306191408685e-08 9.0113031083727373e-07 0.0000000000000000e+00  -8.8539576074726485e-08 8.9463859232577935e-07 0.0000000000000000e+00  1.3332656779757377e-07 9.1968238193081011e-07 0.0000000000000000e+00  -1.4568902333234897e-07 9.2523240975959965e-07 0.0000000000000000e+00  1.1944517081569498e-08 7.0681282388004361e-07 0.0000000000000000e+00  7.7289678084309976e-09 7.6208487652115276e-07 0.0000000000000000e+00  -1.2223775573070485e-08 7.7816341489951836e-07 0.0000000000000000e+00  -1.1633652535709553e-08 7.5221047003999091e-07 0.0000000000000000e+00  -3.3828407937892343e-08 6.6229083487689043e-07 0.0000000000000000e+00  5.6690887894167738e-08 6.9564145805314729e-07 0.0000000000000000e+00  1.0391441475351199e-09 7.9159192775127991e-07 0.0000000000000000e+00  -1.8400005351602553e-09 7.8160930676360067e-07 0.0000000000000000e+00  -1.4822715079418522e-09 7.7546317647720488e-07 0.0000000000000000e+00  2.1301364950311976e-09 7.7848309660523651e-07 0.0000000000000000e+00  -1.3103949675998847e-09 7.8861231256225426e-07 0.0000000000000000e+00  -5.6502726275866559e-08 6.9555142081858632e-07 0.0000000000000000e+00  4.2313930070822465e-08 6.7671432329771185e-07 0.0000000000000000e+00  -3.8377251832513622e-09 7.4727799926421642e-07 0.0000000000000000e+00  9.1452488845872314e-09 7.5261372914685216e-07 0.0000000000000000e+00  -9.0490906248383375e-09 7.4938096331349119e-07 0.0000000000000000e+00  -2.7861792096397936e-08 6.7247553132038766e-07 0.0000000000000000e+00  1.1962992148667792e-07 8.0999180051388788e-07 0.0000000000000000e+00  -1.0518718338518125e-07 8.3357226339722523e-07 0.0000000000000000e+00  7.3747001116132885e-08 7.6593918101576189e-07 0.0000000000000000e+00  4.2843937059507525e-09 9.2127890153445935e-07 0.0000000000000000e+00  3.5173938829435052e-08 1.0382773457996628e-06 0.0000000000000000e+00  -2.3388122385705575e-08 8.8324148360353341e-07 0.0000000000000000e+00  -9.2553532020151303e-08 8.5603401355996159e-07 0.0000000000000000e+00  9.5947197258936389e-08 8.3774714157123844e-07 0.0000000000000000e+00  -1.2887508192525445e-07 7.9322256653461215e-07 0.0000000000000000e+00  4.2076872764135314e-08 6.5851669787099131e-07 0.0000000000000000e+00  -1.0503419664360561e-08 7.2976448908536294e-07 0.0000000000000000e+00  1.3504284909659954e-08 7.3888436490972298e-07 0.0000000000000000e+00  -3.6461898312407085e-09 7.4968814716512504e-07 0.0000000000000000e+00  -2.4071504345777358e-10 7.4347049209513838e-07 0.0000000000000000e+00  -2.2823259382651798e-10 7.4295919496703646e-07 0.0000000000000000e+00  -5.1299083740409020e-08 7.1298570743160196e-07 0.0000000000000000e+00  4.4451330450524925e-08 6.6890548538213590e-07 0.0000000000000000e+00  -1.5172895578128484e-09 7.4872078132068013e-07 0.0000000000000000e+00  2.8304315075955553e-08 7.6968436415059827e-07 0.0000000000000000e+00  -9.9134729575289336e-09 8.1186227368933940e-07 0.0000000000000000e+00  -7.1001128831629232e-08 6.7877646384076631e-07 0.0000000000000000e+00  6.8365921238419548e-08 6.7546482027279808e-07 0.0000000000000000e+00  2.5227223342512972e-08 8.1567792266035794e-07 0.0000000000000000e+00  8.6727481144246750e-10 8.3889664951188694e-07 0.0000000000000000e+00  5.5223869607837401e-09 8.5707919905268953e-07 0.0000000000000000e+00  -8.5797919597750525e-08 7.2795509148256959e-07 0.0000000000000000e+00  6.3514831780579896e-08 6.9971883221907127e-07 0.0000000000000000e+00  2.2493008749554534e-08 8.3461989584019303e-07 0.0000000000000000e+00  6.8098766490651145e-09 8.6743186562274542e-07 0.0000000000000000e+00  -1.1821203030471248e-08 8.6094035718673779e-07 0.0000000000000000e+00  -5.8386751736808605e-08 7.1583937527760530e-07 0.0000000000000000e+00  1.1944648657019022e-07 8.2655500737396399e-07 0.0000000000000000e+00  -1.0428748616650691e-07 8.5014004924804982e-07 0.0000000000000000e+00  8.6650524819603367e-08 8.3777636975110878e-07 0.0000000000000000e+00  -1.2889574792282675e-07 7.7618282856928475e-07 0.0000000000000000e+00  4.4344957080771759e-08 6.4059951298625677e-07 0.0000000000000000e+00  5.3788523259530785e-09 7.4985905787848692e-07 0.0000000000000000e+00  1.1384488149159499e-09 7.5716947772075289e-07 0.0000000000000000e+00  -5.6800987323760463e-09 7.5195652403104271e-07 0.0000000000000000e+00  1.1648590391515459e-09 7.4646839926688897e-07 0.0000000000000000e+00  -5.7052321194315711e-10 7.4803243439715522e-07 0.0000000000000000e+00  5.8815475286575059e-09 7.5358197402811135e-07 0.0000000000000000e+00  2.5734127033800950e-08 7.9037964931708897e-07 0.0000000000000000e+00  -8.8951647605093925e-09 8.2047536588764333e-07 0.0000000000000000e+00  -7.0160747700432082e-08 6.9696059338272183e-07 0.0000000000000000e+00  5.3921078483143876e-08 7.0161729231679226e-07 0.0000000000000000e+00  3.4469648863573447e-10 7.5104953423149918e-07 0.0000000000000000e+00  3.0968987846416145e-08 7.7972007170449127e-07 0.0000000000000000e+00  -1.2757397137218435e-09 8.3287238643248316e-07 0.0000000000000000e+00  -1.9168039402628283e-08 7.9953568685257158e-07 0.0000000000000000e+00  -9.8221967221517992e-09 7.6559531850527187e-07 0.0000000000000000e+00  -4.0148012564022710e-08 6.9547803767848568e-07 0.0000000000000000e+00  1.0989679570763194e-07 7.9688326291127256e-07 