<?xml version="1.0"?>
<VTKFile type="UnstructuredGrid"  version="0.1"  >
<UnstructuredGrid>
<Piece  NumberOfPoints="11902" NumberOfCells="23402">
<Points>
<DataArray  type="Float64"  NumberOfComponents="3"  format="ascii">-5 -5 0  5 -5 0  5 5 0  -5 5 0  1.015079845214844 9.653840571896435e-05 0  -4.9 -5 0  -4.8 -5 0  -4.7 -5 0  -4.6 -5 0  -4.5 -5 0  -4.4 -5 0  -4.3 -5 0  -4.2 -5 0  -4.1 -5 0  -4 -5 0  -3.9 -5 0  -3.8 -5 0  -3.7 -5 0  -3.6 -5 0  -3.5 -5 0  -3.4 -5 0  -3.3 -5 0  -3.2 -5 0  -3.1 -5 0  -3 -5 0  -2.9 -5 0  -2.8 -5 0  -2.7 -5 0  -2.6 -5 0  -2.5 -5 0  -2.4 -5 0  -2.3 -5 0  -2.2 -5 0  -2.1 -5 0  -2 -5 0  -1.9 -5 0  -1.8 -5 0  -1.7 -5 0  -1.6 -5 0  -1.5 -5 0  -1.4 -5 0  -1.3 -5 0  -1.2 -5 0  -1.1 -5 0  -1 -5 0  -0.9000000000000004 -5 0  -0.7999999999999998 -5 0  -0.7000000000000002 -5 0  -0.5999999999999996 -5 0  -0.5 -5 0  -0.4000000000000004 -5 0  -0.2999999999999998 -5 0  -0.2000000000000002 -5 0  -0.09999999999999964 -5 0  0 -5 0  0.09999999999999964 -5 0  0.2000000000000002 -5 0  0.2999999999999998 -5 0  0.4000000000000004 -5 0  0.5 -5 0  0.5999999999999996 -5 0  0.7000000000000002 -5 0  0.7999999999999998 -5 0  0.9000000000000004 -5 0  1 -5 0  1.1 -5 0  1.2 -5 0  1.3 -5 0  1.4 -5 0  1.5 -5 0  1.6 -5 0  1.7 -5 0  1.8 -5 0  1.9 -5 0  2 -5 0  2.1 -5 0  2.2 -5 0  2.3 -5 0  2.4 -5 0  2.5 -5 0  2.6 -5 0  2.7 -5 0  2.8 -5 0  2.9 -5 0  3 -5 0  3.1 -5 0  3.199999999999999 -5 0  3.300000000000001 -5 0  3.4 -5 0  3.5 -5 0  3.6 -5 0  3.699999999999999 -5 0  3.800000000000001 -5 0  3.9 -5 0  4 -5 0  4.1 -5 0  4.199999999999999 -5 0  4.300000000000001 -5 0  4.4 -5 0  4.5 -5 0  4.6 -5 0  4.699999999999999 -5 0  4.800000000000001 -5 0  4.9 -5 0  5 -4.9 0  5 -4.8 0  5 -4.7 0  5 -4.6 0  5 -4.5 0  5 -4.4 0  5 -4.3 0  5 -4.2 0  5 -4.1 0  5 -4 0  5 -3.9 0  5 -3.8 0  5 -3.7 0  5 -3.6 0  5 -3.5 0  5 -3.4 0  5 -3.3 0  5 -3.2 0  5 -3.1 0  5 -3 0  5 -2.9 0  5 -2.8 0  5 -2.7 0  5 -2.6 0  5 -2.5 0  5 -2.4 0  5 -2.3 0  5 -2.2 0  5 -2.1 0  5 -2 0  5 -1.9 0  5 -1.8 0  5 -1.7 0  5 -1.6 0  5 -1.5 0  5 -1.4 0  5 -1.3 0  5 -1.2 0  5 -1.1 0  5 -1 0  5 -0.9000000000000004 0  5 -0.7999999999999998 0  5 -0.7000000000000002 0  5 -0.5999999999999996 0  5 -0.5 0  5 -0.4000000000000004 0  5 -0.2999999999999998 0  5 -0.2000000000000002 0  5 -0.09999999999999964 0  5 0 0  5 0.09999999999999964 0  5 0.2000000000000002 0  5 0.2999999999999998 0  5 0.4000000000000004 0  5 0.5 0  5 0.5999999999999996 0  5 0.7000000000000002 0  5 0.7999999999999998 0  5 0.9000000000000004 0  5 1 0  5 1.1 0  5 1.2 0  5 1.3 0  5 1.4 0  5 1.5 0  5 1.6 0  5 1.7 0  5 1.8 0  5 1.9 0  5 2 0  5 2.1 0  5 2.2 0  5 2.3 0  5 2.4 0  5 2.5 0  5 2.6 0  5 2.7 0  5 2.8 0  5 2.9 0  5 3 0  5 3.1 0  5 3.199999999999999 0  5 3.300000000000001 0  5 3.4 0  5 3.5 0  5 3.6 0  5 3.699999999999999 0  5 3.800000000000001 0  5 3.9 0  5 4 0  5 4.1 0  5 4.199999999999999 0  5 4.300000000000001 0  5 4.4 0  5 4.5 0  5 4.6 0  5 4.699999999999999 0  5 4.800000000000001 0  5 4.9 0  4.9 5 0  4.8 5 0  4.7 5 0  4.6 5 0  4.5 5 0  4.4 5 0  4.3 5 0  4.2 5 0  4.1 5 0  4 5 0  3.9 5 0  3.8 5 0  3.7 5 0  3.6 5 0  3.5 5 0  3.4 5 0  3.3 5 0  3.2 5 0  3.1 5 0  3 5 0  2.9 5 0  2.8 5 0  2.7 5 0  2.6 5 0  2.5 5 0  2.4 5 0  2.3 5 0  2.2 5 0  2.1 5 0  2 5 0  1.9 5 0  1.8 5 0  1.7 5 0  1.6 5 0  1.5 5 0  1.4 5 0  1.3 5 0  1.2 5 0  1.1 5 0  1 5 0  0.9000000000000004 5 0  0.7999999999999998 5 0  0.7000000000000002 5 0  0.5999999999999996 5 0  0.5 5 0  0.4000000000000004 5 0  0.2999999999999998 5 0  0.2000000000000002 5 0  0.09999999999999964 5 0  0 5 0  -0.09999999999999964 5 0  -0.2000000000000002 5 0  -0.2999999999999998 5 0  -0.4000000000000004 5 0  -0.5 5 0  -0.5999999999999996 5 0  -0.7000000000000002 5 0  -0.7999999999999998 5 0  -0.9000000000000004 5 0  -1 5 0  -1.1 5 0  -1.2 5 0  -1.3 5 0  -1.4 5 0  -1.5 5 0  -1.6 5 0  -1.7 5 0  -1.8 5 0  -1.9 5 0  -2 5 0  -2.1 5 0  -2.2 5 0  -2.3 5 0  -2.4 5 0  -2.5 5 0  -2.6 5 0  -2.7 5 0  -2.8 5 0  -2.9 5 0  -3 5 0  -3.1 5 0  -3.199999999999999 5 0  -3.300000000000001 5 0  -3.4 5 0  -3.5 5 0  -3.6 5 0  -3.699999999999999 5 0  -3.800000000000001 5 0  -3.9 5 0  -4 5 0  -4.1 5 0  -4.199999999999999 5 0  -4.300000000000001 5 0  -4.4 5 0  -4.5 5 0  -4.6 5 0  -4.699999999999999 5 0  -4.800000000000001 5 0  -4.9 5 0  -5 4.9 0  -5 4.8 0  -5 4.7 0  -5 4.6 0  -5 4.5 0  -5 4.4 0  -5 4.3 0  -5 4.2 0  -5 4.1 0  -5 4 0  -5 3.9 0  -5 3.8 0  -5 3.7 0  -5 3.6 0  -5 3.5 0  -5 3.4 0  -5 3.3 0  -5 3.2 0  -5 3.1 0  -5 3 0  -5 2.9 0  -5 2.8 0  -5 2.7 0  -5 2.6 0  -5 2.5 0  -5 2.4 0  -5 2.3 0  -5 2.2 0  -5 2.1 0  -5 2 0  -5 1.9 0  -5 1.8 0  -5 1.7 0  -5 1.6 0  -5 1.5 0  -5 1.4 0  -5 1.3 0  -5 1.2 0  -5 1.1 0  -5 1 0  -5 0.9000000000000004 0  -5 0.7999999999999998 0  -5 0.7000000000000002 0  -5 0.5999999999999996 0  -5 0.5 0  -5 0.4000000000000004 0  -5 0.2999999999999998 0  -5 0.2000000000000002 0  -5 0.09999999999999964 0  -5 0 0  -5 -0.09999999999999964 0  -5 -0.2000000000000002 0  -5 -0.2999999999999998 0  -5 -0.4000000000000004 0  -5 -0.5 0  -5 -0.5999999999999996 0  -5 -0.7000000000000002 0  -5 -0.7999999999999998 0  -5 -0.9000000000000004 0  -5 -1 0  -5 -1.1 0  -5 -1.2 0  -5 -1.3 0  -5 -1.4 0  -5 -1.5 0  -5 -1.6 0  -5 -1.7 0  -5 -1.8 0  -5 -1.9 0  -5 -2 0  -5 -2.1 0  -5 -2.2 0  -5 -2.3 0  -5 -2.4 0  -5 -2.5 0  -5 -2.6 0  -5 -2.7 0  -5 -2.8 0  -5 -2.9 0  -5 -3 0  -5 -3.1 0  -5 -3.199999999999999 0  -5 -3.300000000000001 0  -5 -3.4 0  -5 -3.5 0  -5 -3.6 0  -5 -3.699999999999999 0  -5 -3.800000000000001 0  -5 -3.9 0  -5 -4 0  -5 -4.1 0  -5 -4.199999999999999 0  -5 -4.300000000000001 0  -5 -4.4 0  -5 -4.5 0  -5 -4.6 0  -5 -4.699999999999999 0  -5 -4.800000000000001 0  -5 -4.9 0  1.010053914800214 0.09978961285372513 0  0.9949548799157021 0.1985750529791727 0  0.9698594981676889 0.2954282732908753 0  0.935305270312443 0.389213731989956 0  0.891436759684136 0.4792826835045907 0  0.8387616651964989 0.5645342412272284 0  0.777680506348834 0.6441060744129886 0  0.7087522927486328 0.7172685981223379 0  0.6329021561396848 0.7833645439126868 0  0.5507718380318996 0.8417145354107987 0  0.4631147684575844 0.8916071779890956 0  0.3708079627290898 0.9326668106898319 0  0.2749927767833759 0.9645184143194991 0  0.176319697387957 0.9866741184234384 0  0.07597076759680958 0.9991134521252566 0  -0.02517840165440269 1.001613835943699 0  -0.12608786628278 0.9941038189492437 0  -0.2257410487883726 0.9768390877173313 0  -0.3231269207103552 0.9498309615320759 0  -0.4172909462397938 0.9133211627723016 0  -0.507289624818945 0.8678131732035975 0  -0.5922657703835169 0.8136306411262074 0  -0.6713636431247857 0.7513881643891884 0  -0.7437869731900743 0.6817150806022465 0  -0.8088392396823025 0.6051368116610389 0  -0.8657968997718585 0.5225625436695627 0  -0.9142505751756386 0.4348700842607718 0  -0.9535307391827905 0.3427894523234287 0  -0.9833091452350017 0.2473432875584194 0  -1.003377661545591 0.1494487885052212 0  -1.013482039756401 0.05002464575542692 0  -1.013485014771061 -0.04990682715963744 0  -1.003385120844588 -0.1493148252098371 0  -0.9835065754683001 -0.2471937542350005 0  -0.9535346257322908 -0.3426908507873839 0  -0.9142751486327712 -0.4347040599452912 0  -0.8658513870194882 -0.5224270933950775 0  -0.8088984020234037 -0.604960005655617 0  -0.7438386257502588 -0.6814604883996498 0  -0.6713514703185446 -0.7511197142112025 0  -0.5921892169730478 -0.8132865767233415 0  -0.5073345470671452 -0.8675652963394976 0  -0.4171719306578273 -0.9130538236005261 0  -0.3229934110293827 -0.9496030344886475 0  -0.2255673592512122 -0.9766354536229782 0  -0.1259366552413916 -0.9939569475516431 0  -0.02507587370597418 -1.001549199338559 0  0.07599528410591763 -0.9990083575504624 0  0.176426913591481 -0.9865226952563571 0  0.2750222288579201 -0.9643446397279689 0  0.3710110401084709 -0.9324942321572859 0  0.4631665562841625 -0.8914364061337789 0  0.5508317407766838 -0.8415452999145204 0  0.6329467912694743 -0.78337732856955 0  0.7087927252787868 -0.7172967856344759 0  0.7776335372338601 -0.6440422897055077 0  0.8386873734639714 -0.5644012306797175 0  0.8914914982762479 -0.4791926615727442 0  0.9354762214741823 -0.3892095271154844 0  0.9699927403019445 -0.2953865844181048 0  0.9949642957915507 -0.1985145587813652 0  1.010066524204656 -0.09976814504701946 0  -2.449877118823174 4.920551732212284 0  -2.449867765334997 -4.913150323394575 0  4.913137294127764 2.449811566700095 0  4.921012308422003 -2.451099381217829 0  2.447831676371997 -4.898846188062145 0  2.442211101596169 4.902507152166665 0  -4.913141857318061 -2.449816989122916 0  -4.913146030262469 2.449820449858164 0  -1.749870452595782 4.914500896688345 0  -1.745597822116959 -4.917801662654991 0  4.924021665836575 1.745800351795017 0  4.913035403330436 -1.749814910536595 0  -4.913286617972803 -1.749519567789681 0  -4.914081675997567 1.749243645068302 0  1.747226854376267 4.908617359010782 0  1.748812674269042 -4.8972206456911 0  -1.149901937182587 4.913009383653018 0  -1.130650722293695 -4.920564268734307 0  -4.913961532395184 -1.149498914306967 0  -4.913795740754462 1.14929691187902 0  1.144826829146858 -4.916927964366911 0  1.149898946542381 4.913008452366339 0  4.914141184159283 1.147786514302724 0  4.924388320260202 -1.153385986272332 0  -0.5472200911094928 -4.914551715965679 0  -0.546949317310661 4.922812495880689 0  -4.913462003146943 -0.5495806958092314 0  -4.913489068059785 0.5481285934258985 0  4.912873813361328 -0.5499158916335023 0  4.923827452256287 0.5465538306924416 0  0.5430544947072938 -4.902102454669545 0  0.5516869161811748 4.919799126054567 0  -4.913697038174848 -3.04984878459581 0  4.920148080486831 3.047765158707071 0  4.91322535099086 -3.049849874460729 0  -4.914536470048048 3.046927866614906 0  3.056464613681724 -4.919160472599303 0  -3.049882485627418 -4.913218350931872 0  3.053423576273419 4.915264521458525 0  -3.049320936521641 4.914093769166567 0  -4.912857370376178 -0.0499948265795633 0  0.04515356012108 -4.916534109966382 0  0.04960553253724152 4.923209791547135 0  4.919521135873922 -0.05137144643561856 0  3.546543583493023 -4.920273877941732 0  -3
[...]
<PointData  Vectors="f_308"> 
<DataArray  type="Float64"  Name="f_308"  NumberOfComponents="3" format="ascii">-1.5966521496399919e-40 -1.6422838796706476e-40 0.0000000000000000e+00  2.1547775640925199e-40 -2.1637104144659226e-40 0.0000000000000000e+00  -2.4500967517903701e-40 -2.5297574868935772e-40 0.0000000000000000e+00  -3.1361950607526245e-40 3.3565583033890659e-40 0.0000000000000000e+00  1.1595876850141261e+01 -7.3777055597092078e-01 0.0000000000000000e+00  3.5232262246580601e-40 3.6341993420294108e-40 0.0000000000000000e+00  7.9959442237364430e-40 9.1668611359158651e-40 0.0000000000000000e+00  -1.7807273591065596e-39 -2.1394731397222344e-39 0.0000000000000000e+00  1.8242465494305374e-38 2.0630809271757784e-38 0.0000000000000000e+00  -5.8959418986133428e-38 -6.4239344518039764e-38 0.0000000000000000e+00  2.3135367593645671e-37 2.4426571435710238e-37 0.0000000000000000e+00  -8.5749565787136864e-37 -9.2033826642101949e-37 0.0000000000000000e+00  4.9812510206055117e-36 6.0369927733813261e-36 0.0000000000000000e+00  -2.9742959547237920e-35 -3.8940925898186585e-35 0.0000000000000000e+00  1.1954574138338591e-34 1.5902583109497161e-34 0.0000000000000000e+00  -2.4824134259397709e-34 -3.4763544324012566e-34 0.0000000000000000e+00  4.6893613506156351e-34 6.9455164192762231e-34 0.0000000000000000e+00  1.7348394996132591e-33 2.6199798696110318e-33 0.0000000000000000e+00  -7.9965151346970183e-33 -1.2011050763555898e-32 0.0000000000000000e+00  2.3578722600613785e-32 3.5705142370421137e-32 0.0000000000000000e+00  -1.3135284210286192e-31 -2.0619881154166768e-31 0.0000000000000000e+00  3.4457887023504897e-31 5.4528797877536807e-31 0.0000000000000000e+00  1.8555873383411651e-31 3.6511492430161288e-31 0.0000000000000000e+00  -1.5741415339842735e-30 -2.9307172864820143e-30 0.0000000000000000e+00  -8.2345530502994507e-31 -1.2769600379656788e-30 0.0000000000000000e+00  -2.1218847687320009e-30 -3.3378039267800185e-30 0.0000000000000000e+00  5.3025480311906182e-30 9.4379634598663989e-30 0.0000000000000000e+00  -1.4236437202365546e-29 -2.1144676598560580e-29 0.0000000000000000e+00  4.5498338837472064e-29 7.7840204229845135e-29 0.0000000000000000e+00  2.7961917049547036e-29 5.1292247636802027e-29 0.0000000000000000e+00  -2.2627691429161964e-28 -4.3691921704224498e-28 0.0000000000000000e+00  -7.1075056161747447e-29 -1.4389563480079026e-28 0.0000000000000000e+00  -1.1041437795886515e-28 -2.0785864695665904e-28 0.0000000000000000e+00  2.0934114096103183e-28 4.2466463608904936e-28 0.0000000000000000e+00  6.4436729533881040e-28 1.3951190683108435e-27 0.0000000000000000e+00  -9.1070878036164300e-29 -1.2659224960149505e-28 0.0000000000000000e+00  1.1265740676067449e-28 3.5564618176395416e-28 0.0000000000000000e+00  -1.0960379219862710e-28 -2.4820635121869401e-28 0.0000000000000000e+00  -4.2870252479544072e-28 -1.2759012118125687e-27 0.0000000000000000e+00  -3.8866367368569883e-28 -1.2934111008224656e-27 0.0000000000000000e+00  -4.5377056118051147e-29 -1.9884524591611038e-28 0.0000000000000000e+00  4.2629827277696195e-28 1.5541875103480726e-27 0.0000000000000000e+00  2.2136590008973372e-28 9.5680757715951012e-28 0.0000000000000000e+00  -6.9705850156555157e-29 -1.9670117589342026e-28 0.0000000000000000e+00  6.3563788657292354e-29 3.8782245812769743e-28 0.0000000000000000e+00  3.9519228372900061e-28 1.0991993754479007e-27 0.0000000000000000e+00  4.7691641459536410e-28 1.8226233339373309e-27 0.0000000000000000e+00  -2.6223467805369520e-28 -1.0121245391759187e-27 0.0000000000000000e+00  9.3782848603458182e-28 5.8858094452257543e-27 0.0000000000000000e+00  3.5774395610734308e-29 -5.5762956640677440e-29 0.0000000000000000e+00  -4.0217799015849484e-28 -5.1596652584400369e-27 0.0000000000000000e+00  -1.8491962909993266e-29 -3.0724716112592041e-27 0.0000000000000000e+00  -1.3994745777223940e-28 -4.3713980375741998e-27 0.0000000000000000e+00  -4.3784062370693312e-28 -1.0715667330740591e-26 0.0000000000000000e+00  -2.6241564004407474e-28 -1.2279040884841123e-26 0.0000000000000000e+00  2.1308486183217888e-29 -2.1390430789983415e-27 0.0000000000000000e+00  1.8331404189033120e-28 -6.8036141031419503e-27 0.0000000000000000e+00  2.2759203265503453e-28 -2.5567443377972810e-27 0.0000000000000000e+00  4.5430832272308946e-28 -4.4602948406290329e-27 0.0000000000000000e+00  -2.5651653270340623e-28 1.8662782359874565e-27 0.0000000000000000e+00  7.5693738320966666e-28 -6.0632971136890577e-27 0.0000000000000000e+00  8.2003938583231698e-28 -5.4910327282551112e-27 0.0000000000000000e+00  -1.9492185498645517e-28 1.0211105496567139e-27 0.0000000000000000e+00  -1.7193315563518813e-27 7.9109648903415922e-27 0.0000000000000000e+00  -7.4722115360640000e-28 3.1297454001034645e-27 0.0000000000000000e+00  -3.7953617056935029e-28 1.9025970011773849e-27 0.0000000000000000e+00  -1.2042387437955503e-27 4.5007983015639593e-27 0.0000000000000000e+00  -7.1350198816385245e-28 2.3739589709745025e-27 0.0000000000000000e+00  8.4711749896119807e-28 -2.6007933580729362e-27 0.0000000000000000e+00  4.0191137195053420e-28 -1.2144876790804876e-27 0.0000000000000000e+00  8.6465584063840007e-29 -3.0305578158508116e-28 0.0000000000000000e+00  3.0799968295398235e-28 -9.4376068881549932e-28 0.0000000000000000e+00  2.9536652070525404e-28 -7.4112593587994608e-28 0.0000000000000000e+00  -2.4751336145708819e-28 5.9928624594911489e-28 0.0000000000000000e+00  -2.2173081422111639e-28 4.8494640797731634e-28 0.0000000000000000e+00  -1.5557563543387237e-28 3.2849291006385288e-28 0.0000000000000000e+00  1.5083178521148421e-29 -3.3135092673434224e-29 0.0000000000000000e+00  1.1433248857186048e-28 -2.3114564135911638e-28 0.0000000000000000e+00  1.6067406965373833e-28 -2.9909611138516756e-28 0.0000000000000000e+00  -4.6644952252290848e-30 1.5489810024812399e-29 0.0000000000000000e+00  -1.0845279407690323e-28 1.9077018694127857e-28 0.0000000000000000e+00  1.7700094205561043e-29 -3.1699477775238498e-29 0.0000000000000000e+00  5.9326886683436800e-30 -9.3109059870423051e-30 0.0000000000000000e+00  -1.4573126031579268e-29 2.5452251356864056e-29 0.0000000000000000e+00  -9.6288881829554861e-31 1.7189573437057844e-30 0.0000000000000000e+00  1.5825599050790115e-30 -2.7048398085353118e-30 0.0000000000000000e+00  -8.2638219071766719e-31 1.3890211736293269e-30 0.0000000000000000e+00  1.0300495084764845e-31 -1.6932577220619236e-31 0.0000000000000000e+00  -1.2709583836904570e-32 1.9616346426585326e-32 0.0000000000000000e+00  -2.7889691496532096e-34 7.0902482508278085e-34 0.0000000000000000e+00  6.7457996890684668e-33 -1.0401055327179473e-32 0.0000000000000000e+00  4.1383753910036414e-34 -5.2848804380325491e-34 0.0000000000000000e+00  -4.6410847536358611e-34 6.6592030091887148e-34 0.0000000000000000e+00  5.2215063399627611e-35 -8.0241846406923473e-35 0.0000000000000000e+00  -2.1715685221528418e-35 2.9290252792639804e-35 0.0000000000000000e+00  4.8114892518556765e-36 -6.2708639561461726e-36 0.0000000000000000e+00  -1.4577656739287786e-36 1.8789501148649182e-36 0.0000000000000000e+00  4.8688684253610234e-37 -5.9285575900173679e-37 0.0000000000000000e+00  -2.4222919369800209e-37 2.9200696629251672e-37 0.0000000000000000e+00  8.2079477535265654e-38 -9.7853644451699703e-38 0.0000000000000000e+00  -1.7332054737569692e-38 1.9914329846254469e-38 0.0000000000000000e+00  7.0639709860547276e-39 -7.9558814195076815e-39 0.0000000000000000e+00  -3.9539472772577399e-40 4.7537198599345414e-40 0.0000000000000000e+00  -3.6634927101638498e-40 3.7401575754468406e-40 0.0000000000000000e+00  -1.7213363540997562e-41 9.7741222537055189e-42 0.0000000000000000e+00  3.7872156977911243e-40 -3.9102469015560762e-40 0.0000000000000000e+00  -8.8907649529023087e-40 8.7207418045328369e-40 0.0000000000000000e+00  3.6125326914406525e-39 -3.3780673655934164e-39 0.0000000000000000e+00  -2.7441947650598793e-39 2.3897531525424099e-39 0.0000000000000000e+00  -1.4832702702046770e-38 1.3547598957944763e-38 0.0000000000000000e+00  6.2282192457954356e-38 -5.4516107414453342e-38 0.0000000000000000e+00  -9.0994818953606586e-38 7.6587024717103621e-38 0.0000000000000000e+00  -1.2950159278321331e-37 1.1028805406438846e-37 0.0000000000000000e+00  9.3820496923777232e-37 -7.6171263731236330e-37 0.0000000000000000e+00  -1.7266037861399262e-36 1.3600689665294726e-36 0.0000000000000000e+00  -1.1583100416331627e-36 8.9038424708456760e-37 0.0000000000000000e+00  1.2908655516876650e-35 -9.6327436589028559e-36 0.0000000000000000e+00  -2.6063137426187779e-35 1.8878052851894372e-35 0.0000000000000000e+00  -1.5609651578216722e-35 1.0698683200452686e-35 0.0000000000000000e+00  1.8770547703120469e-34 -1.2728759785575875e-34 0.0000000000000000e+00  -3.1317849812710393e-34 2.0913772905645980e-34 0.0000000000000000e+00  -3.8518202787906227e-34 2.3839487726922099e-34 0.0000000000000000e+00  2.5602199747335054e-33 -1.5680769162941063e-33 0.0000000000000000e+00  -2.6636526026778731e-33 1.6295375846200799e-33 0.0000000000000000e+00  -9.0298225873813341e-33 5.0260287053641025e-33 0.0000000000000000e+00  2.9552500176435149e-32 -1.6415431583097311e-32 0.0000000000000000e+00  9.6985628864542180e-34 6.4490565692421670e-34 0.0000000000000000e+00  -1.5744773623098369e-31 7.8395457280412372e-32 0.0000000000000000e+00  2.1629915842032268e-31 -1.0852992591625387e-31 0.0000000000000000e+00  5.1268289079196087e-31 -2.2284984575484937e-31 0.0000000000000000e+00  -1.5718804268241947e-30 6.9942217358423683e-31 0.0000000000000000e+00  -8.2120257685332041e-31 2.6326236690146817e-31 0.0000000000000000e+00  8.1955892327029686e-30 -3.2247080803117883e-30 0.0000000000000000e+00  -2.6528466407205430e-30 1.4019978459166053e-30 0.0000000000000000e+00  -3.5440017068803002e-29 1.2117880478748185e-29 0.0000000000000000e+00  2.9686179238463881e-29 -1.1643128739130790e-29 0.0000000000000000e+00  1.4158736693434373e-28 -4.1659640834334219e-29 0.0000000000000000e+00  -1.5921156598278645e-28 5.4016710434399762e-29 0.0000000000000000e+00  -5.7895971618927595e-28 1.4524516604635815e-28 0.0000000000000000e+00  6.0001790404408111e-28 -1.9267957105311187e-28 0.0000000000000000e+00  2.3776324391370458e-27 -5.1051241594158939e-28 0.0000000000000000e+00  -1.7317668811139901e-27 5.3672449183537492e-28 0.0000000000000000e+00  -9.0270098004861584e-27 1.6624249170998049e-27 0.0000000000000000e+00  1.9368636091750723e-27 -9.0397710156226936e-28 0.0000000000000000e+00  2.7546843569339517e-26 -4.5489136688690818e-27 0.0000000000000000e+00  1.3863653001174384e-26 -7.4271140691990396e-28 0.0000000000000000e+00  -7.8172676121717643e-26 1.1580212007796095e-26 0.0000000000000000e+00  -1.1839806864342487e-25 1.3557952744744821e-26 0.0000000000000000e+00  1.4130235896847306e-25 -1.0354768992044163e-26 0.0000000000000000e+00  8.0930301958851038e-25 -3.7440651637066290e-26 0.0000000000000000e+00  1.4792110478736724e-24 -2.9838567271226374e-26 0.0000000000000000e+00  1.8064270249861868e-24 -4.3274396806304867e-28 0.0000000000000000e+00  1.7681107420105258e-24 1.1083810292491525e-26 0.0000000000000000e+00  1.7958827117063580e-24 -5.3231272596525824e-27 0.0000000000000000e+00  1.9380557059031618e-24 -1.0760336348591443e-26 0.0000000000000000e+00  1.8063949838291749e-24 1.3246241619905529e-26 0.0000000000000000e+00  1.1804679962943367e-24 3.4418604653513892e-26 0.0000000000000000e+00  3.3858392920989193e-25 2.2390236474212721e-26 0.0000000000000000e+00  -1.7382330457328829e-25 -6.8529621212714667e-27 0.0000000000000000e+00  -2.1799405937619698e-25 -1.8950709748368012e-26 0.0000000000000000e+00  -3.9094105971242801e-26 -6.5019340544568091e-27 0.0000000000000000e+00  5.9356660503215687e-26 6.1328292137454814e-27 0.0000000000000000e+00  3.6344888223215945e-26 5.3917096700300360e-27 0.0000000000000000e+00  -5.1383514694804986e-27 -5.7101220898257427e-28 0.0000000000000000e+00  -1.0764509437769101e-26 -1.9930612214093157e-27 0.0000000000000000e+00  -8.3403464538874599e-28 -2.3213296085187493e-28 0.0000000000000000e+00  2.6378631907678105e-27 5.9298055073835963e-28 0.0000000000000000e+00  4.1111415364133875e-28 1.1671038242986876e-28 0.0000000000000000e+00  -6.1899350792303563e-28 -1.6626345051861449e-28 0.0000000000000000e+00  -9.3393542150306845e-29 -3.1316450499159106e-29 0.0000000000000000e+00  1.4387082977845713e-28 4.5909612570411123e-29 0.0000000000000000e+00  8.2470514429347885e-30 4.0050442955329056e-30 0.0000000000000000e+00  -3.2474471328012583e-29 -1.1988910757872919e-29 0.0000000000000000e+00  2.4277241781262163e-30 6.5999792154961964e-31 0.0000000000000000e+00  6.2615613860955516e-30 2.6797244310473424e-30 0.0000000000000000e+00  -1.7715034186022188e-30 -7.0331738663771274e-31 0.0000000000000000e+00  -9.3775650684639610e-31 -4.5873548584813373e-31 0.0000000000000000e+00  5.8842371372059939e-31 2.7402256155257191e-31 0.0000000000000000e+00  3.6661899371781342e-32 2.7010611249453366e-32 0.0000000000000000e+00  -1.3142666770796906e-31 -6.8153275058775518e-32 0.0000000000000000e+00  2.9149461649142157e-32 1.3823873583491021e-32 0.0000000000000000e+00  1.9033982067887515e-32 1.1108537627625267e-32 0.0000000000000000e+00  -1.2104497412935837e-32 -6.7814858559813906e-33 0.0000000000000000e+00  1.6953568187599195e-34 -4.8070631950414249e-35 0.0000000000000000e+00  2.1877769090097884e-33 1.3739967324600470e-33 0.0000000000000000e+00  -8.3095773631250227e-34 -5.0811867553011518e-34 0.0000000000000000e+00  -1.1536531136487758e-34 -8.6463206498717587e-35 0.0000000000000000e+00  2.0017506134272828e-34 1.3554818778557541e-34 0.0000000000000000e+00  -5.6573289551841186e-35 -3.8158550059768540e-35 0.0000000000000000e+00  -1.3048999136017131e-35 -9.8143084068226231e-36 0.0000000000000000e+00  1.4871673010101803e-35 1.0945250083337979e-35 0.0000000000000000e+00  -3.8842643734607384e-36 -2.8757813375394947e-36 0.0000000000000000e+00  -9.1588099582490512e-37 -7.2913665769904875e-37 0.0000000000000000e+00  1.0457089047801312e-36 8.3237582195913212e-37 0.0000000000000000e+00  -3.0262939360868402e-37 -2.4633475402425434e-37 0.0000000000000000e+00  -3.7553122521511282e-38 -3.1175964914551171e-38 0.0000000000000000e+00  6.5876790536748930e-38 5.6428888240325590e-38 0.0000000000000000e+00  -2.5049064685162491e-38 -2.2070024276115080e-38 0.0000000000000000e+00  8.6884274270554973e-40 8.7098695491267586e-40 0.0000000000000000e+00  3.5349254909379171e-39 3.2062644394037691e-39 0.0000000000000000e+00  -1.8411960396341675e-39 -1.7257788451774012e-39 0.0000000000000000e+00  3.9580337383135175e-40 3.8521083440135639e-40 0.0000000000000000e+00  1.9224995811985701e-40 1.8262602019629691e-40 0.0000000000000000e+00  3.6170589359508402e-40 3.9796870328587756e-40 0.0000000000000000e+00  -1.0665614298083437e-39 -1.1349721124629427e-39 0.0000000000000000e+00  2.0809990470816298e-39 2.2863848446190426e-39 0.0000000000000000e+00  -1.4020187243540799e-38 -1.5292715837369575e-38 0.0000000000000000e+00  9.9406427401418689e-38 1.1166648427682507e-37 0.0000000000000000e+00  -2.2294461466879652e-37 -2.6032893384191930e-37 0.0000000000000000e+00  2.4856517642568617e-37 3.0326410149323877e-37 0.0000000000000000e+00  -4.0994882206494974e-36 -5.0248985832761223e-36 0.0000000000000000e+00  1.3422905467692784e-35 1.6261327801616572e-35 0.0000000000000000e+00  -5.9746781363986074e-35 -7.3005591595816743e-35 0.0000000000000000e+00  1.3481191123669605e-34 1.7313837062669769e-34 0.0000000000000000e+00  -2.9638158657964334e-34 -3.9907231754839068e-34 0.0000000000000000e+00  1.4559345855491797e-33 1.9939510280680529e-33 0.0000000000000000e+00  -1.2092701380218439e-33 -1.6967209635796803e-33 0.0000000000000000e+00  6.0688364089870406e-33 7.9849421223309730e-33 0.0000000000000000e+00  4.2943045451129361e-32 6.8964157127193611e-32 0.0000000000000000e+00  -2.0507735405492045e-31 -3.2025093743241643e-31 0.0000000000000000e+00  -5.5060922171120822e-31 -9.4308250206012110e-31 0.0000000000000000e+00  1.0364042301785130e-30 1.8263972494239271e-30 0.0000000000000000e+00  -6.8525991562169318e-32 -1.2110328544951785e-31 0.0000000000000000e+00  -3.2127637056067712e-30 -5.5091144239139335e-30 0.0000000000000000e+00  9.4464394928945288e-30 1.5092637967905674e-29 0.0000000000000000e+00  1.4305703494300486e-29 2.6252897153143649e-29 0.0000000000000000e+00  -9.4287820584798522e-29 -1.7069246656474931e-28 0.0000000000000000e+00  3.0488993469423903e-29 5.8224032933219617e-29 0.0000000000000000e+00  9.1498250811126624e-29 2.0001206898993309e-28 0.0000000000000000e+00  4.2663936855560034e-29 7.3019105367904783e-29 0.0000000000000000e+00  3.5601517222173192e-28 6.9061425832924519e-28 0.0000000000000000e+00  1.4934682047146937e-28 3.3527030897236750e-28 0.0000000000000000e+00  -4.4825718177476153e-28 -9.0547725158191195e-28 0.0000000000000000e+00  -3.7054660951889270e-28 -9.7284456421943188e-28 0.0000000000000000e+00  4.1270663981931131e-28 9.5781578210833207e-28 0.0000000000000000e+00  7.6106519560242102e-28 1.8766290522400941e-27 0.0000000000000000e+00  3.8359578400326545e-28 1.1286573870396621e-27 0.0000000000000000e+00  3.6991385861625183e-29 3.7209821245602768e-28 0.0000000000000000e+00  -8.8684409096353929e-28 -2.5856213283759513e-27 0.0000000000000000e+00  -3.4535430717092233e-28 -9.4566035133569579e-28 0.0000000000000000e+00  -1.8152142182275110e-28 -4.9161038781434671e-28 0.0000000000000000e+00  -4.5121085629028965e-28 -1.7033021824101495e-27 0.0000000000000000e+00  -4.1729965749573052e-28 -1.6865565551209191e-27 0.0000000000000000e+00  -3.3446778187159370e-28 -1.9504815089832636e-27 0.0000000000000000e+00  1.1445795109393833e-28 -5.0881966697231290e-29 0.0000000000000000e+00  5.1736888123910549e-28 2.6086018038528780e-27 0.0000000000000000e+00  9.1703363040521771e-29 3.8981106294339462e-28 0.0000000000000000e+00  -3.3528825946502715e-28 -2.7826394396525495e-27 0.0000000000000000e+00  2.3353855933522819e-28 1.7867638600403354e-27 0.0000000000000000e+00  1.4683685593447284e-28 1.6398136155628356e-27 0.0000000000000000e+00  -8.9955696050586779e-29 -1.4151626981920563e-27 0.0000000000000000e+00  -1.0305058331130343e-29 4.0020200319959252e-30 0.0000000000000000e+00  -4.8042181482648294e-29 -1.4550744692567698e-27 0.0000000000000000e+00  -3.0087408398753043e-29 2.9535961649873610e-27 0.0000000000000000e+00  -1.3251157740065742e-28 2.7753092462108482e-27 0.0000000000000000e+00  1.2221941882736071e-29 -1.7244412101336476e-27 0.0000000000000000e+00  -7.0668570971054883e-29 -4.8972343971037998e-29 0.0000000000000000e+00  2.2295251459692716e-28 -2.4686761619630533e-27 0.0000000000000000e+00  -3.9656865643221572e-28 2.0843933530877696e-27 0.0000000000000000e+00  -2.6342692541056729e-28 1.0388545450167120e-27 0.0000000000000000e+00  -3.8545027096076886e-29 -6.0391717690907602e-28 0.0000000000000000e+00  -1.0606293082281290e-28 -6.8902655862151143e-29 0.0000000000000000e+00  6.1504965260837928e-28 -2.9056249387094617e-27 0.0000000000000000e+00  7.1683349233564969e-28 -3.3229257535114767e-27 0.0000000000000000e+00  1.2746750464873132e-27 -4.6964083949009988e-27 0.0000000000000000e+00  4.2818964196307027e-28 -1.3135819511477795e-27 0.0000000000000000e+00  -2.9261846654441461e-28 1.1376918982805076e-27 0.0000000000000000e+00  -8.3579678638541749e-28 2.4461687245094296e-27 0.0000000000000000e+00  -1.0031281187509279e-27 2.6884474207263502e-27 0.0000000000000000e+00  -3.0603907470856704e-28 7.1286411442434704e-28 0.0000000000000000e+00  1.4900585373100547e-28 -4.0455089167598847e-28 0.0000000000000000e+00  2.2835911816389268e-28 -5.3793772737574605e-28 0.0000000000000000e+00  9.3099839494208702e-28 -1.9420516544789388e-27 0.0000000000000000e+00  3.7955883896972622e-28 -7.5133727523414812e-28 0.0000000000000000e+00  -3.1229282312224857e-28 6.0053721458181942e-28 0.0000000000000000e+00  -9.3616015679067365e-30 3.3135379130207019e-29 0.0000000000000000e+00  3.2719852662028192e-29 -6.7286268574962671e-29 0.0000000000000000e+00  8.3604500804739577e-29 -1.5383136582466322e-28 0.0000000000000000e+00  -1.6587159952203707e-29 3.0986216706131094e-29 0.0000000000000000e+00  -2.4290897015086952e-29 4.1432191451033058e-29 0.0000000000000000e+00  2.54112