<?xml version="1.0"?>
<VTKFile type="UnstructuredGrid"  version="0.1"  >
<UnstructuredGrid>
<Piece  NumberOfPoints="11902" NumberOfCells="23402">
<Points>
<DataArray  type="Float64"  NumberOfComponents="3"  format="ascii">-5 -5 0  5 -5 0  5 5 0  -5 5 0  1.151032649185973 0.001012289280346475 0  -4.9 -5 0  -4.8 -5 0  -4.7 -5 0  -4.6 -5 0  -4.5 -5 0  -4.4 -5 0  -4.3 -5 0  -4.2 -5 0  -4.1 -5 0  -4 -5 0  -3.9 -5 0  -3.8 -5 0  -3.7 -5 0  -3.6 -5 0  -3.5 -5 0  -3.4 -5 0  -3.3 -5 0  -3.2 -5 0  -3.1 -5 0  -3 -5 0  -2.9 -5 0  -2.8 -5 0  -2.7 -5 0  -2.6 -5 0  -2.5 -5 0  -2.4 -5 0  -2.3 -5 0  -2.2 -5 0  -2.1 -5 0  -2 -5 0  -1.9 -5 0  -1.8 -5 0  -1.7 -5 0  -1.6 -5 0  -1.5 -5 0  -1.4 -5 0  -1.3 -5 0  -1.2 -5 0  -1.1 -5 0  -1 -5 0  -0.9000000000000004 -5 0  -0.7999999999999998 -5 0  -0.7000000000000002 -5 0  -0.5999999999999996 -5 0  -0.5 -5 0  -0.4000000000000004 -5 0  -0.2999999999999998 -5 0  -0.2000000000000002 -5 0  -0.09999999999999964 -5 0  0 -5 0  0.09999999999999964 -5 0  0.2000000000000002 -5 0  0.2999999999999998 -5 0  0.4000000000000004 -5 0  0.5 -5 0  0.5999999999999996 -5 0  0.7000000000000002 -5 0  0.7999999999999998 -5 0  0.9000000000000004 -5 0  1 -5 0  1.1 -5 0  1.2 -5 0  1.3 -5 0  1.4 -5 0  1.5 -5 0  1.6 -5 0  1.7 -5 0  1.8 -5 0  1.9 -5 0  2 -5 0  2.1 -5 0  2.2 -5 0  2.3 -5 0  2.4 -5 0  2.5 -5 0  2.6 -5 0  2.7 -5 0  2.8 -5 0  2.9 -5 0  3 -5 0  3.1 -5 0  3.199999999999999 -5 0  3.300000000000001 -5 0  3.4 -5 0  3.5 -5 0  3.6 -5 0  3.699999999999999 -5 0  3.800000000000001 -5 0  3.9 -5 0  4 -5 0  4.1 -5 0  4.199999999999999 -5 0  4.300000000000001 -5 0  4.4 -5 0  4.5 -5 0  4.6 -5 0  4.699999999999999 -5 0  4.800000000000001 -5 0  4.9 -5 0  5 -4.9 0  5 -4.8 0  5 -4.7 0  5 -4.6 0  5 -4.5 0  5 -4.4 0  5 -4.3 0  5 -4.2 0  5 -4.1 0  5 -4 0  5 -3.9 0  5 -3.8 0  5 -3.7 0  5 -3.6 0  5 -3.5 0  5 -3.4 0  5 -3.3 0  5 -3.2 0  5 -3.1 0  5 -3 0  5 -2.9 0  5 -2.8 0  5 -2.7 0  5 -2.6 0  5 -2.5 0  5 -2.4 0  5 -2.3 0  5 -2.2 0  5 -2.1 0  5 -2 0  5 -1.9 0  5 -1.8 0  5 -1.7 0  5 -1.6 0  5 -1.5 0  5 -1.4 0  5 -1.3 0  5 -1.2 0  5 -1.1 0  5 -1 0  5 -0.9000000000000004 0  5 -0.7999999999999998 0  5 -0.7000000000000002 0  5 -0.5999999999999996 0  5 -0.5 0  5 -0.4000000000000004 0  5 -0.2999999999999998 0  5 -0.2000000000000002 0  5 -0.09999999999999964 0  5 0 0  5 0.09999999999999964 0  5 0.2000000000000002 0  5 0.2999999999999998 0  5 0.4000000000000004 0  5 0.5 0  5 0.5999999999999996 0  5 0.7000000000000002 0  5 0.7999999999999998 0  5 0.9000000000000004 0  5 1 0  5 1.1 0  5 1.2 0  5 1.3 0  5 1.4 0  5 1.5 0  5 1.6 0  5 1.7 0  5 1.8 0  5 1.9 0  5 2 0  5 2.1 0  5 2.2 0  5 2.3 0  5 2.4 0  5 2.5 0  5 2.6 0  5 2.7 0  5 2.8 0  5 2.9 0  5 3 0  5 3.1 0  5 3.199999999999999 0  5 3.300000000000001 0  5 3.4 0  5 3.5 0  5 3.6 0  5 3.699999999999999 0  5 3.800000000000001 0  5 3.9 0  5 4 0  5 4.1 0  5 4.199999999999999 0  5 4.300000000000001 0  5 4.4 0  5 4.5 0  5 4.6 0  5 4.699999999999999 0  5 4.800000000000001 0  5 4.9 0  4.9 5 0  4.8 5 0  4.7 5 0  4.6 5 0  4.5 5 0  4.4 5 0  4.3 5 0  4.2 5 0  4.1 5 0  4 5 0  3.9 5 0  3.8 5 0  3.7 5 0  3.6 5 0  3.5 5 0  3.4 5 0  3.3 5 0  3.2 5 0  3.1 5 0  3 5 0  2.9 5 0  2.8 5 0  2.7 5 0  2.6 5 0  2.5 5 0  2.4 5 0  2.3 5 0  2.2 5 0  2.1 5 0  2 5 0  1.9 5 0  1.8 5 0  1.7 5 0  1.6 5 0  1.5 5 0  1.4 5 0  1.3 5 0  1.2 5 0  1.1 5 0  1 5 0  0.9000000000000004 5 0  0.7999999999999998 5 0  0.7000000000000002 5 0  0.5999999999999996 5 0  0.5 5 0  0.4000000000000004 5 0  0.2999999999999998 5 0  0.2000000000000002 5 0  0.09999999999999964 5 0  0 5 0  -0.09999999999999964 5 0  -0.2000000000000002 5 0  -0.2999999999999998 5 0  -0.4000000000000004 5 0  -0.5 5 0  -0.5999999999999996 5 0  -0.7000000000000002 5 0  -0.7999999999999998 5 0  -0.9000000000000004 5 0  -1 5 0  -1.1 5 0  -1.2 5 0  -1.3 5 0  -1.4 5 0  -1.5 5 0  -1.6 5 0  -1.7 5 0  -1.8 5 0  -1.9 5 0  -2 5 0  -2.1 5 0  -2.2 5 0  -2.3 5 0  -2.4 5 0  -2.5 5 0  -2.6 5 0  -2.7 5 0  -2.8 5 0  -2.9 5 0  -3 5 0  -3.1 5 0  -3.199999999999999 5 0  -3.300000000000001 5 0  -3.4 5 0  -3.5 5 0  -3.6 5 0  -3.699999999999999 5 0  -3.800000000000001 5 0  -3.9 5 0  -4 5 0  -4.1 5 0  -4.199999999999999 5 0  -4.300000000000001 5 0  -4.4 5 0  -4.5 5 0  -4.6 5 0  -4.699999999999999 5 0  -4.800000000000001 5 0  -4.9 5 0  -5 4.9 0  -5 4.8 0  -5 4.7 0  -5 4.6 0  -5 4.5 0  -5 4.4 0  -5 4.3 0  -5 4.2 0  -5 4.1 0  -5 4 0  -5 3.9 0  -5 3.8 0  -5 3.7 0  -5 3.6 0  -5 3.5 0  -5 3.4 0  -5 3.3 0  -5 3.2 0  -5 3.1 0  -5 3 0  -5 2.9 0  -5 2.8 0  -5 2.7 0  -5 2.6 0  -5 2.5 0  -5 2.4 0  -5 2.3 0  -5 2.2 0  -5 2.1 0  -5 2 0  -5 1.9 0  -5 1.8 0  -5 1.7 0  -5 1.6 0  -5 1.5 0  -5 1.4 0  -5 1.3 0  -5 1.2 0  -5 1.1 0  -5 1 0  -5 0.9000000000000004 0  -5 0.7999999999999998 0  -5 0.7000000000000002 0  -5 0.5999999999999996 0  -5 0.5 0  -5 0.4000000000000004 0  -5 0.2999999999999998 0  -5 0.2000000000000002 0  -5 0.09999999999999964 0  -5 0 0  -5 -0.09999999999999964 0  -5 -0.2000000000000002 0  -5 -0.2999999999999998 0  -5 -0.4000000000000004 0  -5 -0.5 0  -5 -0.5999999999999996 0  -5 -0.7000000000000002 0  -5 -0.7999999999999998 0  -5 -0.9000000000000004 0  -5 -1 0  -5 -1.1 0  -5 -1.2 0  -5 -1.3 0  -5 -1.4 0  -5 -1.5 0  -5 -1.6 0  -5 -1.7 0  -5 -1.8 0  -5 -1.9 0  -5 -2 0  -5 -2.1 0  -5 -2.2 0  -5 -2.3 0  -5 -2.4 0  -5 -2.5 0  -5 -2.6 0  -5 -2.7 0  -5 -2.8 0  -5 -2.9 0  -5 -3 0  -5 -3.1 0  -5 -3.199999999999999 0  -5 -3.300000000000001 0  -5 -3.4 0  -5 -3.5 0  -5 -3.6 0  -5 -3.699999999999999 0  -5 -3.800000000000001 0  -5 -3.9 0  -5 -4 0  -5 -4.1 0  -5 -4.199999999999999 0  -5 -4.300000000000001 0  -5 -4.4 0  -5 -4.5 0  -5 -4.6 0  -5 -4.699999999999999 0  -5 -4.800000000000001 0  -5 -4.9 0  1.145452713110257 0.1001125918181465 0  1.127891209983885 0.1991095471224111 0  1.098280713657744 0.2967867471306823 0  1.059511144214672 0.3895545414808677 0  1.009515786358302 0.4804865837180718 0  0.9501937982645486 0.566007061630571 0  0.8805748872457094 0.6457961542238951 0  0.8016581737522596 0.7187138586580131 0  0.715759777763367 0.7848290893041328 0  0.6225609084118521 0.8436222435694242 0  0.5225415885101575 0.8938229058605259 0  0.4176548770709048 0.9352812248477945 0  0.310115775326851 0.9678984374973338 0  0.198246912630481 0.9901562969758664 0  0.08607882380509023 1.003428275445873 0  -0.02733789375785303 1.006062806204328 0  -0.14060097072711 0.9976113252311932 0  -0.253291496362004 0.9803968772422368 0  -0.3634493898626276 0.9536786896336099 0  -0.4694497796816204 0.9169874016728697 0  -0.5705252118424092 0.8716282331297998 0  -0.6664710669416238 0.8169778438948523 0  -0.7557445862400025 0.7544750770515629 0  -0.8379325736819774 0.6845528821685303 0  -0.912380788834676 0.6068095830848385 0  -0.9771514552821974 0.5238390202338755 0  -1.032940687951899 0.4362663346230857 0  -1.077798029651136 0.3436180075328943 0  -1.111548073835757 0.2484007342419552 0  -1.1344410168988 0.1507298669617139 0  -1.146091388016079 0.05087534812180271 0  -1.146115185871771 -0.0495758152804717 0  -1.134472219138322 -0.149209516694769 0  -1.112766893587015 -0.2468815489158347 0  -1.077627443252752 -0.3431077366082704 0  -1.033282314863609 -0.435025051390752 0  -0.9778700241397806 -0.5228504172935263 0  -0.9133637054390381 -0.6054691846424416 0  -0.8389750779267922 -0.6823269811060901 0  -0.7562759230931985 -0.7517428723156984 0  -0.6661906546931429 -0.8133536356501078 0  -0.5708903791415583 -0.8680391902828672 0  -0.4676705857295186 -0.9138962286554894 0  -0.3614848036895652 -0.9514405369265202 0  -0.251240562638992 -0.9788919985836848 0  -0.13931062809491 -0.9965737900402181 0  -0.02660619038000478 -1.005437963253872 0  0.08659635919861228 -1.001997428633867 0  0.2000401923703796 -0.9885019344836909 0  0.3110735345948203 -0.9664040488317304 0  0.4201515761695644 -0.9339741578245611 0  0.5236375339271915 -0.8928304547374377 0  0.6231174422171385 -0.8429266058672078 0  0.715998566629298 -0.7854674206944509 0  0.8018113278665243 -0.7191975208917799 0  0.880177476016985 -0.6452495129757583 0  0.9492198973581121 -0.565279908347987 0  1.009578254795762 -0.4800091347813673 0  1.060597945986013 -0.3896615855181099 0  1.0994351929966 -0.2958752243660047 0  1.128021126261729 -0.198458150712617 0  1.145468902082644 -0.09974805443500483 0  -2.449004012244032 4.918929969720951 0  -2.448917759895533 -4.911382190797317 0  4.911327143600383 2.448531157067276 0  4.919369888122506 -2.449935001531959 0  2.446726193605065 -4.896768742651203 0  2.441141505443867 4.900497597645231 0  -4.911346803649581 -2.448550624251226 0  -4.911346256690575 2.448554432115952 0  -1.748973815064119 4.912178728745523 0  -1.744740701378311 -4.915573358847291 0  4.921743425673831 1.74464589925999 0  4.910434233599271 -1.748491295310032 0  -4.910714125888964 -1.748215777633426 0  -4.911527376998513 1.747953801372077 0  1.746275103708718 4.906122385761432 0  1.747746601541418 -4.8944197682811 0  -1.149191583167619 4.910209325210812 0  -1.130012326733408 -4.918005694582153 0  -4.910751001622102 -1.148429445282789 0  -4.910574463412496 1.148229164386115 0  1.144163340827273 -4.914248982378553 0  1.14919713597347 4.910200070754103 0  4.91090408198678 1.146708812619451 0  4.921544715378438 -1.152432435708656 0  -0.5468515691312102 -4.911520467362249 0  -0.5466158054892252 4.920064915494522 0  -4.909740527112052 -0.5489874841418132 0  -4.909765493947895 0.5475420786305677 0  4.909090292410491 -0.5493111391099437 0  4.920517688270408 0.5460304316323139 0  0.5426510715449295 -4.898620097789561 0  0.5513476698050296 4.916941488490431 0  -4.912482904857722 -3.048799401847092 0  4.919014715376616 3.046782987101646 0  4.911997372807072 -3.048783301342994 0  -4.913327904589168 3.045886881799758 0  3.055682548889918 -4.917966311610187 0  -3.049041736541557 -4.911942191604676 0  3.052600382909282 4.914009330638589 0  -3.048485099444888 4.912827001041741 0  -4.908944820509845 -0.0499355604519621 0  0.04513124059582383 -4.91348253845972 0  0.04958000129115112 4.920393573787025 0  4.915872467962264 -0.05131589701095648 0  3.545921109966516 -4.919434941467471 0  -3.549228281968844 4.912366
[...]
<PointData  Vectors="f_1580"> 
<DataArray  type="Float64"  Name="f_1580"  NumberOfComponents="3" format="ascii">-1.5055635435651041e-40 -1.5744512374840655e-40 0.0000000000000000e+00  1.8707283106860431e-40 -1.9063220737655504e-40 0.0000000000000000e+00  -2.3401234796586301e-40 -2.3403144583615230e-40 0.0000000000000000e+00  -2.8815442013172465e-40 2.9832874440152124e-40 0.0000000000000000e+00  1.4743670140804586e+01 -4.4675267223666271e-01 0.0000000000000000e+00  3.4006470831502355e-40 3.5108849803519021e-40 0.0000000000000000e+00  7.8671085797993812e-40 8.5686372895063564e-40 0.0000000000000000e+00  -1.7498892246689494e-39 -2.0333105187726690e-39 0.0000000000000000e+00  1.7792752343107537e-38 1.9957395113231430e-38 0.0000000000000000e+00  -5.7312298987761036e-38 -6.2898345373061426e-38 0.0000000000000000e+00  2.1818436828686849e-37 2.4135950741459228e-37 0.0000000000000000e+00  -7.8696292350511468e-37 -8.9305025267346633e-37 0.0000000000000000e+00  4.6678902760234760e-36 5.6939344296449308e-36 0.0000000000000000e+00  -2.8771489191511145e-35 -3.6445972126129605e-35 0.0000000000000000e+00  1.1625303404122656e-34 1.5001943702752170e-34 0.0000000000000000e+00  -2.4861007272824770e-34 -3.3098638739535172e-34 0.0000000000000000e+00  4.9168909925280596e-34 6.7150687541688153e-34 0.0000000000000000e+00  1.7578004847029382e-33 2.4530087606892391e-33 0.0000000000000000e+00  -7.9301632086538894e-33 -1.1290706745199657e-32 0.0000000000000000e+00  2.2972180324886102e-32 3.3756791113218862e-32 0.0000000000000000e+00  -1.2979777845501554e-31 -1.9468183535297538e-31 0.0000000000000000e+00  3.4117765949572101e-31 5.1531293393800965e-31 0.0000000000000000e+00  1.8765780771074236e-31 3.2114163845267161e-31 0.0000000000000000e+00  -1.5876504814693965e-30 -2.6376285839223988e-30 0.0000000000000000e+00  -8.1019632312051632e-31 -1.3143272749112073e-30 0.0000000000000000e+00  -2.1130690190704404e-30 -3.4697435346512757e-30 0.0000000000000000e+00  5.1854189428364157e-30 9.1758508411643446e-30 0.0000000000000000e+00  -1.2530144316708974e-29 -2.2673307874070726e-29 0.0000000000000000e+00  4.2708192191026280e-29 7.9244235248567227e-29 0.0000000000000000e+00  2.5188833921438644e-29 4.9997943460448922e-29 0.0000000000000000e+00  -2.1170800378307564e-28 -4.2378595735831210e-28 0.0000000000000000e+00  -7.2080990368288461e-29 -1.5551059837357333e-28 0.0000000000000000e+00  -1.2253381884787504e-28 -2.7685248372781581e-28 0.0000000000000000e+00  2.0965072154703655e-28 4.6371020919062485e-28 0.0000000000000000e+00  6.2642739176254899e-28 1.4877654823274614e-27 0.0000000000000000e+00  -5.9821689214565254e-29 -1.1249806898866452e-28 0.0000000000000000e+00  1.4223974319147152e-28 4.0836949005676405e-28 0.0000000000000000e+00  -1.0597856630359249e-28 -2.6839719337954615e-28 0.0000000000000000e+00  -4.9176986616936842e-28 -1.4493289043148674e-27 0.0000000000000000e+00  -4.4622539604836789e-28 -1.4489699711391344e-27 0.0000000000000000e+00  -2.4849577753273956e-29 -1.6978095854332573e-28 0.0000000000000000e+00  4.7735083004654707e-28 1.7326524410038735e-27 0.0000000000000000e+00  2.6370393951583992e-28 1.0518732674728013e-27 0.0000000000000000e+00  -4.3302813710602977e-29 -1.9008844957312649e-28 0.0000000000000000e+00  9.2190555538875778e-29 4.2982330078643365e-28 0.0000000000000000e+00  2.2730906209149261e-28 1.1141496087608296e-27 0.0000000000000000e+00  3.3555183316766715e-28 1.8682563857402195e-27 0.0000000000000000e+00  -1.6414310706383541e-28 -1.0735986411688684e-27 0.0000000000000000e+00  7.4356021771647165e-28 6.0002428447163982e-27 0.0000000000000000e+00  -4.1856781434948416e-29 -3.2499490806221125e-29 0.0000000000000000e+00  -4.6399924761814344e-28 -5.1885591912612512e-27 0.0000000000000000e+00  -1.7536805801093352e-28 -3.0387353121331547e-27 0.0000000000000000e+00  -2.0377004516515977e-28 -4.3220518067171188e-27 0.0000000000000000e+00  -3.0944809420966820e-28 -1.0781389197650825e-26 0.0000000000000000e+00  -1.3116817674873221e-28 -1.2357354779859310e-26 0.0000000000000000e+00  8.5114943099243425e-30 -2.1451444735684546e-27 0.0000000000000000e+00  1.5157108356688469e-28 -6.7524006688834099e-27 0.0000000000000000e+00  1.7952583411329320e-28 -2.4513332082890509e-27 0.0000000000000000e+00  3.8899103437498144e-28 -4.3771097672712824e-27 0.0000000000000000e+00  -2.2163649656006807e-28 1.9501452990493607e-27 0.0000000000000000e+00  7.1273209165826782e-28 -5.8871408447539404e-27 0.0000000000000000e+00  8.0401122923656316e-28 -5.3389519444253637e-27 0.0000000000000000e+00  -1.5643729609702753e-28 1.0735601365704352e-27 0.0000000000000000e+00  -1.5201659263861599e-27 7.8854497258378545e-27 0.0000000000000000e+00  -6.7976876603656816e-28 3.1302917318175690e-27 0.0000000000000000e+00  -3.9525535629695160e-28 1.8383830034429797e-27 0.0000000000000000e+00  -1.1261091620438576e-27 4.5118869947358221e-27 0.0000000000000000e+00  -6.6524521514329126e-28 2.3834769352276118e-27 0.0000000000000000e+00  7.7008770528081398e-28 -2.6751282745595047e-27 0.0000000000000000e+00  3.9818700494048767e-28 -1.2585237817924379e-27 0.0000000000000000e+00  8.2756477099842137e-29 -2.6627269945064629e-28 0.0000000000000000e+00  3.3678772131021537e-28 -9.6337896837708037e-28 0.0000000000000000e+00  2.8640942270808154e-28 -7.5292085969240788e-28 0.0000000000000000e+00  -2.4492426918088899e-28 6.2923180552999640e-28 0.0000000000000000e+00  -1.8875344488161559e-28 4.5014749163572706e-28 0.0000000000000000e+00  -1.3838303916017741e-28 3.1377534339186361e-28 0.0000000000000000e+00  1.9497132865476285e-29 -4.9557655156512982e-29 0.0000000000000000e+00  9.8441165167133133e-29 -2.1092455073172419e-28 0.0000000000000000e+00  1.4008359872970346e-28 -2.7877233468427040e-28 0.0000000000000000e+00  -5.6500183182046720e-30 1.4594407656944965e-29 0.0000000000000000e+00  -9.7916235616522676e-29 1.8268531979985476e-28 0.0000000000000000e+00  1.5993127365217783e-29 -3.0078537833326572e-29 0.0000000000000000e+00  5.3785860204894429e-30 -9.1265959626867243e-30 0.0000000000000000e+00  -1.4167929106904327e-29 2.4704719805049894e-29 0.0000000000000000e+00  -1.0792232312594916e-30 1.7025298199354547e-30 0.0000000000000000e+00  1.6044569487509094e-30 -2.6309458941707055e-30 0.0000000000000000e+00  -8.2722643054349380e-31 1.3309886943606339e-30 0.0000000000000000e+00  1.0453092241248485e-31 -1.6641936922094516e-31 0.0000000000000000e+00  -1.2478422051953225e-32 1.8971256235449370e-32 0.0000000000000000e+00  -6.5945181705941888e-34 1.0308361541778903e-33 0.0000000000000000e+00  6.7600794852964875e-33 -9.6358514291581232e-33 0.0000000000000000e+00  3.4321787492296507e-34 -4.1171680946069372e-34 0.0000000000000000e+00  -4.3139791870873879e-34 5.7953295813016149e-34 0.0000000000000000e+00  4.7689413658197011e-35 -6.6360131885863538e-35 0.0000000000000000e+00  -1.8539640950400133e-35 2.4063419749503164e-35 0.0000000000000000e+00  4.4289446656178727e-36 -5.5153831423016963e-36 0.0000000000000000e+00  -1.5571019780232406e-36 1.8650308299282780e-36 0.0000000000000000e+00  4.9999671724525569e-37 -5.8326325289961901e-37 0.0000000000000000e+00  -2.4934486521756942e-37 2.8522200025083876e-37 0.0000000000000000e+00  8.4028596598267455e-38 -9.4800740803895810e-38 0.0000000000000000e+00  -1.7058107825722149e-38 1.8887866484831980e-38 0.0000000000000000e+00  6.9001351088123792e-39 -7.4575574547159322e-39 0.0000000000000000e+00  -4.3048216964470728e-40 4.6979339617469507e-40 0.0000000000000000e+00  -3.2121724044848416e-40 3.3060417615872072e-40 0.0000000000000000e+00  -1.0090961439165448e-41 5.7371845198626721e-42 0.0000000000000000e+00  3.9621644198552307e-40 -3.8217204827947173e-40 0.0000000000000000e+00  -9.1361370988732996e-40 8.4905676365067657e-40 0.0000000000000000e+00  3.4268189242997710e-39 -3.1450113862743448e-39 0.0000000000000000e+00  -2.1472164020093208e-39 1.9720913135044981e-39 0.0000000000000000e+00  -1.5524445206593084e-38 1.3495251694139920e-38 0.0000000000000000e+00  6.0905761504489241e-38 -5.2169508204429716e-38 0.0000000000000000e+00  -8.3033581720305453e-38 7.0268555901390554e-38 0.0000000000000000e+00  -1.4426370324558108e-37 1.1559531698308485e-37 0.0000000000000000e+00  9.3582828201178888e-37 -7.4496113415299653e-37 0.0000000000000000e+00  -1.6387596665562800e-36 1.2900994058995777e-36 0.0000000000000000e+00  -1.3615852646071741e-36 9.8391426279653704e-37 0.0000000000000000e+00  1.2926761106587094e-35 -9.5297225220438094e-36 0.0000000000000000e+00  -2.5079776916139090e-35 1.8212484447824132e-35 0.0000000000000000e+00  -1.7813417147405414e-35 1.1813625104856267e-35 0.0000000000000000e+00  1.8710310420348049e-34 -1.2681685287755287e-34 0.0000000000000000e+00  -3.0098819717865462e-34 2.0262997892888438e-34 0.0000000000000000e+00  -4.0388063576656472e-34 2.5118057829345267e-34 0.0000000000000000e+00  2.5289821330850798e-33 -1.5683810879422091e-33 0.0000000000000000e+00  -2.5127772888081337e-33 1.5571669349518398e-33 0.0000000000000000e+00  -9.1167068496606707e-33 5.2147211560479036e-33 0.0000000000000000e+00  2.8886914687469775e-32 -1.6405886910757016e-32 0.0000000000000000e+00  2.3988128378408935e-33 -5.6368651657494379e-34 0.0000000000000000e+00  -1.5628741657029231e-31 8.1129829690837169e-32 0.0000000000000000e+00  2.0765158656480385e-31 -1.0642800866034865e-31 0.0000000000000000e+00  5.1920224608834026e-31 -2.4410081634823209e-31 0.0000000000000000e+00  -1.5471815748673051e-30 7.2007071719336565e-31 0.0000000000000000e+00  -8.7927516627697112e-31 3.5771326299559829e-31 0.0000000000000000e+00  8.2071594221614567e-30 -3.4661895139677579e-30 0.0000000000000000e+00  -2.4693060434644083e-30 1.1319945160378203e-30 0.0000000000000000e+00  -3.6012594657271591e-29 1.3678328962321876e-29 0.0000000000000000e+00  2.9887482433446231e-29 -1.1283614228516960e-29 0.0000000000000000e+00  1.4580413360060917e-28 -4.9663797627157190e-29 0.0000000000000000e+00  -1.6528554547520745e-28 5.4707903920977023e-29 0.0000000000000000e+00  -6.0383106706467627e-28 1.8222342637417459e-28 0.0000000000000000e+00  6.4074488011586042e-28 -1.9037179781012696e-28 0.0000000000000000e+00  2.5034450738567639e-27 -6.6189377301007508e-28 0.0000000000000000e+00  -1.9109885222227624e-27 4.7922020637088034e-28 0.0000000000000000e+00  -9.6241307827182630e-27 2.1165463811328215e-27 0.0000000000000000e+00  2.5485566822961854e-27 -4.4833546842674503e-28 0.0000000000000000e+00  3.0130999316011435e-26 -5.3597041241348265e-27 0.0000000000000000e+00  1.4549157534253741e-26 -2.3552821169239136e-27 0.0000000000000000e+00  -8.5650598605594069e-26 1.2077483765147061e-26 0.0000000000000000e+00  -1.2979204275217648e-25 1.5796417241536939e-26 0.0000000000000000e+00  1.4482520722836387e-25 -1.5973695192317037e-26 0.0000000000000000e+00  8.4592277054879310e-25 -6.8175047207596990e-26 0.0000000000000000e+00  1.5430536610477513e-24 -8.8832274103429102e-26 0.0000000000000000e+00  1.8801046620007637e-24 -6.8173905953359501e-26 0.0000000000000000e+00  1.8364351626556365e-24 -3.0294836195478014e-26 0.0000000000000000e+00  1.8545010413395978e-24 9.5597296153641254e-28 0.0000000000000000e+00  1.9824601387569058e-24 3.6150371299592516e-26 0.0000000000000000e+00  1.8366729163623047e-24 6.8493767504413417e-26 0.0000000000000000e+00  1.2036972475787130e-24 6.8448530586026658e-26 0.0000000000000000e+00  3.5926893240107049e-25 2.8235232242035966e-26 0.0000000000000000e+00  -1.5794412296268595e-25 -1.4243726069305337e-26 0.0000000000000000e+00  -2.1019908144712553e-25 -2.3898626552897089e-26 0.0000000000000000e+00  -3.7455923321853412e-26 -4.8937024101109176e-27 0.0000000000000000e+00  5.8984611773186039e-26 9.4171052843615976e-27 0.0000000000000000e+00  3.6092813169618177e-26 6.5323819224279183e-27 0.0000000000000000e+00  -5.0016173256418519e-27 -9.8387784989181596e-28 0.0000000000000000e+00  -1.0506372369646902e-26 -2.3302346201138194e-27 0.0000000000000000e+00  -6.8187168989314350e-28 -1.7427958272171162e-28 0.0000000000000000e+00  2.6326966638651218e-27 6.8410103685185006e-28 0.0000000000000000e+00  3.6601418028536319e-28 1.0555145458412042e-28 0.0000000000000000e+00  -6.2607203293940849e-28 -1.8737402947318364e-28 0.0000000000000000e+00  -8.2873028072383472e-29 -2.7423103290229832e-29 0.0000000000000000e+00  1.4541000560850653e-28 4.9894011891040814e-29 0.0000000000000000e+00  5.8092848597731423e-30 2.4298192420950309e-30 0.0000000000000000e+00  -3.2468827818733999e-29 -1.2526093110309658e-29 0.0000000000000000e+00  2.8846328399700235e-30 1.0988982999544755e-30 0.0000000000000000e+00  6.1657061172056243e-30 2.6744267377131635e-30 0.0000000000000000e+00  -1.8276801739074882e-30 -7.9652730335652186e-31 0.0000000000000000e+00  -9.0586611459264904e-31 -4.3455466740995286e-31 0.0000000000000000e+00  5.8773808950976411e-31 2.8531915562905150e-31 0.0000000000000000e+00  3.1344735934154041e-32 1.9061687777047576e-32 0.0000000000000000e+00  -1.2897096391482669e-31 -6.8010546600974105e-32 0.0000000000000000e+00  2.9124106914052473e-32 1.5210726913090472e-32 0.0000000000000000e+00  1.8465570854691383e-32 1.0609599570919156e-32 0.0000000000000000e+00  -1.1828681445922334e-32 -6.8244168495510611e-33 0.0000000000000000e+00  1.7710466709737967e-34 4.4026556748087032e-35 0.0000000000000000e+00  2.1258254153105585e-33 1.3391822605018765e-33 0.0000000000000000e+00  -8.0540648099848854e-34 -5.0757663577608674e-34 0.0000000000000000e+00  -1.1251905711673492e-34 -8.0236590371661762e-35 0.0000000000000000e+00  1.9360757912950908e-34 1.3199796478863952e-34 0.0000000000000000e+00  -5.4489896999748832e-35 -3.7450485658711722e-35 0.0000000000000000e+00  -1.2623026130684264e-35 -9.4091074609141824e-36 0.0000000000000000e+00  1.4311686987493503e-35 1.0577639064777877e-35 0.0000000000000000e+00  -3.7309063259804976e-36 -2.7736182966117402e-36 0.0000000000000000e+00  -8.7702039177964944e-37 -7.0276673629535274e-37 0.0000000000000000e+00  1.0012619343118293e-36 7.9765221857830336e-37 0.0000000000000000e+00  -2.9029196697407388e-37 -2.3411940970070267e-37 0.0000000000000000e+00  -3.5142069557726693e-38 -3.0465406795832528e-38 0.0000000000000000e+00  6.2642442262700671e-38 5.3699985277504975e-38 0.0000000000000000e+00  -2.3926686286421890e-38 -2.0785252037683595e-38 0.0000000000000000e+00  9.0809893711352807e-40 7.3059701336713927e-40 0.0000000000000000e+00  3.3281684230638916e-39 3.0484719915827860e-39 0.0000000000000000e+00  -1.7471792418676083e-39 -1.6190957492424614e-39 0.0000000000000000e+00  3.7958055738313278e-40 3.5561243779548420e-40 0.0000000000000000e+00  1.7814995294039176e-40 1.7562532405343235e-40 0.0000000000000000e+00  3.4997070938663471e-40 3.6600015149125164e-40 0.0000000000000000e+00  -1.0092649540530738e-39 -1.0726704681275421e-39 0.0000000000000000e+00  1.9944960712910176e-39 2.1783763016866569e-39 0.0000000000000000e+00  -1.3519448652731330e-38 -1.4762034351570179e-38 0.0000000000000000e+00  9.7853008144782011e-38 1.0636979621778560e-37 0.0000000000000000e+00  -2.2992016946963352e-37 -2.5134513826900972e-37 0.0000000000000000e+00  2.6970534434605458e-37 3.0707239710588535e-37 0.0000000000000000e+00  -4.0921283912561231e-36 -4.8597116952842059e-36 0.0000000000000000e+00  1.2751732762833764e-35 1.5569921999520214e-35 0.0000000000000000e+00  -5.4750791561949164e-35 -6.8626185714757925e-35 0.0000000000000000e+00  1.2154029087976908e-34 1.5714658068932066e-34 0.0000000000000000e+00  -2.4463575015682762e-34 -3.3521754247449598e-34 0.0000000000000000e+00  1.2970804931202677e-33 1.7531519362720641e-33 0.0000000000000000e+00  -9.4129331686550981e-34 -1.2590715513827454e-33 0.0000000000000000e+00  5.1740042882239398e-33 6.9420308379014889e-33 0.0000000000000000e+00  4.1283161619725492e-32 6.2483264374734180e-32 0.0000000000000000e+00  -1.9283374755579548e-31 -2.8782147989887879e-31 0.0000000000000000e+00  -5.4171144672579655e-31 -8.6731658481464497e-31 0.0000000000000000e+00  1.0550439156829469e-30 1.7175853961993158e-30 0.0000000000000000e+00  -1.4980730670439930e-31 -2.2459661777306135e-31 0.0000000000000000e+00  -3.1989003201348696e-30 -5.5565878552826701e-30 0.0000000000000000e+00  9.4785411878621039e-30 1.6654402733835178e-29 0.0000000000000000e+00  1.4271487077279936e-29 2.7161047741071162e-29 0.0000000000000000e+00  -9.2750847397891863e-29 -1.7650952257246489e-28 0.0000000000000000e+00  3.0067024137562796e-29 5.7704397052453723e-29 0.0000000000000000e+00  9.8838553788322781e-29 2.0505419457445511e-28 0.0000000000000000e+00  3.5687039664094755e-29 7.3450387695099447e-29 0.0000000000000000e+00  3.1074853932341412e-28 6.7796241593273647e-28 0.0000000000000000e+00  1.3356686229530709e-28 3.2359388354413916e-28 0.0000000000000000e+00  -3.6926123647298136e-28 -8.3305730579992955e-28 0.0000000000000000e+00  -3.9804231161470336e-28 -1.0696092633506808e-27 0.0000000000000000e+00  3.8220990467780930e-28 9.7790570622557940e-28 0.0000000000000000e+00  6.9026709752418616e-28 1.8714439901884434e-27 0.0000000000000000e+00  3.7315497502565516e-28 1.1756567768526409e-27 0.0000000000000000e+00  1.0286480447903925e-28 4.8855539116604543e-28 0.0000000000000000e+00  -7.8665017641880288e-28 -2.5433549555666042e-27 0.0000000000000000e+00  -2.7350495620871310e-28 -8.5421248654410024e-28 0.0000000000000000e+00  -1.1613443903607027e-28 -3.6637001526562532e-28 0.0000000000000000e+00  -3.8076776401625621e-28 -1.5929349802000266e-27 0.0000000000000000e+00  -3.3130361782158427e-28 -1.5063053392350458e-27 0.0000000000000000e+00  -3.2396680134810079e-28 -1.9860462348022047e-27 0.0000000000000000e+00  -2.3722530500662838e-30 -4.3691445385216410e-28 0.0000000000000000e+00  3.1414800598140814e-28 1.8386360227745398e-27 0.0000000000000000e+00  2.5875646525239466e-29 5.1838111268301540e-29 0.0000000000000000e+00  -2.3118269359819395e-28 -2.3482284589431094e-27 0.0000000000000000e+00  1.0972654596103034e-28 1.0774233569758543e-27 0.0000000000000000e+00  6.1112237674407206e-29 9.3903628457374771e-28 0.0000000000000000e+00  -5.0036293144003650e-29 -1.3767783227103630e-27 0.0000000000000000e+00  -6.6941546431354001e-30 -2.8961748580714775e-28 0.0000000000000000e+00  8.5523511964741935e-30 -1.4792854226489034e-27 0.0000000000000000e+00  -6.2094571316738188e-29 2.1514832600219969e-27 0.0000000000000000e+00  -1.2132861421561890e-28 2.0075736605661376e-27 0.0000000000000000e+00  8.6804390125660324e-29 -1.6388286905466962e-27 0.0000000000000000e+00  -4.0576475809940049e-30 -2.2887829997579088e-28 0.0000000000000000e+00  2.4009356172804911e-28 -2.2708042368619016e-27 0.0000000000000000e+00  -2.4582716601217585e-28 1.5894666166634759e-27 0.0000000000000000e+00  -1.4409131931232910e-28 6.7127239466741955e-28 0.0000000000000000e+00  7.6528781448693769e-29 -7.6249872026930526e-28 0.0000000000000000e+00  -2.3310080371858264e-30 -2.7850592909571072e-28 0.0000000000000000e+00  5.5477060837529793e-28 -2.7280256110552005e-27 0.0000000000000000e+00  7.1980770143093347e-28 -3.3524399462864965e-27 0.0000000000000000e+00  1.1591319908441767e-27 -4.5979874549075679e-27 0.0000000000000000e+00  3.7093713280319446e-28 -1.2602579985349500e-27 0.0000000000000000e+00  -3.2445748649167734e-28 1.2537559262015994e-27 0.0000000000000000e+00  -7.7638433689801797e-28 2.4678293250278802e-27 0.0000000000000000e+00  -9.1628487203561358e-28 2.6904889690202011e-27 0.0000000000000000e+00  -2.5614305368875322e-28 6.7120355531449429e-28 0.0000000000000000e+00  1.6216798061345963e-28 -4.5913969752275782e-28 0.0000000000000000e+00  1.9070986730015124e-28 -5.0147036044772356e-28 0.0000000000000000e+00  7.8416014885497166e-28 -1.8428922934537484e-27 0.0000000000000000e+00  3.2651138066290400e-28 -7.2235637359586745e-28 0.0000000000000000e+00  -2.6993432525306729e-28 5.8738445060461913e-28 0.0000000000000000e+00  -1.0964922420786688e-29 2.5668746600248926e-29 0.0000000000000000e+00  3.0444589053904433e-29 -6.5451434603062079e-29 0.0000000000000000e+00  7.4701976652836128e-29 -1.4697338548138229e-28 0.0000000000000000e+00  -1.5396909552703299e-29 3.0173837170092173e-29 0.0000000000000000e+00  -2.2597797027927025e-29 4.1199684896905575e-29 0.0000000000000000e+00  2.091