<?xml version="1.0"?>
<VTKFile type="UnstructuredGrid"  version="0.1"  >
<UnstructuredGrid>
<Piece  NumberOfPoints="11902" NumberOfCells="23402">
<Points>
<DataArray  type="Float64"  NumberOfComponents="3"  format="ascii">-5 -5 0  5 -5 0  5 5 0  -5 5 0  1.186041096732996 0.001221665444542545 0  -4.9 -5 0  -4.8 -5 0  -4.7 -5 0  -4.6 -5 0  -4.5 -5 0  -4.4 -5 0  -4.3 -5 0  -4.2 -5 0  -4.1 -5 0  -4 -5 0  -3.9 -5 0  -3.8 -5 0  -3.7 -5 0  -3.6 -5 0  -3.5 -5 0  -3.4 -5 0  -3.3 -5 0  -3.2 -5 0  -3.1 -5 0  -3 -5 0  -2.9 -5 0  -2.8 -5 0  -2.7 -5 0  -2.6 -5 0  -2.5 -5 0  -2.4 -5 0  -2.3 -5 0  -2.2 -5 0  -2.1 -5 0  -2 -5 0  -1.9 -5 0  -1.8 -5 0  -1.7 -5 0  -1.6 -5 0  -1.5 -5 0  -1.4 -5 0  -1.3 -5 0  -1.2 -5 0  -1.1 -5 0  -1 -5 0  -0.9000000000000004 -5 0  -0.7999999999999998 -5 0  -0.7000000000000002 -5 0  -0.5999999999999996 -5 0  -0.5 -5 0  -0.4000000000000004 -5 0  -0.2999999999999998 -5 0  -0.2000000000000002 -5 0  -0.09999999999999964 -5 0  0 -5 0  0.09999999999999964 -5 0  0.2000000000000002 -5 0  0.2999999999999998 -5 0  0.4000000000000004 -5 0  0.5 -5 0  0.5999999999999996 -5 0  0.7000000000000002 -5 0  0.7999999999999998 -5 0  0.9000000000000004 -5 0  1 -5 0  1.1 -5 0  1.2 -5 0  1.3 -5 0  1.4 -5 0  1.5 -5 0  1.6 -5 0  1.7 -5 0  1.8 -5 0  1.9 -5 0  2 -5 0  2.1 -5 0  2.2 -5 0  2.3 -5 0  2.4 -5 0  2.5 -5 0  2.6 -5 0  2.7 -5 0  2.8 -5 0  2.9 -5 0  3 -5 0  3.1 -5 0  3.199999999999999 -5 0  3.300000000000001 -5 0  3.4 -5 0  3.5 -5 0  3.6 -5 0  3.699999999999999 -5 0  3.800000000000001 -5 0  3.9 -5 0  4 -5 0  4.1 -5 0  4.199999999999999 -5 0  4.300000000000001 -5 0  4.4 -5 0  4.5 -5 0  4.6 -5 0  4.699999999999999 -5 0  4.800000000000001 -5 0  4.9 -5 0  5 -4.9 0  5 -4.8 0  5 -4.7 0  5 -4.6 0  5 -4.5 0  5 -4.4 0  5 -4.3 0  5 -4.2 0  5 -4.1 0  5 -4 0  5 -3.9 0  5 -3.8 0  5 -3.7 0  5 -3.6 0  5 -3.5 0  5 -3.4 0  5 -3.3 0  5 -3.2 0  5 -3.1 0  5 -3 0  5 -2.9 0  5 -2.8 0  5 -2.7 0  5 -2.6 0  5 -2.5 0  5 -2.4 0  5 -2.3 0  5 -2.2 0  5 -2.1 0  5 -2 0  5 -1.9 0  5 -1.8 0  5 -1.7 0  5 -1.6 0  5 -1.5 0  5 -1.4 0  5 -1.3 0  5 -1.2 0  5 -1.1 0  5 -1 0  5 -0.9000000000000004 0  5 -0.7999999999999998 0  5 -0.7000000000000002 0  5 -0.5999999999999996 0  5 -0.5 0  5 -0.4000000000000004 0  5 -0.2999999999999998 0  5 -0.2000000000000002 0  5 -0.09999999999999964 0  5 0 0  5 0.09999999999999964 0  5 0.2000000000000002 0  5 0.2999999999999998 0  5 0.4000000000000004 0  5 0.5 0  5 0.5999999999999996 0  5 0.7000000000000002 0  5 0.7999999999999998 0  5 0.9000000000000004 0  5 1 0  5 1.1 0  5 1.2 0  5 1.3 0  5 1.4 0  5 1.5 0  5 1.6 0  5 1.7 0  5 1.8 0  5 1.9 0  5 2 0  5 2.1 0  5 2.2 0  5 2.3 0  5 2.4 0  5 2.5 0  5 2.6 0  5 2.7 0  5 2.8 0  5 2.9 0  5 3 0  5 3.1 0  5 3.199999999999999 0  5 3.300000000000001 0  5 3.4 0  5 3.5 0  5 3.6 0  5 3.699999999999999 0  5 3.800000000000001 0  5 3.9 0  5 4 0  5 4.1 0  5 4.199999999999999 0  5 4.300000000000001 0  5 4.4 0  5 4.5 0  5 4.6 0  5 4.699999999999999 0  5 4.800000000000001 0  5 4.9 0  4.9 5 0  4.8 5 0  4.7 5 0  4.6 5 0  4.5 5 0  4.4 5 0  4.3 5 0  4.2 5 0  4.1 5 0  4 5 0  3.9 5 0  3.8 5 0  3.7 5 0  3.6 5 0  3.5 5 0  3.4 5 0  3.3 5 0  3.2 5 0  3.1 5 0  3 5 0  2.9 5 0  2.8 5 0  2.7 5 0  2.6 5 0  2.5 5 0  2.4 5 0  2.3 5 0  2.2 5 0  2.1 5 0  2 5 0  1.9 5 0  1.8 5 0  1.7 5 0  1.6 5 0  1.5 5 0  1.4 5 0  1.3 5 0  1.2 5 0  1.1 5 0  1 5 0  0.9000000000000004 5 0  0.7999999999999998 5 0  0.7000000000000002 5 0  0.5999999999999996 5 0  0.5 5 0  0.4000000000000004 5 0  0.2999999999999998 5 0  0.2000000000000002 5 0  0.09999999999999964 5 0  0 5 0  -0.09999999999999964 5 0  -0.2000000000000002 5 0  -0.2999999999999998 5 0  -0.4000000000000004 5 0  -0.5 5 0  -0.5999999999999996 5 0  -0.7000000000000002 5 0  -0.7999999999999998 5 0  -0.9000000000000004 5 0  -1 5 0  -1.1 5 0  -1.2 5 0  -1.3 5 0  -1.4 5 0  -1.5 5 0  -1.6 5 0  -1.7 5 0  -1.8 5 0  -1.9 5 0  -2 5 0  -2.1 5 0  -2.2 5 0  -2.3 5 0  -2.4 5 0  -2.5 5 0  -2.6 5 0  -2.7 5 0  -2.8 5 0  -2.9 5 0  -3 5 0  -3.1 5 0  -3.199999999999999 5 0  -3.300000000000001 5 0  -3.4 5 0  -3.5 5 0  -3.6 5 0  -3.699999999999999 5 0  -3.800000000000001 5 0  -3.9 5 0  -4 5 0  -4.1 5 0  -4.199999999999999 5 0  -4.300000000000001 5 0  -4.4 5 0  -4.5 5 0  -4.6 5 0  -4.699999999999999 5 0  -4.800000000000001 5 0  -4.9 5 0  -5 4.9 0  -5 4.8 0  -5 4.7 0  -5 4.6 0  -5 4.5 0  -5 4.4 0  -5 4.3 0  -5 4.2 0  -5 4.1 0  -5 4 0  -5 3.9 0  -5 3.8 0  -5 3.7 0  -5 3.6 0  -5 3.5 0  -5 3.4 0  -5 3.3 0  -5 3.2 0  -5 3.1 0  -5 3 0  -5 2.9 0  -5 2.8 0  -5 2.7 0  -5 2.6 0  -5 2.5 0  -5 2.4 0  -5 2.3 0  -5 2.2 0  -5 2.1 0  -5 2 0  -5 1.9 0  -5 1.8 0  -5 1.7 0  -5 1.6 0  -5 1.5 0  -5 1.4 0  -5 1.3 0  -5 1.2 0  -5 1.1 0  -5 1 0  -5 0.9000000000000004 0  -5 0.7999999999999998 0  -5 0.7000000000000002 0  -5 0.5999999999999996 0  -5 0.5 0  -5 0.4000000000000004 0  -5 0.2999999999999998 0  -5 0.2000000000000002 0  -5 0.09999999999999964 0  -5 0 0  -5 -0.09999999999999964 0  -5 -0.2000000000000002 0  -5 -0.2999999999999998 0  -5 -0.4000000000000004 0  -5 -0.5 0  -5 -0.5999999999999996 0  -5 -0.7000000000000002 0  -5 -0.7999999999999998 0  -5 -0.9000000000000004 0  -5 -1 0  -5 -1.1 0  -5 -1.2 0  -5 -1.3 0  -5 -1.4 0  -5 -1.5 0  -5 -1.6 0  -5 -1.7 0  -5 -1.8 0  -5 -1.9 0  -5 -2 0  -5 -2.1 0  -5 -2.2 0  -5 -2.3 0  -5 -2.4 0  -5 -2.5 0  -5 -2.6 0  -5 -2.7 0  -5 -2.8 0  -5 -2.9 0  -5 -3 0  -5 -3.1 0  -5 -3.199999999999999 0  -5 -3.300000000000001 0  -5 -3.4 0  -5 -3.5 0  -5 -3.6 0  -5 -3.699999999999999 0  -5 -3.800000000000001 0  -5 -3.9 0  -5 -4 0  -5 -4.1 0  -5 -4.199999999999999 0  -5 -4.300000000000001 0  -5 -4.4 0  -5 -4.5 0  -5 -4.6 0  -5 -4.699999999999999 0  -5 -4.800000000000001 0  -5 -4.9 0  1.180203848477047 0.09945870875081894 0  1.161818245323957 0.197899845955573 0  1.130955438489153 0.2953021092495237 0  1.090913792687815 0.3871890765252454 0  1.038965584603588 0.4779476075173834 0  0.9776358818262557 0.5631709745413068 0  0.9055622808315241 0.6429376208312602 0  0.8241680602037638 0.7157373528726104 0  0.7357181825807824 0.7815433819516335 0  0.6394039842259303 0.8401652879175705 0  0.5360448767917855 0.8907706447196633 0  0.4282529748828005 0.9325252871153126 0  0.3180101802950597 0.9652924576914805 0  0.202663250605677 0.9876966861835123 0  0.08796090866990044 1.001826090972731 0  -0.02764950019370996 1.004554115420434 0  -0.1433341728030415 0.9952605613718786 0  -0.259648807852381 0.9777281883696978 0  -0.3729923886611337 0.9513618464302359 0  -0.4815372923797354 0.9147911514352334 0  -0.58520631902398 0.8693150524312063 0  -0.6838093605363733 0.8145902423630953 0  -0.7754294940869232 0.7518418080779087 0  -0.8602978335318536 0.6815519373983976 0  -0.9376773015545242 0.6035741542277524 0  -1.004895755132535 0.5209710441758314 0  -1.062788235812444 0.4338514972832719 0  -1.10944537667414 0.3415626385997864 0  -1.144467954828424 0.2471229763371646 0  -1.168091002904136 0.1501990207473737 0  -1.180088439028134 0.0508244983959897 0  -1.180093742250504 -0.04918766301467483 0  -1.168059749674609 -0.1482662347327861 0  -1.14545411305256 -0.2451998676236681 0  -1.109054875342825 -0.3411438571068929 0  -1.063162006557594 -0.4325924692559925 0  -1.005815992832249 -0.5200080546371201 0  -0.9390467867953073 -0.6021928396607037 0  -0.861901312704576 -0.6790673969821728 0  -0.7765653186370869 -0.7485035198246844 0  -0.6837880470733267 -0.8098789615879429 0  -0.5854841821494016 -0.8643241946911387 0  -0.4790641092368877 -0.9108067079452576 0  -0.3701131537810653 -0.9486949085977271 0  -0.2570014662799253 -0.9762895795626922 0  -0.1419435592326984 -0.9942844890567387 0  -0.0271147149884756 -1.003735568613811 0  0.08857195802559967 -0.9996568191583014 0  0.2052258347256972 -0.9855744786320769 0  0.3194440452553452 -0.9636463341751692 0  0.4314167274963411 -0.9311144630474962 0  0.537562830867133 -0.8897942964307075 0  0.6400861112773709 -0.8396697972066054 0  0.7359121405906414 -0.7824357032291539 0  0.8242549765271918 -0.716387730246456 0  0.9050900846777182 -0.6423609481923441 0  0.9763422308233514 -0.56248737944358 0  1.038873083718276 -0.4774190187764023 0  1.091972014379478 -0.3872746567225452 0  1.132307749921774 -0.293998112602443 0  1.162033260471251 -0.197108428046676 0  1.180217083278743 -0.09901030860656204 0  -2.448838429143295 4.918623905015703 0  -2.448737588653914 -4.911048486699033 0  4.910985511398684 2.448290685797878 0  4.91905993804031 -2.449716339498657 0  2.446516488368654 -4.896376547741225 0  2.440938650599377 4.90011827641336 0  -4.91100806274344 -2.44831283676608 0  -4.911006623376393 2.448316693540022 0  -1.748802942670379 4.9117382014871 0  -1.744577324472075 -4.915150633336503 0  4.921311803878027 1.744428242126946 0  4.909941324562926 -1.748241778085529 0  -4.910226782368929 -1.747970020929973 0  -4.911043467031109 1.747710657758222 0  1.746093707178714 4.90564908934547 0  1.74754335777123 -4.893888304118298 0  -1.149055685297393 4.909676097957728 0  -1.129890080000751 -4.917518390678841 0  -4.910140782224971 -1.148227204929011 0  -4.909962178361619 1.14802724368797 0  1.144036325706769 -4.913738697952376 0  1.14906281998851 4.909665187380226 0  4.910288680259352 1.146504979625585 0  4.921004177954512 -1.152252115014058 0  -0.5467809184668988 -4.910941662779536 0  -0.5465517289284687 4.919540340425725 0  -4.909031466900279 -0.5488750375015805 0  -4.909056020839408 0.5474308972978605 0  4.908369253370232 -0.5491965022624733 0  4.919886994204084 0.5459311939294366 0  0.542573628887706 -4.897955123504182 0  0.5512825250060603 4.91639583682429 0  -4.912254455961384 -3.04860292236688 0  4.918801489252133 3.046599049836947 0  4.91176628156483 -3.048583565786206 0  -4.913100515179671 3.045691948383176 0  3.055534949033963 -4.917741884353612 0  -3.048883009707171 -4.911702392535739 0  3.052445002403247 4.913773406132592 0  -3.048327378928766 4.912588915741792 0  -4.908198747747481 -0.04992431448668339 0  0.04512696559595264 -4.912899413938438 0  0.04957507779253284 4.919855452919697 0  4.915176611815365 -0.05130537251380169 0  3.545803905167555 -4.919277773590542 0  -3.549100940712944 4.9121971
[...]
<PointData  Vectors="f_2110"> 
<DataArray  type="Float64"  Name="f_2110"  NumberOfComponents="3" format="ascii">-1.3414688467483918e-40 -1.4575098496471089e-40 0.0000000000000000e+00  1.6331449248489197e-40 -1.7215519184765598e-40 0.0000000000000000e+00  -2.1715947372318464e-40 -2.1439051669359872e-40 0.0000000000000000e+00  -2.5987687681351601e-40 2.6574838163949245e-40 0.0000000000000000e+00  1.5464765229754073e+01 -2.9019316573623771e-01 0.0000000000000000e+00  3.0859456665042743e-40 3.2512885425431094e-40 0.0000000000000000e+00  7.4807077197230675e-40 7.8930893889701707e-40 0.0000000000000000e+00  -1.6797704554456827e-39 -1.9126686040785114e-39 0.0000000000000000e+00  1.6524023462954070e-38 1.8690142237274067e-38 0.0000000000000000e+00  -5.3459228053401574e-38 -5.9689657592393634e-38 0.0000000000000000e+00  2.0006248188877208e-37 2.3262926043276448e-37 0.0000000000000000e+00  -7.1798626905172132e-37 -8.6511268059779264e-37 0.0000000000000000e+00  4.2772153373352181e-36 5.3382003226603602e-36 0.0000000000000000e+00  -2.6628177388694059e-35 -3.3469513639401822e-35 0.0000000000000000e+00  1.0824564456470451e-34 1.3870195573841912e-34 0.0000000000000000e+00  -2.3470492585962120e-34 -3.0483254178987811e-34 0.0000000000000000e+00  4.7030789723405823e-34 6.1219916863634430e-34 0.0000000000000000e+00  1.6939892967827880e-33 2.2539920097872217e-33 0.0000000000000000e+00  -7.5023280796098292e-33 -1.0409715104830216e-32 0.0000000000000000e+00  2.1270561970410028e-32 3.1086487557976103e-32 0.0000000000000000e+00  -1.2183668820531249e-31 -1.7945074267568143e-31 0.0000000000000000e+00  3.2122323234364037e-31 4.7614855125763840e-31 0.0000000000000000e+00  1.8941374328158560e-31 2.9399301732219186e-31 0.0000000000000000e+00  -1.5717902696457244e-30 -2.4291704732858195e-30 0.0000000000000000e+00  -7.1848400416131843e-31 -1.2323695671277618e-30 0.0000000000000000e+00  -1.7639150629303289e-30 -3.0694768478201035e-30 0.0000000000000000e+00  4.7026997230754377e-30 8.4913427685486512e-30 0.0000000000000000e+00  -1.0903813123416526e-29 -2.3271475647059692e-29 0.0000000000000000e+00  3.8311530858036319e-29 7.7061222662792552e-29 0.0000000000000000e+00  2.2233810408498472e-29 4.7903184959506262e-29 0.0000000000000000e+00  -1.9092014126191503e-28 -4.0154009450243747e-28 0.0000000000000000e+00  -6.7218170318351854e-29 -1.5451886520328524e-28 0.0000000000000000e+00  -1.1436946943699816e-28 -2.9499605848720035e-28 0.0000000000000000e+00  1.9153353234631430e-28 4.6187237045718932e-28 0.0000000000000000e+00  5.6161375305350560e-28 1.4663717245157752e-27 0.0000000000000000e+00  -3.4298084997987357e-29 -1.0355955999559631e-28 0.0000000000000000e+00  1.4821919171352939e-28 4.1228738773708887e-28 0.0000000000000000e+00  -9.3342056316411868e-29 -2.6638343106082301e-28 0.0000000000000000e+00  -4.8489125346643178e-28 -1.4577438441532228e-27 0.0000000000000000e+00  -4.4433200833976307e-28 -1.4452802008509657e-27 0.0000000000000000e+00  -1.6409372580537586e-29 -1.4590478815478779e-28 0.0000000000000000e+00  4.6691288166243418e-28 1.7199343386077635e-27 0.0000000000000000e+00  2.6916856772911427e-28 1.0356722388037654e-27 0.0000000000000000e+00  -2.4116031250571263e-29 -1.7849743741474668e-28 0.0000000000000000e+00  1.0426535750264191e-28 4.2228624644322485e-28 0.0000000000000000e+00  9.6166496947575908e-29 1.0711759389272004e-27 0.0000000000000000e+00  2.1340762409984493e-28 1.7982074747611410e-27 0.0000000000000000e+00  -8.3070433701807632e-29 -1.0516176464413264e-27 0.0000000000000000e+00  5.5668359905979330e-28 5.7491918668560820e-27 0.0000000000000000e+00  -9.4343615593102011e-29 -1.7439553911847760e-29 0.0000000000000000e+00  -4.7915691897910569e-28 -4.9331910883738151e-27 0.0000000000000000e+00  -2.7607002053950089e-28 -2.8516591605460199e-27 0.0000000000000000e+00  -2.4007373240774792e-28 -4.0838107621497671e-27 0.0000000000000000e+00  -2.0855680723321952e-28 -1.0318177722115636e-26 0.0000000000000000e+00  -4.0718838835061247e-29 -1.1827260383597723e-26 0.0000000000000000e+00  -2.2193634197775966e-30 -2.0415777545714789e-27 0.0000000000000000e+00  1.1194232461222621e-28 -6.4077982850755498e-27 0.0000000000000000e+00  1.2827132328386472e-28 -2.2822540963648775e-27 0.0000000000000000e+00  3.1185286942570647e-28 -4.1296422584954659e-27 0.0000000000000000e+00  -1.8367384846424525e-28 1.9131572742877710e-27 0.0000000000000000e+00  6.2542268635456396e-28 -5.5249857396602606e-27 0.0000000000000000e+00  7.3124944477239142e-28 -5.0179553731274022e-27 0.0000000000000000e+00  -1.1946414742789879e-28 1.0539602251201671e-27 0.0000000000000000e+00  -1.2749993060249224e-27 7.5192582712622443e-27 0.0000000000000000e+00  -5.8439207161415611e-28 2.9880758570272538e-27 0.0000000000000000e+00  -3.7623583673079289e-28 1.7173833272253354e-27 0.0000000000000000e+00  -9.8884988412952304e-28 4.3073475646323050e-27 0.0000000000000000e+00  -5.8251482378755916e-28 2.2779777909136869e-27 0.0000000000000000e+00  6.5751369059407537e-28 -2.5847895651833291e-27 0.0000000000000000e+00  3.6091857022374510e-28 -1.2151022971489270e-27 0.0000000000000000e+00  7.5999660917343724e-29 -2.3581358898186044e-28 0.0000000000000000e+00  3.2354483296495829e-28 -9.1933734904925585e-28 0.0000000000000000e+00  2.5632129260620504e-28 -7.1960896039227509e-28 0.0000000000000000e+00  -2.2017056853441335e-28 6.0908103386140431e-28 0.0000000000000000e+00  -1.5701846466372504e-28 4.0930837507650876e-28 0.0000000000000000e+00  -1.1856070711062195e-28 2.9246549059364886e-28 0.0000000000000000e+00  1.8815552744083416e-29 -5.3123440125240136e-29 0.0000000000000000e+00  8.3606668628235401e-29 -1.9294609610503789e-28 0.0000000000000000e+00  1.1996043568976431e-28 -2.5820628703679321e-28 0.0000000000000000e+00  -6.2993292054249910e-30 1.3961270886696986e-29 0.0000000000000000e+00  -8.6371131672791208e-29 1.7228807345249867e-28 0.0000000000000000e+00  1.4095319226160003e-29 -2.8145234369529144e-29 0.0000000000000000e+00  4.7841214942205982e-30 -8.7809731496437839e-30 0.0000000000000000e+00  -1.3217891153054249e-29 2.3439792086451937e-29 0.0000000000000000e+00  -1.0925258910681401e-30 1.6175901656067406e-30 0.0000000000000000e+00  1.5336039739335290e-30 -2.4863629932043470e-30 0.0000000000000000e+00  -7.8127127283517781e-31 1.2398971760002736e-30 0.0000000000000000e+00  1.0098320459902176e-31 -1.6012800902622434e-31 0.0000000000000000e+00  -1.1759709511020416e-32 1.8024182982471282e-32 0.0000000000000000e+00  -9.9842299484035263e-34 1.3963709564352560e-33 0.0000000000000000e+00  6.5206335836364933e-33 -8.9354927263462281e-33 0.0000000000000000e+00  2.6704676388087289e-34 -3.0062137340334549e-34 0.0000000000000000e+00  -3.8806673385131245e-34 5.0167499389579278e-34 0.0000000000000000e+00  4.1911818149813874e-35 -5.3912999078159902e-35 0.0000000000000000e+00  -1.5764470658077775e-35 2.0182150144327464e-35 0.0000000000000000e+00  3.9977929029948407e-36 -4.8865677575146386e-36 0.0000000000000000e+00  -1.5405382931158515e-36 1.7740615391689774e-36 0.0000000000000000e+00  4.8504745556794524e-37 -5.5725844600220524e-37 0.0000000000000000e+00  -2.4156493380155115e-37 2.6942950907122771e-37 0.0000000000000000e+00  8.1043966155435319e-38 -8.8795614182529269e-38 0.0000000000000000e+00  -1.6085816335358913e-38 1.7531965272635332e-38 0.0000000000000000e+00  6.4723404112025713e-39 -6.8564614622550604e-39 0.0000000000000000e+00  -4.2597801106637495e-40 4.3665029434685516e-40 0.0000000000000000e+00  -2.8235537185460410e-40 2.9882353729222225e-40 0.0000000000000000e+00  -5.8941026625567591e-42 4.4171420807563630e-42 0.0000000000000000e+00  3.8355275810907617e-40 -3.5414267678716478e-40 0.0000000000000000e+00  -8.7777599965613410e-40 7.8832540631192950e-40 0.0000000000000000e+00  3.1592118725066930e-39 -2.8902826891447087e-39 0.0000000000000000e+00  -1.7539381444792404e-39 1.7460780744092808e-39 0.0000000000000000e+00  -1.5046414081684984e-38 1.2686442692226773e-38 0.0000000000000000e+00  5.7141607266335843e-38 -4.8579620174508374e-38 0.0000000000000000e+00  -7.5126203502882428e-38 6.4711471811793129e-38 0.0000000000000000e+00  -1.4379715808175683e-37 1.1093058546197311e-37 0.0000000000000000e+00  8.8817074883576055e-37 -7.0239715500002338e-37 0.0000000000000000e+00  -1.5183290207788838e-36 1.2066959984514370e-36 0.0000000000000000e+00  -1.3864967771949309e-36 9.6782818929807165e-37 0.0000000000000000e+00  1.2313827420790540e-35 -9.0776472084269644e-36 0.0000000000000000e+00  -2.3459465346231457e-35 1.7228131325825159e-35 0.0000000000000000e+00  -1.7936647167469149e-35 1.1767019006694252e-35 0.0000000000000000e+00  1.7823412726089374e-34 -1.2200946704989755e-34 0.0000000000000000e+00  -2.8220287738130125e-34 1.9292443176750325e-34 0.0000000000000000e+00  -3.9368619389695625e-34 2.4888523843372867e-34 0.0000000000000000e+00  2.4052073031802987e-33 -1.5224442277755536e-33 0.0000000000000000e+00  -2.3425681058206724e-33 1.4789573832833710e-33 0.0000000000000000e+00  -8.7675839253228020e-33 5.1793078001427254e-33 0.0000000000000000e+00  2.7421902667512770e-32 -1.6013743569754262e-32 0.0000000000000000e+00  2.8849071877459264e-33 -1.2082903756616842e-33 0.0000000000000000e+00  -1.4962532525138953e-31 8.1000074117338398e-32 0.0000000000000000e+00  1.9598854860453514e-31 -1.0322036605399790e-31 0.0000000000000000e+00  5.0246257448004544e-31 -2.5207994596880498e-31 0.0000000000000000e+00  -1.4793981483538929e-30 7.1963391842763982e-31 0.0000000000000000e+00  -8.7427553880597135e-31 4.0959841256471669e-31 0.0000000000000000e+00  7.9220078830441312e-30 -3.5549367045154019e-30 0.0000000000000000e+00  -2.2872549581793591e-30 9.2997513322939594e-31 0.0000000000000000e+00  -3.5041751567511970e-29 1.4438126006246772e-29 0.0000000000000000e+00  2.8845956410221079e-29 -1.0737460244391654e-29 0.0000000000000000e+00  1.4293530869925532e-28 -5.4094789890134810e-29 0.0000000000000000e+00  -1.6178301557220593e-28 5.3387011912155727e-29 0.0000000000000000e+00  -5.9604081677508241e-28 2.0430197608231211e-28 0.0000000000000000e+00  6.3376813240765785e-28 -1.8030984112528337e-28 0.0000000000000000e+00  2.4835329102969473e-27 -7.5589036468771796e-28 0.0000000000000000e+00  -1.9040271234741450e-27 4.0682685513925086e-28 0.0000000000000000e+00  -9.5810491398637651e-27 2.3879822667533158e-27 0.0000000000000000e+00  2.6026713100026771e-27 -5.2879479418269278e-29 0.0000000000000000e+00  3.0157324402751782e-26 -5.7975697509220109e-27 0.0000000000000000e+00  1.4611284417107487e-26 -3.5984768242801687e-27 0.0000000000000000e+00  -8.5281981078668276e-26 1.2043537570369363e-26 0.0000000000000000e+00  -1.2927330405370487e-25 1.7097161956991120e-26 0.0000000000000000e+00  1.4291376353270892e-25 -2.0412896789679142e-26 0.0000000000000000e+00  8.3518215252410297e-25 -9.2513013996093883e-26 0.0000000000000000e+00  1.5200311161089659e-24 -1.3621473267341759e-25 0.0000000000000000e+00  1.8476285144448562e-24 -1.2266478686337232e-25 0.0000000000000000e+00  1.8005020949790739e-24 -6.3415958793093208e-26 0.0000000000000000e+00  1.8141244337808260e-24 5.7913042296158322e-27 0.0000000000000000e+00  1.9359916951190211e-24 7.2979236117151467e-26 0.0000000000000000e+00  1.7932185543362334e-24 1.1231854393744019e-25 0.0000000000000000e+00  1.1782295765479244e-24 9.6455607039209117e-26 0.0000000000000000e+00  3.5690945711810549e-25 3.4477467769240993e-26 0.0000000000000000e+00  -1.4822502085822676e-25 -1.8829519375136318e-26 0.0000000000000000e+00  -2.0212266465081319e-25 -2.7297512490093338e-26 0.0000000000000000e+00  -3.5944190699337275e-26 -3.6669370945979330e-27 0.0000000000000000e+00  5.7442296302215042e-26 1.1823075048350951e-26 0.0000000000000000e+00  3.5179071746607794e-26 7.3700349881674669e-27 0.0000000000000000e+00  -4.7949123881643696e-27 -1.2531483367856796e-27 0.0000000000000000e+00  -1.0144553737948704e-26 -2.5469928562040973e-27 0.0000000000000000e+00  -6.0932529463623236e-28 -1.3053545024426967e-28 0.0000000000000000e+00  2.5623583134649035e-27 7.4297358260191862e-28 0.0000000000000000e+00  3.3794395345812045e-28 9.7800136020746058e-29 0.0000000000000000e+00  -6.1285533529144826e-28 -2.0014138120751436e-28 0.0000000000000000e+00  -7.6112987896158361e-29 -2.4962026942853702e-29 0.0000000000000000e+00  1.4238744704278630e-28 5.2023709150532453e-29 0.0000000000000000e+00  4.6019520452111192e-30 1.4850075660774982e-30 0.0000000000000000e+00  -3.1651225111572884e-29 -1.2746174230885480e-29 0.0000000000000000e+00  2.9945614830107578e-30 1.3447870638107082e-30 0.0000000000000000e+00  5.9699655989742696e-30 2.6453966443727369e-30 0.0000000000000000e+00  -1.7974393017212106e-30 -8.4263474007347348e-31 0.0000000000000000e+00  -8.7008999439234239e-31 -4.1570388467787665e-31 0.0000000000000000e+00  5.6965253044476725e-31 2.8847335109855932e-31 0.0000000000000000e+00  2.9020530669847589e-32 1.4160341223664207e-32 0.0000000000000000e+00  -1.2385499160855494e-31 -6.6991305434649865e-32 0.0000000000000000e+00  2.7969629259100359e-32 1.5814691026911131e-32 0.0000000000000000e+00  1.7633198781492813e-32 1.0137095420136267e-32 0.0000000000000000e+00  -1.1269642231673569e-32 -6.7347786016391524e-33 0.0000000000000000e+00  1.6508683371530749e-34 1.0296096064436591e-34 0.0000000000000000e+00  2.0166227194325313e-33 1.2899881580923980e-33 0.0000000000000000e+00  -7.6153309875562568e-34 -4.9742194572882747e-34 0.0000000000000000e+00  -1.0630535465387292e-34 -7.3782930736377838e-35 0.0000000000000000e+00  1.8235475739757572e-34 1.2657287907723915e-34 0.0000000000000000e+00  -5.1327788632075079e-35 -3.6233851272668973e-35 0.0000000000000000e+00  -1.1751035419102538e-35 -8.8146950082735045e-36 0.0000000000000000e+00  1.3391789160500487e-35 1.0052675557291617e-35 0.0000000000000000e+00  -3.5102950094427177e-36 -2.6481416284869087e-36 0.0000000000000000e+00  -8.0306543204222634e-37 -6.5638625258127945e-37 0.0000000000000000e+00  9.3034643695930847e-37 7.5078534717932953e-37 0.0000000000000000e+00  -2.7241088427895691e-37 -2.2052428722443262e-37 0.0000000000000000e+00  -3.0761030501381801e-38 -2.8184005575066420e-38 0.0000000000000000e+00  5.7610831684467899e-38 5.0061801447238684e-38 0.0000000000000000e+00  -2.2281720302253243e-38 -1.9364666683271735e-38 0.0000000000000000e+00  1.0062052906109827e-39 6.9364638671335167e-40 0.0000000000000000e+00  3.0086640761395216e-39 2.8180102702343622e-39 0.0000000000000000e+00  -1.6076401023358684e-39 -1.4951883651703682e-39 0.0000000000000000e+00  3.5723228120631871e-40 3.2831642084955042e-40 0.0000000000000000e+00  1.5595998271881293e-40 1.6117808272840212e-40 0.0000000000000000e+00  3.2986440446288417e-40 3.3526289609588030e-40 0.0000000000000000e+00  -9.1281574288491373e-40 -9.8298779819058809e-40 0.0000000000000000e+00  1.8213703633602051e-39 2.0075229795574232e-39 0.0000000000000000e+00  -1.2309645548349910e-38 -1.3635499026597442e-38 0.0000000000000000e+00  9.1626236661554770e-38 9.8331706635065819e-38 0.0000000000000000e+00  -2.2320202463850849e-37 -2.3498137285855720e-37 0.0000000000000000e+00  2.6818735799861589e-37 2.9362699808798423e-37 0.0000000000000000e+00  -3.8588947572413379e-36 -4.5316564247140084e-36 0.0000000000000000e+00  1.1556465199386428e-35 1.4414984190091710e-35 0.0000000000000000e+00  -4.8236783151416936e-35 -6.2873069310095718e-35 0.0000000000000000e+00  1.0685561555264818e-34 1.4193916414710042e-34 0.0000000000000000e+00  -2.0098404029538245e-34 -2.8905001405048786e-34 0.0000000000000000e+00  1.1259852078193348e-33 1.5444463656260025e-33 0.0000000000000000e+00  -7.0398754562733537e-34 -9.4802181413557018e-34 0.0000000000000000e+00  4.2066483584071352e-33 5.9423067154217333e-33 0.0000000000000000e+00  3.8578475653597154e-32 5.6718134543271491e-32 0.0000000000000000e+00  -1.7543731306475090e-31 -2.5779369708439590e-31 0.0000000000000000e+00  -5.1888942277421012e-31 -8.0215079254326776e-31 0.0000000000000000e+00  1.0482371775254084e-30 1.6333997861191698e-30 0.0000000000000000e+00  -2.4823156158411564e-31 -3.5397436572455668e-31 0.0000000000000000e+00  -3.0299647176462875e-30 -5.4124937643709474e-30 0.0000000000000000e+00  9.0368079567612894e-30 1.7178717155051799e-29 0.0000000000000000e+00  1.3279318327885950e-29 2.6497416804145476e-29 0.0000000000000000e+00  -8.5074603780641124e-29 -1.7155703742094194e-28 0.0000000000000000e+00  2.7410716107413366e-29 5.4202143036618867e-29 0.0000000000000000e+00  9.4663643371683598e-29 1.9481809308701414e-28 0.0000000000000000e+00  3.0099929421709791e-29 7.2724439602687542e-29 0.0000000000000000e+00  2.6621655360357027e-28 6.4928841207622144e-28 0.0000000000000000e+00  1.1618796415190136e-28 3.0435170355592155e-28 0.0000000000000000e+00  -3.0079616250486898e-28 -7.5939283207035127e-28 0.0000000000000000e+00  -3.8583527324169582e-28 -1.0849063925954010e-27 0.0000000000000000e+00  3.3795887969260852e-28 9.5412703330542803e-28 0.0000000000000000e+00  5.9642692339495946e-28 1.7918311831108056e-27 0.0000000000000000e+00  3.4895155718484902e-28 1.1714942690159600e-27 0.0000000000000000e+00  1.4125445948342388e-28 5.4311934825169076e-28 0.0000000000000000e+00  -6.8039395890984491e-28 -2.4440547257682886e-27 0.0000000000000000e+00  -2.0778588863016751e-28 -7.6725857607908089e-28 0.0000000000000000e+00  -7.3999572347295866e-29 -2.9840744168600671e-28 0.0000000000000000e+00  -3.2555317330057070e-28 -1.5069243544507564e-27 0.0000000000000000e+00  -2.7817002893588599e-28 -1.4070384084947424e-27 0.0000000000000000e+00  -3.2836381313612530e-28 -2.0196206370900305e-27 0.0000000000000000e+00  -7.3630235786951620e-29 -6.2579806361264462e-28 0.0000000000000000e+00  2.1181639990146164e-28 1.5047892524614818e-27 0.0000000000000000e+00  -1.3299301113181113e-29 -1.0942049733988059e-28 0.0000000000000000e+00  -1.8328092645735113e-28 -2.1874780018948542e-27 0.0000000000000000e+00  4.8300186103179040e-29 7.9021879293775982e-28 0.0000000000000000e+00  1.8057809396537317e-29 6.5508829961719977e-28 0.0000000000000000e+00  -2.6880385337168527e-29 -1.3841441463467329e-27 0.0000000000000000e+00  -2.6245345161687134e-30 -4.2162821353148121e-28 0.0000000000000000e+00  5.0193471957678975e-29 -1.5096793826129511e-27 0.0000000000000000e+00  -9.2351327892220723e-29 1.8156332861810003e-27 0.0000000000000000e+00  -1.2900306976128343e-28 1.6892533935151709e-27 0.0000000000000000e+00  1.4716534263837851e-28 -1.6265343482066402e-27 0.0000000000000000e+00  4.2695840908859759e-29 -3.2361331610538324e-28 0.0000000000000000e+00  2.6151459548933394e-28 -2.1730567544255028e-27 0.0000000000000000e+00  -1.4551489262256672e-28 1.3179171861806712e-27 0.0000000000000000e+00  -7.1535702826174421e-29 4.8860628730394950e-28 0.0000000000000000e+00  1.6507510256223781e-28 -8.6495155534961423e-28 0.0000000000000000e+00  6.5637446302890235e-29 -3.8546210203171875e-28 0.0000000000000000e+00  5.1815581687160419e-28 -2.6162359815105495e-27 0.0000000000000000e+00  7.1293329895793463e-28 -3.3297372072659024e-27 0.0000000000000000e+00  1.0561233996122043e-27 -4.4744280342054068e-27 0.0000000000000000e+00  3.2111901012380635e-28 -1.2063331860098332e-27 0.0000000000000000e+00  -3.3580529128215731e-28 1.2992263423020582e-27 0.0000000000000000e+00  -7.0086115267255890e-28 2.4200516779473791e-27 0.0000000000000000e+00  -8.1362414726794101e-28 2.6220264512188503e-27 0.0000000000000000e+00  -2.1307363938303140e-28 6.3189755764515993e-28 0.0000000000000000e+00  1.5899272331281067e-28 -4.7617166297977081e-28 0.0000000000000000e+00  1.5891830990988458e-28 -4.6838694653344342e-28 0.0000000000000000e+00  6.5764816960701990e-28 -1.7402238447737592e-27 0.0000000000000000e+00  2.7765145394112537e-28 -6.8684410679230400e-28 0.0000000000000000e+00  -2.3086134022937482e-28 5.6444368501572497e-28 0.0000000000000000e+00  -1.0881192490521249e-29 1.9644103302344100e-29 0.0000000000000000e+00  2.7380619385122838e-29 -6.2102822636505414e-29 0.0000000000000000e+00  6.5125741783632269e-29 -1.3819340774889109e-28 0.0000000000000000e+00  -1.3802061781755590e-29 2.8625341767580536e-29 0.0000000000000000e+00  -2.0301331797188130e-29 3.9614587882027049e-29 0.0000000000000000e+00  1.70