<?xml version="1.0"?>
<VTKFile type="UnstructuredGrid"  version="0.1"  >
<UnstructuredGrid>
<Piece  NumberOfPoints="11902" NumberOfCells="23402">
<Points>
<DataArray  type="Float64"  NumberOfComponents="3"  format="ascii">-5 -5 0  5 -5 0  5 5 0  -5 5 0  1.206999503540382 0.001319334619526854 0  -4.9 -5 0  -4.8 -5 0  -4.7 -5 0  -4.6 -5 0  -4.5 -5 0  -4.4 -5 0  -4.3 -5 0  -4.2 -5 0  -4.1 -5 0  -4 -5 0  -3.9 -5 0  -3.8 -5 0  -3.7 -5 0  -3.6 -5 0  -3.5 -5 0  -3.4 -5 0  -3.3 -5 0  -3.2 -5 0  -3.1 -5 0  -3 -5 0  -2.9 -5 0  -2.8 -5 0  -2.7 -5 0  -2.6 -5 0  -2.5 -5 0  -2.4 -5 0  -2.3 -5 0  -2.2 -5 0  -2.1 -5 0  -2 -5 0  -1.9 -5 0  -1.8 -5 0  -1.7 -5 0  -1.6 -5 0  -1.5 -5 0  -1.4 -5 0  -1.3 -5 0  -1.2 -5 0  -1.1 -5 0  -1 -5 0  -0.9000000000000004 -5 0  -0.7999999999999998 -5 0  -0.7000000000000002 -5 0  -0.5999999999999996 -5 0  -0.5 -5 0  -0.4000000000000004 -5 0  -0.2999999999999998 -5 0  -0.2000000000000002 -5 0  -0.09999999999999964 -5 0  0 -5 0  0.09999999999999964 -5 0  0.2000000000000002 -5 0  0.2999999999999998 -5 0  0.4000000000000004 -5 0  0.5 -5 0  0.5999999999999996 -5 0  0.7000000000000002 -5 0  0.7999999999999998 -5 0  0.9000000000000004 -5 0  1 -5 0  1.1 -5 0  1.2 -5 0  1.3 -5 0  1.4 -5 0  1.5 -5 0  1.6 -5 0  1.7 -5 0  1.8 -5 0  1.9 -5 0  2 -5 0  2.1 -5 0  2.2 -5 0  2.3 -5 0  2.4 -5 0  2.5 -5 0  2.6 -5 0  2.7 -5 0  2.8 -5 0  2.9 -5 0  3 -5 0  3.1 -5 0  3.199999999999999 -5 0  3.300000000000001 -5 0  3.4 -5 0  3.5 -5 0  3.6 -5 0  3.699999999999999 -5 0  3.800000000000001 -5 0  3.9 -5 0  4 -5 0  4.1 -5 0  4.199999999999999 -5 0  4.300000000000001 -5 0  4.4 -5 0  4.5 -5 0  4.6 -5 0  4.699999999999999 -5 0  4.800000000000001 -5 0  4.9 -5 0  5 -4.9 0  5 -4.8 0  5 -4.7 0  5 -4.6 0  5 -4.5 0  5 -4.4 0  5 -4.3 0  5 -4.2 0  5 -4.1 0  5 -4 0  5 -3.9 0  5 -3.8 0  5 -3.7 0  5 -3.6 0  5 -3.5 0  5 -3.4 0  5 -3.3 0  5 -3.2 0  5 -3.1 0  5 -3 0  5 -2.9 0  5 -2.8 0  5 -2.7 0  5 -2.6 0  5 -2.5 0  5 -2.4 0  5 -2.3 0  5 -2.2 0  5 -2.1 0  5 -2 0  5 -1.9 0  5 -1.8 0  5 -1.7 0  5 -1.6 0  5 -1.5 0  5 -1.4 0  5 -1.3 0  5 -1.2 0  5 -1.1 0  5 -1 0  5 -0.9000000000000004 0  5 -0.7999999999999998 0  5 -0.7000000000000002 0  5 -0.5999999999999996 0  5 -0.5 0  5 -0.4000000000000004 0  5 -0.2999999999999998 0  5 -0.2000000000000002 0  5 -0.09999999999999964 0  5 0 0  5 0.09999999999999964 0  5 0.2000000000000002 0  5 0.2999999999999998 0  5 0.4000000000000004 0  5 0.5 0  5 0.5999999999999996 0  5 0.7000000000000002 0  5 0.7999999999999998 0  5 0.9000000000000004 0  5 1 0  5 1.1 0  5 1.2 0  5 1.3 0  5 1.4 0  5 1.5 0  5 1.6 0  5 1.7 0  5 1.8 0  5 1.9 0  5 2 0  5 2.1 0  5 2.2 0  5 2.3 0  5 2.4 0  5 2.5 0  5 2.6 0  5 2.7 0  5 2.8 0  5 2.9 0  5 3 0  5 3.1 0  5 3.199999999999999 0  5 3.300000000000001 0  5 3.4 0  5 3.5 0  5 3.6 0  5 3.699999999999999 0  5 3.800000000000001 0  5 3.9 0  5 4 0  5 4.1 0  5 4.199999999999999 0  5 4.300000000000001 0  5 4.4 0  5 4.5 0  5 4.6 0  5 4.699999999999999 0  5 4.800000000000001 0  5 4.9 0  4.9 5 0  4.8 5 0  4.7 5 0  4.6 5 0  4.5 5 0  4.4 5 0  4.3 5 0  4.2 5 0  4.1 5 0  4 5 0  3.9 5 0  3.8 5 0  3.7 5 0  3.6 5 0  3.5 5 0  3.4 5 0  3.3 5 0  3.2 5 0  3.1 5 0  3 5 0  2.9 5 0  2.8 5 0  2.7 5 0  2.6 5 0  2.5 5 0  2.4 5 0  2.3 5 0  2.2 5 0  2.1 5 0  2 5 0  1.9 5 0  1.8 5 0  1.7 5 0  1.6 5 0  1.5 5 0  1.4 5 0  1.3 5 0  1.2 5 0  1.1 5 0  1 5 0  0.9000000000000004 5 0  0.7999999999999998 5 0  0.7000000000000002 5 0  0.5999999999999996 5 0  0.5 5 0  0.4000000000000004 5 0  0.2999999999999998 5 0  0.2000000000000002 5 0  0.09999999999999964 5 0  0 5 0  -0.09999999999999964 5 0  -0.2000000000000002 5 0  -0.2999999999999998 5 0  -0.4000000000000004 5 0  -0.5 5 0  -0.5999999999999996 5 0  -0.7000000000000002 5 0  -0.7999999999999998 5 0  -0.9000000000000004 5 0  -1 5 0  -1.1 5 0  -1.2 5 0  -1.3 5 0  -1.4 5 0  -1.5 5 0  -1.6 5 0  -1.7 5 0  -1.8 5 0  -1.9 5 0  -2 5 0  -2.1 5 0  -2.2 5 0  -2.3 5 0  -2.4 5 0  -2.5 5 0  -2.6 5 0  -2.7 5 0  -2.8 5 0  -2.9 5 0  -3 5 0  -3.1 5 0  -3.199999999999999 5 0  -3.300000000000001 5 0  -3.4 5 0  -3.5 5 0  -3.6 5 0  -3.699999999999999 5 0  -3.800000000000001 5 0  -3.9 5 0  -4 5 0  -4.1 5 0  -4.199999999999999 5 0  -4.300000000000001 5 0  -4.4 5 0  -4.5 5 0  -4.6 5 0  -4.699999999999999 5 0  -4.800000000000001 5 0  -4.9 5 0  -5 4.9 0  -5 4.8 0  -5 4.7 0  -5 4.6 0  -5 4.5 0  -5 4.4 0  -5 4.3 0  -5 4.2 0  -5 4.1 0  -5 4 0  -5 3.9 0  -5 3.8 0  -5 3.7 0  -5 3.6 0  -5 3.5 0  -5 3.4 0  -5 3.3 0  -5 3.2 0  -5 3.1 0  -5 3 0  -5 2.9 0  -5 2.8 0  -5 2.7 0  -5 2.6 0  -5 2.5 0  -5 2.4 0  -5 2.3 0  -5 2.2 0  -5 2.1 0  -5 2 0  -5 1.9 0  -5 1.8 0  -5 1.7 0  -5 1.6 0  -5 1.5 0  -5 1.4 0  -5 1.3 0  -5 1.2 0  -5 1.1 0  -5 1 0  -5 0.9000000000000004 0  -5 0.7999999999999998 0  -5 0.7000000000000002 0  -5 0.5999999999999996 0  -5 0.5 0  -5 0.4000000000000004 0  -5 0.2999999999999998 0  -5 0.2000000000000002 0  -5 0.09999999999999964 0  -5 0 0  -5 -0.09999999999999964 0  -5 -0.2000000000000002 0  -5 -0.2999999999999998 0  -5 -0.4000000000000004 0  -5 -0.5 0  -5 -0.5999999999999996 0  -5 -0.7000000000000002 0  -5 -0.7999999999999998 0  -5 -0.9000000000000004 0  -5 -1 0  -5 -1.1 0  -5 -1.2 0  -5 -1.3 0  -5 -1.4 0  -5 -1.5 0  -5 -1.6 0  -5 -1.7 0  -5 -1.8 0  -5 -1.9 0  -5 -2 0  -5 -2.1 0  -5 -2.2 0  -5 -2.3 0  -5 -2.4 0  -5 -2.5 0  -5 -2.6 0  -5 -2.7 0  -5 -2.8 0  -5 -2.9 0  -5 -3 0  -5 -3.1 0  -5 -3.199999999999999 0  -5 -3.300000000000001 0  -5 -3.4 0  -5 -3.5 0  -5 -3.6 0  -5 -3.699999999999999 0  -5 -3.800000000000001 0  -5 -3.9 0  -5 -4 0  -5 -4.1 0  -5 -4.199999999999999 0  -5 -4.300000000000001 0  -5 -4.4 0  -5 -4.5 0  -5 -4.6 0  -5 -4.699999999999999 0  -5 -4.800000000000001 0  -5 -4.9 0  1.200905203498507 0.09879193827108235 0  1.18191184165296 0.1967650983643795 0  1.150247095379804 0.2939003114224163 0  1.109347694973043 0.3851280342756815 0  1.056057881665261 0.4757437999268759 0  0.9934442745937359 0.5607782695509662 0  0.91979669758435 0.6405500591883716 0  0.8369364738770733 0.7134309532257517 0  0.7471004079829809 0.7790230428720446 0  0.6488351043602524 0.8374417730979051 0  0.5434082826679525 0.8884972470558538 0  0.4340576259030304 0.930551246166656 0  0.3224653845487506 0.9633995395141957 0  0.2048821092371873 0.9857551425240411 0  0.08879279020618082 1.000808037287457 0  -0.02772124055125772 1.003619399487229 0  -0.1444976233037554 0.9934658917044128 0  -0.2632907846249082 0.9756698058156957 0  -0.378446294887293 0.9496666613153456 0  -0.488201126870646 0.9131888367098563 0  -0.59340183433394 0.8675042749467634 0  -0.6934651837500001 0.8128007630492938 0  -0.7862818503614873 0.7497085703018551 0  -0.8728269752675405 0.6789419206931762 0  -0.9522095807663514 0.600743836341232 0  -1.021080902394778 0.5184826784884549 0  -1.080287480812454 0.4316998612656381 0  -1.128203074564915 0.3397275482938096 0  -1.164084542681193 0.2459797886344326 0  -1.18812284969984 0.1497027868178566 0  -1.20027780300325 0.05075132633220466 0  -1.200264565653056 -0.04891273713684433 0  -1.188034358191421 -0.1474993205016074 0  -1.164762643558939 -0.2437527315029946 0  -1.127549528986176 -0.3394186242616705 0  -1.080627460975134 -0.4305594123675112 0  -1.022126259201048 -0.5176364793826281 0  -0.9538426412504349 -0.5994265638646187 0  -0.8748438580228626 -0.6764129939188569 0  -0.78797061948034 -0.746074866285577 0  -0.6937526745748661 -0.8072917826360846 0  -0.5935259169874338 -0.8615140961746928 0  -0.4852622057760647 -0.9086396082768895 0  -0.3748184725786975 -0.9468015995087906 0  -0.2603042101766522 -0.9744177531163951 0  -0.1431057818806112 -0.9926171683323295 0  -0.02744527083638527 -1.002713012551106 0  0.08938588280304391 -0.9980020671658438 0  0.2080255558693092 -0.9833538519975819 0  0.3242169116758905 -0.9617283028551608 0  0.4375952967623377 -0.9291291899562253 0  0.5451867254423324 -0.8875506400274 0  0.6495903413377959 -0.8371124120721012 0  0.747251107135888 -0.7800563037770661 0  0.8369879743766183 -0.7141924989693041 0  0.9192753218620824 -0.6400245714375963 0  0.9918942041052755 -0.5601335572769821 0  1.055886888907591 -0.4751418669891944 0  1.110359654490017 -0.3851840739187087 0  1.151718999265045 -0.2923451669824949 0  1.18220969741072 -0.1959104871944974 0  1.200938920448252 -0.09832378393955683 0  -2.448749674097102 4.918460190067763 0  -2.448641015414729 -4.910869968858839 0  4.91080279655144 2.448162295890348 0  4.918894172641163 -2.449599598681979 0  2.446404066111989 -4.896166735522224 0  2.440829925794146 4.899915385720681 0  -4.910826869028711 -2.4481858694591 0  -4.91082497123644 2.448189752905261 0  -1.748711242383576 4.91150221898868 0  -1.744489636981423 -4.914924174659104 0  4.921080802198254 1.744311933036808 0  4.90967747051931 -1.74810845576973 0  -4.909965898429142 -1.74783869250123 0  -4.910784441298125 1.747580718811534 0  1.745996351411931 4.90539559694098 0  1.747434245813316 -4.893603586557754 0  -1.148982671863974 4.909390143440293 0  -1.129824354526956 -4.917257037041969 0  -4.90981389828215 -1.148119058734099 0  -4.909634202861145 1.147919255110788 0  1.143968040166052 -4.913465013152031 0  1.148990624048844 4.90937833971117 0  4.909959058246546 1.146395978855594 0  4.920714665058224 -1.152155702695795 0  -0.5467429542457276 -4.910630998083559 0  -0.5465172300615452 4.919258821575641 0  -4.908651441371202 -0.5488148823832583 0  -4.908675784060765 0.5473713967717773 0  4.907982835084189 -0.5491351733335705 0  4.919549024551151 0.5458780915599313 0  0.5425319487379359 -4.897598216848595 0  0.5512474513725008 4.916102990591293 0  -4.9121323279399 -3.048498074419377 0  4.918687532587204 3.046500898440126 0  4.911642746663206 -3.048476988028342 0  -4.912978971699917 3.045587922790335 0  3.055455969667247 -4.917621973842224 0  -3.048798049127383 -4.911574264946458 0  3.052361853377952 4.913647343426024 0  -3.048242995558926 4.912461690540296 0  -4.907798818552955 -0.04991830690485934 0  0.04512466335604448 -4.912586377991256 0  0.04957240959621704 4.919566599505712 0  4.914803643361392 -0.05129975023785487 0  3.545741197348528 -4.919193868439389 0  -3.549032851627211 4.912106794
[...]
<PointData  Vectors="f_2534"> 
<DataArray  type="Float64"  Name="f_2534"  NumberOfComponents="3" format="ascii">-1.2088525138392032e-40 -1.3737076257890190e-40 0.0000000000000000e+00  1.4501017702113722e-40 -1.5874501202095231e-40 0.0000000000000000e+00  -2.0491737226085264e-40 -2.0021630174368427e-40 0.0000000000000000e+00  -2.3858973946802040e-40 2.4209859832166964e-40 0.0000000000000000e+00  1.5841436316190336e+01 -1.7464930369165210e-01 0.0000000000000000e+00  2.8328069728487242e-40 3.0605287819137285e-40 0.0000000000000000e+00  7.2380934381072803e-40 7.4229782530811498e-40 0.0000000000000000e+00  -1.6475185487537873e-39 -1.8381418554948323e-39 0.0000000000000000e+00  1.5600177984636257e-38 1.7821452838204704e-38 0.0000000000000000e+00  -5.0848484313458901e-38 -5.7664608267923109e-38 0.0000000000000000e+00  1.8776579296563386e-37 2.2824202964247107e-37 0.0000000000000000e+00  -6.7380588998228452e-37 -8.5556401634135533e-37 0.0000000000000000e+00  4.0019515133019941e-36 5.1120988816111637e-36 0.0000000000000000e+00  -2.4996070642298671e-35 -3.1325764018397339e-35 0.0000000000000000e+00  1.0233257880598587e-34 1.3066420839628827e-34 0.0000000000000000e+00  -2.2433249104090392e-34 -2.8536545134738441e-34 0.0000000000000000e+00  4.5246818534975122e-34 5.6459824303020010e-34 0.0000000000000000e+00  1.6533450164842855e-33 2.1112188230503494e-33 0.0000000000000000e+00  -7.1959618265694801e-33 -9.7741379230683320e-33 0.0000000000000000e+00  1.9945252241894310e-32 2.9086355204186315e-32 0.0000000000000000e+00  -1.1580689869853677e-31 -1.6820103725794613e-31 0.0000000000000000e+00  3.0636502413900708e-31 4.4759184329303595e-31 0.0000000000000000e+00  1.9287724499936244e-31 2.7556118991175958e-31 0.0000000000000000e+00  -1.5728470721324933e-30 -2.2867188497862344e-30 0.0000000000000000e+00  -6.4214208233351295e-31 -1.1684210095803249e-30 0.0000000000000000e+00  -1.4506749910634892e-30 -2.7208278211266606e-30 0.0000000000000000e+00  4.3106533591571046e-30 7.9770752577946428e-30 0.0000000000000000e+00  -9.7418720536099344e-30 -2.4035373103245750e-29 0.0000000000000000e+00  3.4985123341809020e-29 7.5909525659993088e-29 0.0000000000000000e+00  2.0062308457175675e-29 4.6700952479754972e-29 0.0000000000000000e+00  -1.7525284424510101e-28 -3.8694936541495687e-28 0.0000000000000000e+00  -6.3483168569862777e-29 -1.5463362458260140e-28 0.0000000000000000e+00  -1.0663613080380460e-28 -3.0957047835310852e-28 0.0000000000000000e+00  1.7640849441991625e-28 4.6225626169052372e-28 0.0000000000000000e+00  5.0781194390600226e-28 1.4561812657994241e-27 0.0000000000000000e+00  -1.3139659748969540e-29 -9.8708666762308630e-29 0.0000000000000000e+00  1.5256734489278412e-28 4.1564174838402720e-28 0.0000000000000000e+00  -8.2382592423962399e-29 -2.6630624316493837e-28 0.0000000000000000e+00  -4.7654056215744143e-28 -1.4659379764138952e-27 0.0000000000000000e+00  -4.4170366293802349e-28 -1.4397376706653683e-27 0.0000000000000000e+00  -1.1815203385334067e-29 -1.1981099507817210e-28 0.0000000000000000e+00  4.5690191752480070e-28 1.7078018759272280e-27 0.0000000000000000e+00  2.7346694914611674e-28 1.0217182977715882e-27 0.0000000000000000e+00  -9.0047692929797557e-30 -1.6448508385849192e-28 0.0000000000000000e+00  1.1443002316785254e-28 4.1451779893631209e-28 0.0000000000000000e+00  -1.1427880152598471e-29 1.0221124169962950e-27 0.0000000000000000e+00  1.1336431962601599e-28 1.7299269095972450e-27 0.0000000000000000e+00  -1.6259887902025905e-29 -1.0227907359915080e-27 0.0000000000000000e+00  4.0527427907259703e-28 5.5318368685695522e-27 0.0000000000000000e+00  -1.3850470147719488e-28 -1.0460338635301292e-29 0.0000000000000000e+00  -4.9579949832850968e-28 -4.7284245519461302e-27 0.0000000000000000e+00  -3.6247380878023765e-28 -2.7036807366763144e-27 0.0000000000000000e+00  -2.7365037223274030e-28 -3.9018777107256237e-27 0.0000000000000000e+00  -1.3003235980438925e-28 -9.9598302815634839e-27 0.0000000000000000e+00  2.9145591223066746e-29 -1.1415795095142826e-26 0.0000000000000000e+00  -1.2229781166587446e-29 -1.9592063575391870e-27 0.0000000000000000e+00  7.5443442800031806e-29 -6.1447949855566977e-27 0.0000000000000000e+00  8.2897084466641581e-29 -2.1594959212033120e-27 0.0000000000000000e+00  2.4573868061327855e-28 -3.9442046793861408e-27 0.0000000000000000e+00  -1.5427302740312085e-28 1.8847422124208228e-27 0.0000000000000000e+00  5.4943363807159660e-28 -5.2580176786171035e-27 0.0000000000000000e+00  6.6800747877781280e-28 -4.7835342383241722e-27 0.0000000000000000e+00  -9.0112289881210289e-29 1.0401669828959314e-27 0.0000000000000000e+00  -1.0743853141038249e-27 7.2518303041169673e-27 0.0000000000000000e+00  -5.0627821262313313e-28 2.8847966412825956e-27 0.0000000000000000e+00  -3.5936423647687870e-28 1.6279834939463817e-27 0.0000000000000000e+00  -8.7590058344007823e-28 4.1589288585715284e-27 0.0000000000000000e+00  -5.1439024329077188e-28 2.2013073315896324e-27 0.0000000000000000e+00  5.6538854213521990e-28 -2.5203982646653805e-27 0.0000000000000000e+00  3.2943040234796730e-28 -1.1841163718378768e-27 0.0000000000000000e+00  7.0374679966330393e-29 -2.1190196893350317e-28 0.0000000000000000e+00  3.1002417483781032e-28 -8.8540324307995067e-28 0.0000000000000000e+00  2.3101576531836623e-28 -6.9390211137112251e-28 0.0000000000000000e+00  -1.9907418517177556e-28 5.9337394998126861e-28 0.0000000000000000e+00  -1.3255344560136017e-28 3.7529742489717673e-28 0.0000000000000000e+00  -1.0258484937759207e-28 2.7598271600753385e-28 0.0000000000000000e+00  1.8185137327628902e-29 -5.5406592111988915e-29 0.0000000000000000e+00  7.1846290791237013e-29 -1.7932898310692200e-28 0.0000000000000000e+00  1.0410560720809307e-28 -2.4268893792465713e-28 0.0000000000000000e+00  -6.9014139920510242e-30 1.3678984504949689e-29 0.0000000000000000e+00  -7.7432934233935596e-29 1.6478760399424834e-28 0.0000000000000000e+00  1.2620243975626760e-29 -2.6728453075320917e-29 0.0000000000000000e+00  4.3332995528186241e-30 -8.5569973133655929e-30 0.0000000000000000e+00  -1.2514367401855194e-29 2.2581045501730613e-29 0.0000000000000000e+00  -1.1064696340938643e-30 1.5618529520750073e-30 0.0000000000000000e+00  1.4822877940290264e-30 -2.3870810769352059e-30 0.0000000000000000e+00  -7.4596915906476104e-31 1.1732713217707472e-30 0.0000000000000000e+00  9.8990316949236588e-32 -1.5683604177476079e-31 0.0000000000000000e+00  -1.1258500973400445e-32 1.7428224255336000e-32 0.0000000000000000e+00  -1.3343921024952068e-33 1.7860416658393904e-33 0.0000000000000000e+00  6.3729131402084680e-33 -8.4653762345877073e-33 0.0000000000000000e+00  1.9710172408077884e-34 -1.9979648740558677e-34 0.0000000000000000e+00  -3.5151651006511097e-34 4.3829191463311122e-34 0.0000000000000000e+00  3.6574528861583558e-35 -4.3123726999666541e-35 0.0000000000000000e+00  -1.3411888382958765e-35 1.6986973882059935e-35 0.0000000000000000e+00  3.6561435619031111e-36 -4.4010974311885993e-36 0.0000000000000000e+00  -1.5422191958518348e-36 1.7213444267531404e-36 0.0000000000000000e+00  4.7812802277402367e-37 -5.4404200838997821e-37 0.0000000000000000e+00  -2.3744885005816044e-37 2.5972559630743678e-37 0.0000000000000000e+00  7.9277430038856813e-38 -8.4806629488586056e-38 0.0000000000000000e+00  -1.5419008232423586e-38 1.6594453785462208e-38 0.0000000000000000e+00  6.1658401260705918e-39 -6.4247676604974611e-39 0.0000000000000000e+00  -4.2506712776645462e-40 4.1266685724604759e-40 0.0000000000000000e+00  -2.5241632642961844e-40 2.7579340870984398e-40 0.0000000000000000e+00  -2.5022479571003411e-42 3.3780736607948349e-42 0.0000000000000000e+00  3.7533920185634282e-40 -3.3364475763336257e-40 0.0000000000000000e+00  -8.5318075284565692e-40 7.4364207656192322e-40 0.0000000000000000e+00  2.9570219712349320e-39 -2.7039901137184109e-39 0.0000000000000000e+00  -1.4379886276921567e-39 1.5793045088463702e-39 0.0000000000000000e+00  -1.4745618569551142e-38 1.2102828756668767e-38 0.0000000000000000e+00  5.4370472467362340e-38 -4.5974118866865303e-38 0.0000000000000000e+00  -6.8987092129584464e-38 6.0632730951466872e-38 0.0000000000000000e+00  -1.4446049993861969e-37 1.0782423718908050e-37 0.0000000000000000e+00  8.5437314272099520e-37 -6.7234066977423355e-37 0.0000000000000000e+00  -1.4273791465336996e-36 1.1465320650151254e-36 0.0000000000000000e+00  -1.4192879388534592e-36 9.6294454831625704e-37 0.0000000000000000e+00  1.1890518595739079e-35 -8.7752107594954788e-36 0.0000000000000000e+00  -2.2265571439759460e-35 1.6543073743188522e-35 0.0000000000000000e+00  -1.8203614946209449e-35 1.1855653359814629e-35 0.0000000000000000e+00  1.7219272326062586e-34 -1.1908935787145526e-34 0.0000000000000000e+00  -2.6859571497330131e-34 1.8646087850880860e-34 0.0000000000000000e+00  -3.8852957000114409e-34 2.4958168105753113e-34 0.0000000000000000e+00  2.3213806353861757e-33 -1.4987209647459715e-33 0.0000000000000000e+00  -2.2193160768978405e-33 1.4272850858356303e-33 0.0000000000000000e+00  -8.5505032161365356e-33 5.2026614765651160e-33 0.0000000000000000e+00  2.6433839497276138e-32 -1.5848841400854694e-32 0.0000000000000000e+00  3.3129595655177552e-33 -1.7559726455907524e-33 0.0000000000000000e+00  -1.4537377044780937e-31 8.1723821442421567e-32 0.0000000000000000e+00  1.8798905482488754e-31 -1.0164254455983130e-31 0.0000000000000000e+00  4.9292850216381827e-31 -2.6125113405391317e-31 0.0000000000000000e+00  -1.4356918361709715e-30 7.2670927997001223e-31 0.0000000000000000e+00  -8.7856185372300121e-31 4.5671117744186663e-31 0.0000000000000000e+00  7.7511621788893826e-30 -3.6646056824136440e-30 0.0000000000000000e+00  -2.1432581810221163e-30 7.6963322842291751e-31 0.0000000000000000e+00  -3.4521043607031265e-29 1.5216638661707980e-29 0.0000000000000000e+00  2.8117583943947844e-29 -1.0365911593437146e-29 0.0000000000000000e+00  1.4169155050989945e-28 -5.8367717313547337e-29 0.0000000000000000e+00  -1.5952619023867972e-28 5.2626241330691105e-29 0.0000000000000000e+00  -5.9405555415731971e-28 2.2514274148724893e-28 0.0000000000000000e+00  6.2953038341692938e-28 -1.7235889881901994e-28 0.0000000000000000e+00  2.4842053856127341e-27 -8.4392605686776159e-28 0.0000000000000000e+00  -1.8977935355252522e-27 3.4255558591145224e-28 0.0000000000000000e+00  -9.5997371679038155e-27 2.6401244743402265e-27 0.0000000000000000e+00  2.6068368126131832e-27 2.9968830608903639e-28 0.0000000000000000e+00  3.0282030480299700e-26 -6.2232663462435099e-27 0.0000000000000000e+00  1.4824849919512973e-26 -4.7529890839963054e-27 0.0000000000000000e+00  -8.5067378524431065e-26 1.2034430350770742e-26 0.0000000000000000e+00  -1.2890161323785148e-25 1.8295896157919400e-26 0.0000000000000000e+00  1.4284937888339005e-25 -2.4585610454325541e-26 0.0000000000000000e+00  8.3133734759453021e-25 -1.1477092461162470e-25 0.0000000000000000e+00  1.5085740888939361e-24 -1.7887272047512525e-25 0.0000000000000000e+00  1.8276549229898708e-24 -1.7109835849119615e-25 0.0000000000000000e+00  1.7748178007353881e-24 -9.2576422410234708e-26 0.0000000000000000e+00  1.7840020511586751e-24 9.9577563279997019e-27 0.0000000000000000e+00  1.9034982659491224e-24 1.0519313541043400e-25 0.0000000000000000e+00  1.7655232062203538e-24 1.5110957449595360e-25 0.0000000000000000e+00  1.1637725471493911e-24 1.2188878805090507e-25 0.0000000000000000e+00  3.5697181377985053e-25 4.0801249839674196e-26 0.0000000000000000e+00  -1.4142722074459966e-25 -2.2464832753669854e-26 0.0000000000000000e+00  -1.9693563791781044e-25 -3.0254519533490252e-26 0.0000000000000000e+00  -3.4929831592825719e-26 -2.5990554991778904e-27 0.0000000000000000e+00  5.6601492772955263e-26 1.3996941761458359e-26 0.0000000000000000e+00  3.4683230820496693e-26 8.1641001598328528e-27 0.0000000000000000e+00  -4.6532726459440268e-27 -1.4738584700759161e-27 0.0000000000000000e+00  -9.9163058798126810e-27 -2.7377861306839350e-27 0.0000000000000000e+00  -5.5791307855641401e-28 -8.9657432912028151e-29 0.0000000000000000e+00  2.5183972843692830e-27 7.9737079783122477e-28 0.0000000000000000e+00  3.1676924582337255e-28 9.0531204758932718e-29 0.0000000000000000e+00  -6.0530685454683998e-28 -2.1248291146400913e-28 0.0000000000000000e+00  -7.0770601361300538e-29 -2.2752697363875128e-29 0.0000000000000000e+00  1.4076091756242744e-28 5.4260358758883500e-29 0.0000000000000000e+00  3.5638278915332669e-30 6.3034330574423354e-31 0.0000000000000000e+00  -3.1186279410500082e-29 -1.3044621954813332e-29 0.0000000000000000e+00  3.1215360820757486e-30 1.5768343060125745e-30 0.0000000000000000e+00  5.8493227956538729e-30 2.6454653699129896e-30 0.0000000000000000e+00  -1.7885159552623796e-30 -8.9162369378420595e-31 0.0000000000000000e+00  -8.4633507701473876e-31 -4.0380083736121164e-31 0.0000000000000000e+00  5.5950720196082290e-31 2.9436618651062471e-31 0.0000000000000000e+00  2.7061467011975269e-32 1.0117789209926279e-32 0.0000000000000000e+00  -1.2063119272865450e-31 -6.6871755950988716e-32 0.0000000000000000e+00  2.7311246924169507e-32 1.6510163553565313e-32 0.0000000000000000e+00  1.7066771268263894e-32 9.8455281370165704e-33 0.0000000000000000e+00  -1.0908768334181739e-32 -6.7343302322536834e-33 0.0000000000000000e+00  1.6487232651883500e-34 1.5594863641234876e-34 0.0000000000000000e+00  1.9416679397385741e-33 1.2618406888667257e-33 0.0000000000000000e+00  -7.3294666839159615e-34 -4.9455915479420717e-34 0.0000000000000000e+00  -1.0115878459581595e-34 -6.8764618119584763e-35 0.0000000000000000e+00  1.7449045550303208e-34 1.2326648022189002e-34 0.0000000000000000e+00  -4.9289446991846061e-35 -3.5646072533693988e-35 0.0000000000000000e+00  -1.1046188950920232e-35 -8.3620327334204610e-36 0.0000000000000000e+00  1.2735866540693223e-35 9.7074539375207218e-36 0.0000000000000000e+00  -3.3692619413379713e-36 -2.5754410440121246e-36 0.0000000000000000e+00  -7.4165932656396320e-37 -6.1994050129138329e-37 0.0000000000000000e+00  8.7836722246407995e-37 7.1817065428247616e-37 0.0000000000000000e+00  -2.6061448906583898e-37 -2.1172679056414298e-37 0.0000000000000000e+00  -2.6844242881384629e-38 -2.6198950879596680e-38 0.0000000000000000e+00  5.3784357886044460e-38 4.7413007275885421e-38 0.0000000000000000e+00  -2.1127563647160094e-38 -1.8382283097685208e-38 0.0000000000000000e+00  1.1321969895389443e-39 6.9592423327249208e-40 0.0000000000000000e+00  2.7541656495767878e-39 2.6422276114139050e-39 0.0000000000000000e+00  -1.5035642952482403e-39 -1.4052758901138044e-39 0.0000000000000000e+00  3.4289387013586033e-40 3.0983402610490716e-40 0.0000000000000000e+00  1.3745257923847820e-40 1.4948101782860840e-40 0.0000000000000000e+00  3.1625608069602392e-40 3.1350726539597951e-40 0.0000000000000000e+00  -8.3600411873252913e-40 -9.1392750219352489e-40 0.0000000000000000e+00  1.6841595544856568e-39 1.8766544992695227e-39 0.0000000000000000e+00  -1.1320246996980162e-38 -1.2751752174101137e-38 0.0000000000000000e+00  8.6813659811368082e-38 9.2308938015587067e-38 0.0000000000000000e+00  -2.1854127893583196e-37 -2.2326798649031130e-37 0.0000000000000000e+00  2.6767340260909130e-37 2.8471147933447297e-37 0.0000000000000000e+00  -3.6819501551300098e-36 -4.2922218447445417e-36 0.0000000000000000e+00  1.0628124528174525e-35 1.3555590323114219e-35 0.0000000000000000e+00  -4.3121360707576846e-35 -5.8513609887742704e-35 0.0000000000000000e+00  9.5422451488405246e-35 1.3041059378093849e-34 0.0000000000000000e+00  -1.6629381012248583e-34 -2.5289276246256540e-34 0.0000000000000000e+00  9.8720177849244794e-34 1.3797871678374850e-33 0.0000000000000000e+00  -4.9399340664242026e-34 -6.8147140662404771e-34 0.0000000000000000e+00  3.3823813751430749e-33 5.0981829627618764e-33 0.0000000000000000e+00  3.6610189981033096e-32 5.2525802674029915e-32 0.0000000000000000e+00  -1.6166800829092313e-31 -2.3473324441800253e-31 0.0000000000000000e+00  -5.0497159856648874e-31 -7.5865897438434863e-31 0.0000000000000000e+00  1.0573413944863175e-30 1.5919855323217038e-30 0.0000000000000000e+00  -3.4920335121624491e-31 -4.9061601027156121e-31 0.0000000000000000e+00  -2.9195920029464586e-30 -5.3558314092884985e-30 0.0000000000000000e+00  8.8107026543925281e-30 1.7864330658613369e-29 0.0000000000000000e+00  1.2545626372562939e-29 2.6164061185748453e-29 0.0000000000000000e+00  -7.9137509629486499e-29 -1.6858251408488788e-28 0.0000000000000000e+00  2.5193859243826840e-29 5.1445753355889715e-29 0.0000000000000000e+00  9.1124499343400472e-29 1.8702930859091666e-28 0.0000000000000000e+00  2.5882179903422809e-29 7.2923365657947191e-29 0.0000000000000000e+00  2.3163605276200002e-28 6.2946243293341854e-28 0.0000000000000000e+00  1.0261583034479094e-28 2.8973521053749568e-28 0.0000000000000000e+00  -2.4694884126593765e-28 -6.9731620230752443e-28 0.0000000000000000e+00  -3.7596109559510135e-28 -1.1120524430446181e-27 0.0000000000000000e+00  3.0245940794641656e-28 9.4169527989066613e-28 0.0000000000000000e+00  5.1894949708386778e-28 1.7325913321285829e-27 0.0000000000000000e+00  3.3236954549707752e-28 1.1857919747431848e-27 0.0000000000000000e+00  1.7495222927428958e-28 6.0407422339161925e-28 0.0000000000000000e+00  -5.9651249997345244e-28 -2.3839929823857366e-27 0.0000000000000000e+00  -1.5258904651804420e-28 -6.9192208386605513e-28 0.0000000000000000e+00  -4.1035209292492788e-29 -2.4734775360101621e-28 0.0000000000000000e+00  -2.8454356310138012e-28 -1.4602063380867183e-27 0.0000000000000000e+00  -2.4135362354974485e-28 -1.3595345047365004e-27 0.0000000000000000e+00  -3.4260749641702437e-28 -2.1077855181715952e-27 0.0000000000000000e+00  -1.3275891534465594e-28 -7.9039673998348883e-28 0.0000000000000000e+00  1.3992576526260370e-28 1.3073819658757102e-27 0.0000000000000000e+00  -4.5298979613091865e-29 -2.3406360427027764e-28 0.0000000000000000e+00  -1.5304712417948504e-28 -2.1420809605062660e-27 0.0000000000000000e+00  3.6447988379989836e-30 6.1989248355857802e-28 0.0000000000000000e+00  -1.4402930023401077e-29 4.8456513866809127e-28 0.0000000000000000e+00  -9.7353785142494127e-30 -1.4313434761105952e-27 0.0000000000000000e+00  2.0530275172226876e-31 -5.2314313838300679e-28 0.0000000000000000e+00  8.5025734699653864e-29 -1.5691725254778884e-27 0.0000000000000000e+00  -1.2192225295713494e-28 1.6244630962783251e-27 0.0000000000000000e+00  -1.4284746231157108e-28 1.5096827945988343e-27 0.0000000000000000e+00  2.0061577734242550e-28 -1.6598926292045017e-27 0.0000000000000000e+00  8.0958850919577939e-29 -4.0253451935156785e-28 0.0000000000000000e+00  2.8534401591852235e-28 -2.1380051416178695e-27 0.0000000000000000e+00  -6.8209338722668558e-29 1.1252677096575107e-27 0.0000000000000000e+00  -1.7146003693878409e-29 3.5965205875624956e-28 0.0000000000000000e+00  2.4147280953418842e-28 -9.6969206402895626e-28 0.0000000000000000e+00  1.2036703598784986e-28 -4.7527117229962936e-28 0.0000000000000000e+00  4.9813899277212897e-28 -2.5694769820110138e-27 0.0000000000000000e+00  7.1653786358825068e-28 -3.3596717558961823e-27 0.0000000000000000e+00  9.8404987640283931e-28 -4.4330407497745831e-27 0.0000000000000000e+00  2.8306164711167819e-28 -1.1740139947520992e-27 0.0000000000000000e+00  -3.4825254660699573e-28 1.3577486781880484e-27 0.0000000000000000e+00  -6.4212314355688459e-28 2.4053658471317544e-27 0.0000000000000000e+00  -7.3225144923530723e-28 2.5883898703441831e-27 0.0000000000000000e+00  -1.7932654518776990e-28 6.0406017227978570e-28 0.0000000000000000e+00  1.5578821283048167e-28 -4.9573583757250707e-28 0.0000000000000000e+00  1.3428377337352556e-28 -4.4443737147890708e-28 0.0000000000000000e+00  5.5928073489128714e-28 -1.6668901812053758e-27 0.0000000000000000e+00  2.3956054341548204e-28 -6.6245829129720961e-28 0.0000000000000000e+00  -2.0031460668821861e-28 5.4927670961443506e-28 0.0000000000000000e+00  -1.0861094864055946e-29 1.4916864767220466e-29 0.0000000000000000e+00  2.4963798145267281e-29 -5.9688023326967767e-29 0.0000000000000000e+00  5.7642097779278513e-29 -1.3184016006962296e-28 0.0000000000000000e+00  -1.2541966315286089e-29 2.7469806553017996e-29 0.0000000000000000e+00  -1.8482742948723606e-29 3.8452357667576306e-29 0.0000000000000000e+00  1.399