<?xml version="1.0"?>
<VTKFile type="UnstructuredGrid"  version="0.1"  >
<UnstructuredGrid>
<Piece  NumberOfPoints="11902" NumberOfCells="23402">
<Points>
<DataArray  type="Float64"  NumberOfComponents="3"  format="ascii">-5 -5 0  5 -5 0  5 5 0  -5 5 0  1.211414245166217 0.001335550656508288 0  -4.9 -5 0  -4.8 -5 0  -4.7 -5 0  -4.6 -5 0  -4.5 -5 0  -4.4 -5 0  -4.3 -5 0  -4.2 -5 0  -4.1 -5 0  -4 -5 0  -3.9 -5 0  -3.8 -5 0  -3.7 -5 0  -3.6 -5 0  -3.5 -5 0  -3.4 -5 0  -3.3 -5 0  -3.2 -5 0  -3.1 -5 0  -3 -5 0  -2.9 -5 0  -2.8 -5 0  -2.7 -5 0  -2.6 -5 0  -2.5 -5 0  -2.4 -5 0  -2.3 -5 0  -2.2 -5 0  -2.1 -5 0  -2 -5 0  -1.9 -5 0  -1.8 -5 0  -1.7 -5 0  -1.6 -5 0  -1.5 -5 0  -1.4 -5 0  -1.3 -5 0  -1.2 -5 0  -1.1 -5 0  -1 -5 0  -0.9000000000000004 -5 0  -0.7999999999999998 -5 0  -0.7000000000000002 -5 0  -0.5999999999999996 -5 0  -0.5 -5 0  -0.4000000000000004 -5 0  -0.2999999999999998 -5 0  -0.2000000000000002 -5 0  -0.09999999999999964 -5 0  0 -5 0  0.09999999999999964 -5 0  0.2000000000000002 -5 0  0.2999999999999998 -5 0  0.4000000000000004 -5 0  0.5 -5 0  0.5999999999999996 -5 0  0.7000000000000002 -5 0  0.7999999999999998 -5 0  0.9000000000000004 -5 0  1 -5 0  1.1 -5 0  1.2 -5 0  1.3 -5 0  1.4 -5 0  1.5 -5 0  1.6 -5 0  1.7 -5 0  1.8 -5 0  1.9 -5 0  2 -5 0  2.1 -5 0  2.2 -5 0  2.3 -5 0  2.4 -5 0  2.5 -5 0  2.6 -5 0  2.7 -5 0  2.8 -5 0  2.9 -5 0  3 -5 0  3.1 -5 0  3.199999999999999 -5 0  3.300000000000001 -5 0  3.4 -5 0  3.5 -5 0  3.6 -5 0  3.699999999999999 -5 0  3.800000000000001 -5 0  3.9 -5 0  4 -5 0  4.1 -5 0  4.199999999999999 -5 0  4.300000000000001 -5 0  4.4 -5 0  4.5 -5 0  4.6 -5 0  4.699999999999999 -5 0  4.800000000000001 -5 0  4.9 -5 0  5 -4.9 0  5 -4.8 0  5 -4.7 0  5 -4.6 0  5 -4.5 0  5 -4.4 0  5 -4.3 0  5 -4.2 0  5 -4.1 0  5 -4 0  5 -3.9 0  5 -3.8 0  5 -3.7 0  5 -3.6 0  5 -3.5 0  5 -3.4 0  5 -3.3 0  5 -3.2 0  5 -3.1 0  5 -3 0  5 -2.9 0  5 -2.8 0  5 -2.7 0  5 -2.6 0  5 -2.5 0  5 -2.4 0  5 -2.3 0  5 -2.2 0  5 -2.1 0  5 -2 0  5 -1.9 0  5 -1.8 0  5 -1.7 0  5 -1.6 0  5 -1.5 0  5 -1.4 0  5 -1.3 0  5 -1.2 0  5 -1.1 0  5 -1 0  5 -0.9000000000000004 0  5 -0.7999999999999998 0  5 -0.7000000000000002 0  5 -0.5999999999999996 0  5 -0.5 0  5 -0.4000000000000004 0  5 -0.2999999999999998 0  5 -0.2000000000000002 0  5 -0.09999999999999964 0  5 0 0  5 0.09999999999999964 0  5 0.2000000000000002 0  5 0.2999999999999998 0  5 0.4000000000000004 0  5 0.5 0  5 0.5999999999999996 0  5 0.7000000000000002 0  5 0.7999999999999998 0  5 0.9000000000000004 0  5 1 0  5 1.1 0  5 1.2 0  5 1.3 0  5 1.4 0  5 1.5 0  5 1.6 0  5 1.7 0  5 1.8 0  5 1.9 0  5 2 0  5 2.1 0  5 2.2 0  5 2.3 0  5 2.4 0  5 2.5 0  5 2.6 0  5 2.7 0  5 2.8 0  5 2.9 0  5 3 0  5 3.1 0  5 3.199999999999999 0  5 3.300000000000001 0  5 3.4 0  5 3.5 0  5 3.6 0  5 3.699999999999999 0  5 3.800000000000001 0  5 3.9 0  5 4 0  5 4.1 0  5 4.199999999999999 0  5 4.300000000000001 0  5 4.4 0  5 4.5 0  5 4.6 0  5 4.699999999999999 0  5 4.800000000000001 0  5 4.9 0  4.9 5 0  4.8 5 0  4.7 5 0  4.6 5 0  4.5 5 0  4.4 5 0  4.3 5 0  4.2 5 0  4.1 5 0  4 5 0  3.9 5 0  3.8 5 0  3.7 5 0  3.6 5 0  3.5 5 0  3.4 5 0  3.3 5 0  3.2 5 0  3.1 5 0  3 5 0  2.9 5 0  2.8 5 0  2.7 5 0  2.6 5 0  2.5 5 0  2.4 5 0  2.3 5 0  2.2 5 0  2.1 5 0  2 5 0  1.9 5 0  1.8 5 0  1.7 5 0  1.6 5 0  1.5 5 0  1.4 5 0  1.3 5 0  1.2 5 0  1.1 5 0  1 5 0  0.9000000000000004 5 0  0.7999999999999998 5 0  0.7000000000000002 5 0  0.5999999999999996 5 0  0.5 5 0  0.4000000000000004 5 0  0.2999999999999998 5 0  0.2000000000000002 5 0  0.09999999999999964 5 0  0 5 0  -0.09999999999999964 5 0  -0.2000000000000002 5 0  -0.2999999999999998 5 0  -0.4000000000000004 5 0  -0.5 5 0  -0.5999999999999996 5 0  -0.7000000000000002 5 0  -0.7999999999999998 5 0  -0.9000000000000004 5 0  -1 5 0  -1.1 5 0  -1.2 5 0  -1.3 5 0  -1.4 5 0  -1.5 5 0  -1.6 5 0  -1.7 5 0  -1.8 5 0  -1.9 5 0  -2 5 0  -2.1 5 0  -2.2 5 0  -2.3 5 0  -2.4 5 0  -2.5 5 0  -2.6 5 0  -2.7 5 0  -2.8 5 0  -2.9 5 0  -3 5 0  -3.1 5 0  -3.199999999999999 5 0  -3.300000000000001 5 0  -3.4 5 0  -3.5 5 0  -3.6 5 0  -3.699999999999999 5 0  -3.800000000000001 5 0  -3.9 5 0  -4 5 0  -4.1 5 0  -4.199999999999999 5 0  -4.300000000000001 5 0  -4.4 5 0  -4.5 5 0  -4.6 5 0  -4.699999999999999 5 0  -4.800000000000001 5 0  -4.9 5 0  -5 4.9 0  -5 4.8 0  -5 4.7 0  -5 4.6 0  -5 4.5 0  -5 4.4 0  -5 4.3 0  -5 4.2 0  -5 4.1 0  -5 4 0  -5 3.9 0  -5 3.8 0  -5 3.7 0  -5 3.6 0  -5 3.5 0  -5 3.4 0  -5 3.3 0  -5 3.2 0  -5 3.1 0  -5 3 0  -5 2.9 0  -5 2.8 0  -5 2.7 0  -5 2.6 0  -5 2.5 0  -5 2.4 0  -5 2.3 0  -5 2.2 0  -5 2.1 0  -5 2 0  -5 1.9 0  -5 1.8 0  -5 1.7 0  -5 1.6 0  -5 1.5 0  -5 1.4 0  -5 1.3 0  -5 1.2 0  -5 1.1 0  -5 1 0  -5 0.9000000000000004 0  -5 0.7999999999999998 0  -5 0.7000000000000002 0  -5 0.5999999999999996 0  -5 0.5 0  -5 0.4000000000000004 0  -5 0.2999999999999998 0  -5 0.2000000000000002 0  -5 0.09999999999999964 0  -5 0 0  -5 -0.09999999999999964 0  -5 -0.2000000000000002 0  -5 -0.2999999999999998 0  -5 -0.4000000000000004 0  -5 -0.5 0  -5 -0.5999999999999996 0  -5 -0.7000000000000002 0  -5 -0.7999999999999998 0  -5 -0.9000000000000004 0  -5 -1 0  -5 -1.1 0  -5 -1.2 0  -5 -1.3 0  -5 -1.4 0  -5 -1.5 0  -5 -1.6 0  -5 -1.7 0  -5 -1.8 0  -5 -1.9 0  -5 -2 0  -5 -2.1 0  -5 -2.2 0  -5 -2.3 0  -5 -2.4 0  -5 -2.5 0  -5 -2.6 0  -5 -2.7 0  -5 -2.8 0  -5 -2.9 0  -5 -3 0  -5 -3.1 0  -5 -3.199999999999999 0  -5 -3.300000000000001 0  -5 -3.4 0  -5 -3.5 0  -5 -3.6 0  -5 -3.699999999999999 0  -5 -3.800000000000001 0  -5 -3.9 0  -5 -4 0  -5 -4.1 0  -5 -4.199999999999999 0  -5 -4.300000000000001 0  -5 -4.4 0  -5 -4.5 0  -5 -4.6 0  -5 -4.699999999999999 0  -5 -4.800000000000001 0  -5 -4.9 0  1.205246195620933 0.09861359386792856 0  1.186106259732537 0.196479324949137 0  1.154268080313704 0.2935513513145043 0  1.113178140572103 0.3846256272044539 0  1.05958070940556 0.4752123127568282 0  0.9966932796570069 0.5602106338755445 0  0.9226989437848198 0.6399835481739581 0  0.8395287868898379 0.7129101212761267 0  0.7494293056770759 0.7784585051712175 0  0.6507473330793002 0.8368183025409196 0  0.5448718011490806 0.8879925775563245 0  0.4352173194712161 0.9301283451621788 0  0.3233820892102493 0.9629912474064546 0  0.205302645260582 0.9853094631485334 0  0.088931961889284 1.000613226322037 0  -0.02772375183570247 1.003444902900694 0  -0.1446832034457221 0.9930631230078321 0  -0.2640451295406579 0.9752077977099747 0  -0.3795687165325736 0.9493009679933356 0  -0.4895337753049214 0.9128432764294422 0  -0.5950620166272305 0.8670983392838327 0  -0.6954104665163608 0.8124122876291059 0  -0.7884485181110876 0.7492189632612284 0  -0.8753550560064739 0.6783165355009607 0  -0.9551911026196109 0.6000567570359652 0  -1.024435156161132 0.5178831088604654 0  -1.083918478845874 0.4311748854793609 0  -1.132127249660026 0.339274335681013 0  -1.168201594135458 0.2457033848789504 0  -1.19232038551811 0.1495856362301862 0  -1.20449725360038 0.05073605612084892 0  -1.204479743815153 -0.04885656476608921 0  -1.192219885357498 -0.147322006657047 0  -1.168796899303125 -0.2433987117167141 0  -1.131393675773259 -0.3389954467219842 0  -1.084244746380965 -0.4300794814478641 0  -1.02550879822975 -0.517073462837899 0  -0.9568828729576468 -0.5987613305833411 0  -0.8774640587592202 -0.6757909148121033 0  -0.7902747862705506 -0.7455358241199016 0  -0.6957856538216144 -0.8067170410720341 0  -0.595140681160643 -0.8608795636048866 0  -0.4864928494434801 -0.908173134673944 0  -0.3757570259392133 -0.9464035840004806 0  -0.2609944861662079 -0.9740104797607481 0  -0.1432957038092726 -0.9922493679306247 0  -0.02751597279954052 -1.002527446571166 0  0.08950814107902137 -0.9976497144488286 0  0.2085828068640169 -0.9828507184886721 0  0.3252018285796197 -0.9613214836361393 0  0.4388285238512092 -0.9287092573334216 0  0.5467043738694453 -0.8870523143315493 0  0.651517352287216 -0.8365263330406169 0  0.7495695136994369 -0.7795180619157296 0  0.8395759089199794 -0.7136955112400765 0  0.922167113475764 -0.6394800933428677 0  0.9950771812101953 -0.5595717782082659 0  1.059402523602338 -0.4745868949786658 0  1.114180162052287 -0.3846764310077219 0  1.155765568089914 -0.2919438253272522 0  1.186425722856985 -0.1956146258951935 0  1.205288360540199 -0.0981462216393925 0  -2.448731910418756 4.918427466619412 0  -2.448621687284928 -4.910834283556603 0  4.910766279691637 2.448136662277236 0  4.918861043947395 -2.449576291527184 0  2.446381563338673 -4.896124794859397 0  2.440808166883127 4.899874833842813 0  -4.910790651668243 -2.448160517866763 0  -4.910788665550474 2.448164406941749 0  -1.748692879808956 4.911455017434126 0  -1.744472076706265 -4.914878875988406 0  4.921034627514346 1.74428870439271 0  4.909624721377726 -1.748081830968432 0  -4.909913740352033 -1.747812463252722 0  -4.910732658395289 1.747554766078737 0  1.74597685540698 4.905344900101452 0  1.747412390929415 -4.893546634309959 0  -1.148968043037487 4.909332915571537 0  -1.129811179211111 -4.917204728658721 0  -4.909748530725961 -1.148097454939819 0  -4.909568619917714 1.14789768057308 0  1.143954352067309 -4.913410236059445 0  1.148976154264058 4.909320932629742 0  4.909893150619618 1.14637420407119 0  4.920656778473472 -1.152136444858133 0  -0.5467353485644628 -4.910568796475085 0  -0.5465103083335341 4.919202461582731 0  -4.908575434278522 -0.5488028644023674 0  -4.908599736639123 0.5473595057306319 0  4.907905555350112 -0.5491229202940052 0  4.919481438711833 0.545867480490099 0  0.5425235884793866 -4.897526758357851 0  0.5512404144447018 4.916044360508633 0  -4.912107920863486 -3.048477143441723 0  4.918664763847623 3.04648130516065 0  4.911618059729196 -3.048455713266071 0  -4.912954684457489 3.045567155822017 0  3.055440177980518 -4.917598018776649 0  -3.048781057329522 -4.911548667377707 0  3.052345227002925 4.913622157904584 0  -3.048226125016078 4.912436271505127 0  -4.9077188264513 -0.04991710833755744 0  0.04512420134533329 -4.912523697617567 0  0.04957187169284904 4.919508764906313 0  4.914729051740393 -0.0512986282355405 0  3.545728657144636 -4.91917711257851 0  -3.549019241521162 4.912
[...]
<PointData  Vectors="f_2640"> 
<DataArray  type="Float64"  Name="f_2640"  NumberOfComponents="3" format="ascii">-1.1775910888093454e-40 -1.3555673594964575e-40 0.0000000000000000e+00  1.4067627790874493e-40 -1.5565725924415873e-40 0.0000000000000000e+00  -2.0224551248874205e-40 -1.9710489103412302e-40 0.0000000000000000e+00  -2.3376642098898156e-40 2.3684364634250989e-40 0.0000000000000000e+00  1.5912557719141919e+01 -1.4777445624599261e-01 0.0000000000000000e+00  2.7737412811481511e-40 3.0186742076575692e-40 0.0000000000000000e+00  7.1951780007031672e-40 7.3259988884330198e-40 0.0000000000000000e+00  -1.6449363182526342e-39 -1.8251310512661432e-39 0.0000000000000000e+00  1.5405156801962581e-38 1.7646149910219309e-38 0.0000000000000000e+00  -5.0341825752705847e-38 -5.7303438860403793e-38 0.0000000000000000e+00  1.8533987925917075e-37 2.2774722687952642e-37 0.0000000000000000e+00  -6.6556383966076339e-37 -8.5580778667355888e-37 0.0000000000000000e+00  3.9443525261378260e-36 5.0692507619930785e-36 0.0000000000000000e+00  -2.4629785181526800e-35 -3.0859952682379152e-35 0.0000000000000000e+00  1.0104800234713722e-34 1.2894828503428911e-34 0.0000000000000000e+00  -2.2208982195112020e-34 -2.8105335616567590e-34 0.0000000000000000e+00  4.4832256855048549e-34 5.5344136607949794e-34 0.0000000000000000e+00  1.6461002090620430e-33 2.0804474657179877e-33 0.0000000000000000e+00  -7.1317645597534779e-33 -9.6361181652720464e-33 0.0000000000000000e+00  1.9641925711045838e-32 2.8636584699887576e-32 0.0000000000000000e+00  -1.1446794051647874e-31 -1.6570419373198320e-31 0.0000000000000000e+00  3.0312767910422444e-31 4.4133427476594289e-31 0.0000000000000000e+00  1.9399678190961284e-31 2.7155083259434074e-31 0.0000000000000000e+00  -1.5753778355441401e-30 -2.2560575453151017e-30 0.0000000000000000e+00  -6.2420251274116709e-31 -1.1546085747856063e-30 0.0000000000000000e+00  -1.3737170488816803e-30 -2.6383464490537290e-30 0.0000000000000000e+00  4.2197425518745558e-30 7.8644921871216787e-30 0.0000000000000000e+00  -9.4909757911857936e-30 -2.4273626290741763e-29 0.0000000000000000e+00  3.4244415890427339e-29 7.5769707799283362e-29 0.0000000000000000e+00  1.9582838087313471e-29 4.6502510790241276e-29 0.0000000000000000e+00  -1.7175384281051169e-28 -3.8410146283710805e-28 0.0000000000000000e+00  -6.2681133685678269e-29 -1.5493770658711812e-28 0.0000000000000000e+00  -1.0477222054443120e-28 -3.1348540092863597e-28 0.0000000000000000e+00  1.7285724040160146e-28 4.6298524406110383e-28 0.0000000000000000e+00  4.9505769571918020e-28 1.4557889221233681e-27 0.0000000000000000e+00  -7.9242136684960434e-30 -9.7855759599380741e-29 0.0000000000000000e+00  1.5368402671501857e-28 4.1685626774607742e-28 0.0000000000000000e+00  -7.9672521670619563e-29 -2.6667943137841352e-28 0.0000000000000000e+00  -4.7445200595462437e-28 -1.4692155558567549e-27 0.0000000000000000e+00  -4.4123322038065553e-28 -1.4389120063757947e-27 0.0000000000000000e+00  -1.1193633111725238e-29 -1.1235082345429065e-28 0.0000000000000000e+00  4.5441523060860483e-28 1.7053776129119478e-27 0.0000000000000000e+00  2.7456529723618527e-28 1.0186526336551446e-27 0.0000000000000000e+00  -5.5261855378566475e-30 -1.6036820714645743e-28 0.0000000000000000e+00  1.1698103529246295e-28 4.1256238651497967e-28 0.0000000000000000e+00  -3.7393139364922141e-29 1.0079303619312057e-27 0.0000000000000000e+00  8.9253422564630684e-29 1.7117665964749511e-27 0.0000000000000000e+00  -3.1755818568640814e-32 -1.0140365193989240e-27 0.0000000000000000e+00  3.6907137493377104e-28 5.4783134412584417e-27 0.0000000000000000e+00  -1.4955610689405692e-28 -9.9471426114208916e-30 0.0000000000000000e+00  -5.0095295607393553e-28 -4.6812116026797691e-27 0.0000000000000000e+00  -3.8450673327375667e-28 -2.6703082342025403e-27 0.0000000000000000e+00  -2.8272125191943048e-28 -3.8616348130677149e-27 0.0000000000000000e+00  -1.1156860004092793e-28 -9.8784777578775241e-27 0.0000000000000000e+00  4.5631355508896331e-29 -1.1322146310913166e-26 0.0000000000000000e+00  -1.4891284144979871e-29 -1.9404594805997856e-27 0.0000000000000000e+00  6.5938500928601323e-29 -6.0864650901366427e-27 0.0000000000000000e+00  7.1236846452775411e-29 -2.1340264714181971e-27 0.0000000000000000e+00  2.2930969198394036e-28 -3.9039122130075444e-27 0.0000000000000000e+00  -1.4761387201755459e-28 1.8778132602967990e-27 0.0000000000000000e+00  5.3046949858919394e-28 -5.2008577106685854e-27 0.0000000000000000e+00  6.5233732336050812e-28 -4.7338102318966966e-27 0.0000000000000000e+00  -8.3209227507739347e-29 1.0372739095253175e-27 0.0000000000000000e+00  -1.0263296004878858e-27 7.1948448895476617e-27 0.0000000000000000e+00  -4.8759220290989050e-28 2.8630404284630355e-27 0.0000000000000000e+00  -3.5522167787758413e-28 1.6086322930158606e-27 0.0000000000000000e+00  -8.4888363743213128e-28 4.1279347382691317e-27 0.0000000000000000e+00  -4.9809061447525560e-28 2.1852411807343872e-27 0.0000000000000000e+00  5.4341584600363600e-28 -2.5076590044862049e-27 0.0000000000000000e+00  3.2186946842988783e-28 -1.1781682832791059e-27 0.0000000000000000e+00  6.9008971081611308e-29 -2.0617520336828892e-28 0.0000000000000000e+00  3.0655978830528281e-28 -8.7805789802902846e-28 0.0000000000000000e+00  2.2494474862415008e-28 -6.8825239996264314e-28 0.0000000000000000e+00  -1.9401260942435485e-28 5.9008368084655527e-28 0.0000000000000000e+00  -1.2694918216100537e-28 3.6684645185551085e-28 0.0000000000000000e+00  -9.8791453253793684e-29 2.7215805700430628e-28 0.0000000000000000e+00  1.8077334605323124e-29 -5.5949141014375032e-29 0.0000000000000000e+00  6.9056525564447026e-29 -1.7616480104417986e-28 0.0000000000000000e+00  1.0037297710124484e-28 -2.3910880058670429e-28 0.0000000000000000e+00  -7.0594362234884323e-30 1.3649938294815843e-29 0.0000000000000000e+00  -7.5366163320162034e-29 1.6313607133855807e-28 0.0000000000000000e+00  1.2278505198465087e-29 -2.6412286285244214e-29 0.0000000000000000e+00  4.2305697714266967e-30 -8.5127241433464699e-30 0.0000000000000000e+00  -1.2360919098603794e-29 2.2405973644673237e-29 0.0000000000000000e+00  -1.1111511976281122e-30 1.5513866554922480e-30 0.0000000000000000e+00  1.4717184443067327e-30 -2.3668264688381766e-30 0.0000000000000000e+00  -7.3813291319048987e-31 1.1586952032789174e-30 0.0000000000000000e+00  9.8721343501962314e-32 -1.5639986458230473e-31 0.0000000000000000e+00  -1.1156745574413522e-32 1.7317330367722880e-32 0.0000000000000000e+00  -1.4282289841689913e-33 1.8980422957424650e-33 0.0000000000000000e+00  6.3470956118052994e-33 -8.3687983159012091e-33 0.0000000000000000e+00  1.7844200197970390e-34 -1.7315411236508667e-34 0.0000000000000000e+00  -3.4234843894408029e-34 4.2273197608196658e-34 0.0000000000000000e+00  3.5140905880793129e-35 -4.0358412390781109e-35 0.0000000000000000e+00  -1.2812168036412660e-35 1.6185320732918028e-35 0.0000000000000000e+00  3.5743808504215499e-36 -4.2861588861787816e-36 0.0000000000000000e+00  -1.5463973713872799e-36 1.7133730477316581e-36 0.0000000000000000e+00  4.7765669945880551e-37 -5.4246376180191951e-37 0.0000000000000000e+00  -2.3697503310867590e-37 2.5804209973374501e-37 0.0000000000000000e+00  7.9007034724859674e-38 -8.4033431590134844e-38 0.0000000000000000e+00  -1.5284472207217082e-38 1.6399565493460140e-38 0.0000000000000000e+00  6.1004482851099076e-39 -6.3310731113936295e-39 0.0000000000000000e+00  -4.2566733326735695e-40 4.0773414563922918e-40 0.0000000000000000e+00  -2.4533496122181565e-40 2.7051205462560849e-40 0.0000000000000000e+00  -1.6543364102812624e-42 3.0901566366036213e-42 0.0000000000000000e+00  3.7397474326303003e-40 -3.2932528802141744e-40 0.0000000000000000e+00  -8.4850595934177361e-40 7.3407186679257667e-40 0.0000000000000000e+00  2.9108606711686389e-39 -2.6623626906420790e-39 0.0000000000000000e+00  -1.3588819214342777e-39 1.5387179373440443e-39 0.0000000000000000e+00  -1.4699149724874576e-38 1.1983156325164889e-38 0.0000000000000000e+00  5.3763633622740976e-38 -4.5405604512438900e-38 0.0000000000000000e+00  -6.7522146116014635e-38 5.9693339642221071e-38 0.0000000000000000e+00  -1.4497963438272694e-37 1.0731894926143850e-37 0.0000000000000000e+00  8.4740520816043923e-37 -6.6606007356331657e-37 0.0000000000000000e+00  -1.4064585187017729e-36 1.1331238798583697e-36 0.0000000000000000e+00  -1.4318300510641606e-36 9.6471064948515716e-37 0.0000000000000000e+00  1.1806614226974809e-35 -8.7160280048101780e-36 0.0000000000000000e+00  -2.1998796772433880e-35 1.6396205555113219e-35 0.0000000000000000e+00  -1.8327431953427129e-35 1.1915272652731395e-35 0.0000000000000000e+00  1.7100860393049467e-34 -1.1858293876697760e-34 0.0000000000000000e+00  -2.6559364195987870e-34 1.8512445838592777e-34 0.0000000000000000e+00  -3.8820674779703882e-34 2.5036018562912429e-34 0.0000000000000000e+00  2.3048087845642923e-33 -1.4955433349759480e-33 0.0000000000000000e+00  -2.1916476024312680e-33 1.4164175692326768e-33 0.0000000000000000e+00  -8.5144333144553893e-33 5.2189194982840750e-33 0.0000000000000000e+00  2.6235619886603606e-32 -1.5835822450264989e-32 0.0000000000000000e+00  3.4368267322686933e-33 -1.8992448645204664e-33 0.0000000000000000e+00  -1.4459736640220789e-31 8.2052512128727016e-32 0.0000000000000000e+00  1.8631251675060024e-31 -1.0142179184166799e-31 0.0000000000000000e+00  4.9155623786466177e-31 -2.6399728389511267e-31 0.0000000000000000e+00  -1.4273867992231039e-30 7.2970893460886099e-31 0.0000000000000000e+00  -8.8170630030952905e-31 4.6921382574510470e-31 0.0000000000000000e+00  7.7225915797949402e-30 -3.6979361305815056e-30 0.0000000000000000e+00  -2.1086127941011019e-30 7.3087004537589476e-31 0.0000000000000000e+00  -3.4452867326241193e-29 1.5434745712894864e-29 0.0000000000000000e+00  2.7970474797394441e-29 -1.0288051817701724e-29 0.0000000000000000e+00  1.4162879932934434e-28 -5.9525573116671680e-29 0.0000000000000000e+00  -1.5915738642381994e-28 5.2501837392883702e-29 0.0000000000000000e+00  -5.9454961056599353e-28 2.3071084116800308e-28 0.0000000000000000e+00  6.2915939645870705e-28 -1.7051938353519965e-28 0.0000000000000000e+00  2.4882739595017973e-27 -8.6729787688938805e-28 0.0000000000000000e+00  -1.8979386281424595e-27 3.2628226999638898e-28 0.0000000000000000e+00  -9.6183091302278825e-27 2.7068084942606694e-27 0.0000000000000000e+00  2.6070703318659547e-27 3.8969184019736790e-28 0.0000000000000000e+00  3.0351515715191126e-26 -6.3392233480696473e-27 0.0000000000000000e+00  1.4906684998303299e-26 -5.0571788319744381e-27 0.0000000000000000e+00  -8.5096930983095101e-26 1.2033802620107558e-26 0.0000000000000000e+00  -1.2890022210569645e-25 1.8603969769975185e-26 0.0000000000000000e+00  1.4319854413883559e-25 -2.5693256013108960e-26 0.0000000000000000e+00  8.3175114694575942e-25 -1.2055114759194670e-25 0.0000000000000000e+00  1.5078621453216806e-24 -1.8983756190722639e-25 0.0000000000000000e+00  1.8247936082823030e-24 -1.8345236573459744e-25 0.0000000000000000e+00  1.7699332599913351e-24 -9.9972840067848546e-26 0.0000000000000000e+00  1.7778013173905587e-24 1.1003089412878692e-26 0.0000000000000000e+00  1.8971485249667337e-24 1.1333416238460367e-25 0.0000000000000000e+00  1.7606863540638878e-24 1.6097198181131433e-25 0.0000000000000000e+00  1.1617539705820673e-24 1.2843855216145747e-25 0.0000000000000000e+00  3.5753749335324423e-25 4.2514793591671243e-26 0.0000000000000000e+00  -1.3990366874830379e-25 -2.3330248772427126e-26 0.0000000000000000e+00  -1.9591000884579246e-25 -3.0996462204394475e-26 0.0000000000000000e+00  -3.4719965044774980e-26 -2.3282953894021902e-27 0.0000000000000000e+00  5.6474578431489472e-26 1.4556379052865404e-26 0.0000000000000000e+00  3.4609835401486125e-26 8.3740585687288839e-27 0.0000000000000000e+00  -4.6220186469966106e-27 -1.5263914443989515e-27 0.0000000000000000e+00  -9.8715487121716812e-27 -2.7853504014582954e-27 0.0000000000000000e+00  -5.4621856103196843e-28 -7.8842543136948106e-29 0.0000000000000000e+00  2.5100018689589449e-27 8.1129727521035510e-28 0.0000000000000000e+00  3.1172395186986975e-28 8.8503319862706157e-29 0.0000000000000000e+00  -6.0405009243619192e-28 -2.1573082462652216e-28 0.0000000000000000e+00  -6.9447599013333417e-29 -2.2143508057926007e-29 0.0000000000000000e+00  1.4051369640808441e-28 5.4873451633522163e-29 0.0000000000000000e+00  3.2874226077346647e-30 3.9859514695518847e-31 0.0000000000000000e+00  -3.1107377428682835e-29 -1.3133731397898321e-29 0.0000000000000000e+00  3.1622723245679185e-30 1.6405384601159962e-30 0.0000000000000000e+00  5.8260967482455704e-30 2.6485529109185674e-30 0.0000000000000000e+00  -1.7897296129140654e-30 -9.0573553569682077e-31 0.0000000000000000e+00  -8.4127087245382441e-31 -4.0126521229264211e-31 0.0000000000000000e+00  5.5793718348529907e-31 2.9637249956908266e-31 0.0000000000000000e+00  2.6511067212261025e-32 9.0821892613093536e-33 0.0000000000000000e+00  -1.2002070509326427e-31 -6.6956044056351886e-32 0.0000000000000000e+00  2.7214775571800153e-32 1.6720401997106573e-32 0.0000000000000000e+00  1.6947161043130802e-32 9.7874746708268340e-33 0.0000000000000000e+00  -1.0840058189732334e-32 -6.7469253321718125e-33 0.0000000000000000e+00  1.6732881621967816e-34 1.7024466574870434e-34 0.0000000000000000e+00  1.9261442938328486e-33 1.2569462250054603e-33 0.0000000000000000e+00  -7.2748625720079748e-34 -4.9485535365924289e-34 0.0000000000000000e+00  -9.9867267582773287e-35 -6.7553147838784405e-35 0.0000000000000000e+00  1.7284405072889002e-34 1.2265602872646212e-34 0.0000000000000000e+00  -4.8905808080183184e-35 -3.5578416304972117e-35 0.0000000000000000e+00  -1.0876080129243542e-35 -8.2561160693166322e-36 0.0000000000000000e+00  1.2595991022240222e-35 9.6383567264141673e-36 0.0000000000000000e+00  -3.3429553583109478e-36 -2.5632946406623031e-36 0.0000000000000000e+00  -7.2659706943976688e-37 -6.1126523690902342e-37 0.0000000000000000e+00  8.6697333445082586e-37 7.1126221465559943e-37 0.0000000000000000e+00  -2.5831464192676395e-37 -2.1001277215085577e-37 0.0000000000000000e+00  -2.5833158459576006e-38 -2.5692122810289218e-38 0.0000000000000000e+00  5.2915880106731258e-38 4.6827863565108410e-38 0.0000000000000000e+00  -2.0885444162014424e-38 -1.8175933222903716e-38 0.0000000000000000e+00  1.1712004252947278e-39 7.0226729396600304e-40 0.0000000000000000e+00  2.6941041001886011e-39 2.6018645942895670e-39 0.0000000000000000e+00  -1.4803483505210572e-39 -1.3854882252774471e-39 0.0000000000000000e+00  3.4016520985539205e-40 3.0602287632286157e-40 0.0000000000000000e+00  1.3294201334878303e-40 1.4668518531193333e-40 0.0000000000000000e+00  3.1348782631794715e-40 3.0880843330585710e-40 0.0000000000000000e+00  -8.1794123111437851e-40 -8.9801805804177408e-40 0.0000000000000000e+00  1.6521156111923442e-39 1.8467237613539254e-39 0.0000000000000000e+00  -1.1083619667239094e-38 -1.2546524229949929e-38 0.0000000000000000e+00  8.5712339962933117e-38 9.0954598932568520e-38 0.0000000000000000e+00  -2.1759390859204203e-37 -2.2075331268742983e-37 0.0000000000000000e+00  2.6776545452215768e-37 2.8303049925186642e-37 0.0000000000000000e+00  -3.6427113222258382e-36 -4.2402389129008518e-36 0.0000000000000000e+00  1.0416571117043005e-35 1.3365435195051180e-35 0.0000000000000000e+00  -4.1938323130912096e-35 -5.7526298756892204e-35 0.0000000000000000e+00  9.2773192893136964e-35 1.2776026042707595e-34 0.0000000000000000e+00  -1.5802915198953009e-34 -2.4422945054419601e-34 0.0000000000000000e+00  9.5383187000147729e-34 1.3404472755759416e-33 0.0000000000000000e+00  -4.3971876147912888e-34 -6.1305814728823300e-34 0.0000000000000000e+00  3.1773760302157123e-33 4.8867593102439543e-33 0.0000000000000000e+00  3.6182011895970792e-32 5.1595276958038377e-32 0.0000000000000000e+00  -1.5844311682479175e-31 -2.2937017543096134e-31 0.0000000000000000e+00  -5.0249489517341597e-31 -7.4975672104419426e-31 0.0000000000000000e+00  1.0622075571470138e-30 1.5866368401419374e-30 0.0000000000000000e+00  -3.7701595393188889e-31 -5.2910765153536896e-31 0.0000000000000000e+00  -2.8990255728860750e-30 -5.3542220985976567e-30 0.0000000000000000e+00  8.7839226036376880e-30 1.8082951625125936e-29 0.0000000000000000e+00  1.2390866073789416e-29 2.6132478293093961e-29 0.0000000000000000e+00  -7.7817796247665074e-29 -1.6813034549694323e-28 0.0000000000000000e+00  2.4671622961665370e-29 5.0822042146158247e-29 0.0000000000000000e+00  9.0353610660968910e-29 1.8539217228195199e-28 0.0000000000000000e+00  2.4906991145819407e-29 7.3093123092903420e-29 0.0000000000000000e+00  2.2361611246980820e-28 6.2528272746637202e-28 0.0000000000000000e+00  9.9479048283454367e-29 2.8640181345244728e-28 0.0000000000000000e+00  -2.3436431768816867e-28 -6.8174200963004967e-28 0.0000000000000000e+00  -3.7378320525722138e-28 -1.1219544814878268e-27 0.0000000000000000e+00  2.9410756900394866e-28 9.4022167629360888e-28 0.0000000000000000e+00  5.0034807178102586e-28 1.7196098772795938e-27 0.0000000000000000e+00  3.2892248470549989e-28 1.1929581528591974e-27 0.0000000000000000e+00  1.8357312842245671e-28 6.2249247059345730e-28 0.0000000000000000e+00  -5.7676958818475617e-28 -2.3736547886289573e-27 0.0000000000000000e+00  -1.3904517252091151e-28 -6.7269199529398291e-28 0.0000000000000000e+00  -3.3118203391535476e-29 -2.3544035028169990e-28 0.0000000000000000e+00  -2.7509682413391266e-28 -1.4531576661425867e-27 0.0000000000000000e+00  -2.3310100820620910e-28 -1.3538191516671318e-27 0.0000000000000000e+00  -3.4731988631891628e-28 -2.1401717417933919e-27 0.0000000000000000e+00  -1.4749405601474624e-28 -8.3302019964036935e-28 0.0000000000000000e+00  1.2323332670536031e-28 1.2713366863257738e-27 0.0000000000000000e+00  -5.3316538313907761e-29 -2.6347611432218676e-28 0.0000000000000000e+00  -1.4639762881363138e-28 -2.1446808456486651e-27 0.0000000000000000e+00  -7.0274916317035774e-30 5.8826726411429239e-28 0.0000000000000000e+00  -2.2458018198584087e-29 4.5252426686102502e-28 0.0000000000000000e+00  -5.7536614248769364e-30 -1.4489898599027229e-27 0.0000000000000000e+00  6.4272552536429181e-31 -5.4669197423010127e-28 0.0000000000000000e+00  9.3432533490954950e-29 -1.5884400964039389e-27 0.0000000000000000e+00  -1.2991198203055937e-28 1.5903904840338684e-27 0.0000000000000000e+00  -1.4734920755928697e-28 1.4780378974734996e-27 0.0000000000000000e+00  2.1392432152820774e-28 -1.6740100497668704e-27 0.0000000000000000e+00  9.0085869863218252e-29 -4.2164136318879344e-28 0.0000000000000000e+00  2.9173220204536046e-28 -2.1359755378967896e-27 0.0000000000000000e+00  -5.0219929104012666e-29 1.0830810113703396e-27 0.0000000000000000e+00  -4.7014560660534938e-30 3.3146541898071149e-28 0.0000000000000000e+00  2.6022619205416348e-28 -9.9831029381803555e-28 0.0000000000000000e+00  1.3337499623564347e-28 -4.9749823466282034e-28 0.0000000000000000e+00  4.9438275133868273e-28 -2.5650366696038192e-27 0.0000000000000000e+00  7.1838072236844632e-28 -3.3749077340716641e-27 0.0000000000000000e+00  9.6805429483624290e-28 -4.4328659962549793e-27 0.0000000000000000e+00  2.7419127771839065e-28 -1.1679355037266590e-27 0.0000000000000000e+00  -3.5160646686962857e-28 1.3759938250251078e-27 0.0000000000000000e+00  -6.2838600408607708e-28 2.4061843776118247e-27 0.0000000000000000e+00  -7.1302992011076758e-28 2.5841376557214678e-27 0.0000000000000000e+00  -1.7138573522827211e-28 5.9786472515527125e-28 0.0000000000000000e+00  1.5496071789671776e-28 -5.0173422998361116e-28 0.0000000000000000e+00  1.2853129872844226e-28 -4.3901130736356878e-28 0.0000000000000000e+00  5.3627921421225468e-28 -1.6505221453773808e-27 0.0000000000000000e+00  2.3064680196826396e-28 -6.5722427534563482e-28 0.0000000000000000e+00  -1.9315550993158696e-28 5.4618091336830348e-28 0.0000000000000000e+00  -1.0868714398887503e-29 1.3779446642331671e-29 0.0000000000000000e+00  2.4397212512295767e-29 -5.9156950704114816e-29 0.0000000000000000e+00  5.5892475074153760e-29 -1.3042281082733851e-28 0.0000000000000000e+00  -1.2245757205175934e-29 2.7205961579154637e-29 0.0000000000000000e+00  -1.8054948512461767e-29 3.8192670098075587e-29 0.0000000000000000e+00  1.32