<?xml version="1.0"?>
<VTKFile type="UnstructuredGrid"  version="0.1"  >
<UnstructuredGrid>
<Piece  NumberOfPoints="11902" NumberOfCells="23402">
<Points>
<DataArray  type="Float64"  NumberOfComponents="3"  format="ascii">-5 -5 0  5 -5 0  5 5 0  -5 5 0  1.133816194467196 0.0008985775371067245 0  -4.9 -5 0  -4.8 -5 0  -4.7 -5 0  -4.6 -5 0  -4.5 -5 0  -4.4 -5 0  -4.3 -5 0  -4.2 -5 0  -4.1 -5 0  -4 -5 0  -3.9 -5 0  -3.8 -5 0  -3.7 -5 0  -3.6 -5 0  -3.5 -5 0  -3.4 -5 0  -3.3 -5 0  -3.2 -5 0  -3.1 -5 0  -3 -5 0  -2.9 -5 0  -2.8 -5 0  -2.7 -5 0  -2.6 -5 0  -2.5 -5 0  -2.4 -5 0  -2.3 -5 0  -2.2 -5 0  -2.1 -5 0  -2 -5 0  -1.9 -5 0  -1.8 -5 0  -1.7 -5 0  -1.6 -5 0  -1.5 -5 0  -1.4 -5 0  -1.3 -5 0  -1.2 -5 0  -1.1 -5 0  -1 -5 0  -0.9000000000000004 -5 0  -0.7999999999999998 -5 0  -0.7000000000000002 -5 0  -0.5999999999999996 -5 0  -0.5 -5 0  -0.4000000000000004 -5 0  -0.2999999999999998 -5 0  -0.2000000000000002 -5 0  -0.09999999999999964 -5 0  0 -5 0  0.09999999999999964 -5 0  0.2000000000000002 -5 0  0.2999999999999998 -5 0  0.4000000000000004 -5 0  0.5 -5 0  0.5999999999999996 -5 0  0.7000000000000002 -5 0  0.7999999999999998 -5 0  0.9000000000000004 -5 0  1 -5 0  1.1 -5 0  1.2 -5 0  1.3 -5 0  1.4 -5 0  1.5 -5 0  1.6 -5 0  1.7 -5 0  1.8 -5 0  1.9 -5 0  2 -5 0  2.1 -5 0  2.2 -5 0  2.3 -5 0  2.4 -5 0  2.5 -5 0  2.6 -5 0  2.7 -5 0  2.8 -5 0  2.9 -5 0  3 -5 0  3.1 -5 0  3.199999999999999 -5 0  3.300000000000001 -5 0  3.4 -5 0  3.5 -5 0  3.6 -5 0  3.699999999999999 -5 0  3.800000000000001 -5 0  3.9 -5 0  4 -5 0  4.1 -5 0  4.199999999999999 -5 0  4.300000000000001 -5 0  4.4 -5 0  4.5 -5 0  4.6 -5 0  4.699999999999999 -5 0  4.800000000000001 -5 0  4.9 -5 0  5 -4.9 0  5 -4.8 0  5 -4.7 0  5 -4.6 0  5 -4.5 0  5 -4.4 0  5 -4.3 0  5 -4.2 0  5 -4.1 0  5 -4 0  5 -3.9 0  5 -3.8 0  5 -3.7 0  5 -3.6 0  5 -3.5 0  5 -3.4 0  5 -3.3 0  5 -3.2 0  5 -3.1 0  5 -3 0  5 -2.9 0  5 -2.8 0  5 -2.7 0  5 -2.6 0  5 -2.5 0  5 -2.4 0  5 -2.3 0  5 -2.2 0  5 -2.1 0  5 -2 0  5 -1.9 0  5 -1.8 0  5 -1.7 0  5 -1.6 0  5 -1.5 0  5 -1.4 0  5 -1.3 0  5 -1.2 0  5 -1.1 0  5 -1 0  5 -0.9000000000000004 0  5 -0.7999999999999998 0  5 -0.7000000000000002 0  5 -0.5999999999999996 0  5 -0.5 0  5 -0.4000000000000004 0  5 -0.2999999999999998 0  5 -0.2000000000000002 0  5 -0.09999999999999964 0  5 0 0  5 0.09999999999999964 0  5 0.2000000000000002 0  5 0.2999999999999998 0  5 0.4000000000000004 0  5 0.5 0  5 0.5999999999999996 0  5 0.7000000000000002 0  5 0.7999999999999998 0  5 0.9000000000000004 0  5 1 0  5 1.1 0  5 1.2 0  5 1.3 0  5 1.4 0  5 1.5 0  5 1.6 0  5 1.7 0  5 1.8 0  5 1.9 0  5 2 0  5 2.1 0  5 2.2 0  5 2.3 0  5 2.4 0  5 2.5 0  5 2.6 0  5 2.7 0  5 2.8 0  5 2.9 0  5 3 0  5 3.1 0  5 3.199999999999999 0  5 3.300000000000001 0  5 3.4 0  5 3.5 0  5 3.6 0  5 3.699999999999999 0  5 3.800000000000001 0  5 3.9 0  5 4 0  5 4.1 0  5 4.199999999999999 0  5 4.300000000000001 0  5 4.4 0  5 4.5 0  5 4.6 0  5 4.699999999999999 0  5 4.800000000000001 0  5 4.9 0  4.9 5 0  4.8 5 0  4.7 5 0  4.6 5 0  4.5 5 0  4.4 5 0  4.3 5 0  4.2 5 0  4.1 5 0  4 5 0  3.9 5 0  3.8 5 0  3.7 5 0  3.6 5 0  3.5 5 0  3.4 5 0  3.3 5 0  3.2 5 0  3.1 5 0  3 5 0  2.9 5 0  2.8 5 0  2.7 5 0  2.6 5 0  2.5 5 0  2.4 5 0  2.3 5 0  2.2 5 0  2.1 5 0  2 5 0  1.9 5 0  1.8 5 0  1.7 5 0  1.6 5 0  1.5 5 0  1.4 5 0  1.3 5 0  1.2 5 0  1.1 5 0  1 5 0  0.9000000000000004 5 0  0.7999999999999998 5 0  0.7000000000000002 5 0  0.5999999999999996 5 0  0.5 5 0  0.4000000000000004 5 0  0.2999999999999998 5 0  0.2000000000000002 5 0  0.09999999999999964 5 0  0 5 0  -0.09999999999999964 5 0  -0.2000000000000002 5 0  -0.2999999999999998 5 0  -0.4000000000000004 5 0  -0.5 5 0  -0.5999999999999996 5 0  -0.7000000000000002 5 0  -0.7999999999999998 5 0  -0.9000000000000004 5 0  -1 5 0  -1.1 5 0  -1.2 5 0  -1.3 5 0  -1.4 5 0  -1.5 5 0  -1.6 5 0  -1.7 5 0  -1.8 5 0  -1.9 5 0  -2 5 0  -2.1 5 0  -2.2 5 0  -2.3 5 0  -2.4 5 0  -2.5 5 0  -2.6 5 0  -2.7 5 0  -2.8 5 0  -2.9 5 0  -3 5 0  -3.1 5 0  -3.199999999999999 5 0  -3.300000000000001 5 0  -3.4 5 0  -3.5 5 0  -3.6 5 0  -3.699999999999999 5 0  -3.800000000000001 5 0  -3.9 5 0  -4 5 0  -4.1 5 0  -4.199999999999999 5 0  -4.300000000000001 5 0  -4.4 5 0  -4.5 5 0  -4.6 5 0  -4.699999999999999 5 0  -4.800000000000001 5 0  -4.9 5 0  -5 4.9 0  -5 4.8 0  -5 4.7 0  -5 4.6 0  -5 4.5 0  -5 4.4 0  -5 4.3 0  -5 4.2 0  -5 4.1 0  -5 4 0  -5 3.9 0  -5 3.8 0  -5 3.7 0  -5 3.6 0  -5 3.5 0  -5 3.4 0  -5 3.3 0  -5 3.2 0  -5 3.1 0  -5 3 0  -5 2.9 0  -5 2.8 0  -5 2.7 0  -5 2.6 0  -5 2.5 0  -5 2.4 0  -5 2.3 0  -5 2.2 0  -5 2.1 0  -5 2 0  -5 1.9 0  -5 1.8 0  -5 1.7 0  -5 1.6 0  -5 1.5 0  -5 1.4 0  -5 1.3 0  -5 1.2 0  -5 1.1 0  -5 1 0  -5 0.9000000000000004 0  -5 0.7999999999999998 0  -5 0.7000000000000002 0  -5 0.5999999999999996 0  -5 0.5 0  -5 0.4000000000000004 0  -5 0.2999999999999998 0  -5 0.2000000000000002 0  -5 0.09999999999999964 0  -5 0 0  -5 -0.09999999999999964 0  -5 -0.2000000000000002 0  -5 -0.2999999999999998 0  -5 -0.4000000000000004 0  -5 -0.5 0  -5 -0.5999999999999996 0  -5 -0.7000000000000002 0  -5 -0.7999999999999998 0  -5 -0.9000000000000004 0  -5 -1 0  -5 -1.1 0  -5 -1.2 0  -5 -1.3 0  -5 -1.4 0  -5 -1.5 0  -5 -1.6 0  -5 -1.7 0  -5 -1.8 0  -5 -1.9 0  -5 -2 0  -5 -2.1 0  -5 -2.2 0  -5 -2.3 0  -5 -2.4 0  -5 -2.5 0  -5 -2.6 0  -5 -2.7 0  -5 -2.8 0  -5 -2.9 0  -5 -3 0  -5 -3.1 0  -5 -3.199999999999999 0  -5 -3.300000000000001 0  -5 -3.4 0  -5 -3.5 0  -5 -3.6 0  -5 -3.699999999999999 0  -5 -3.800000000000001 0  -5 -3.9 0  -5 -4 0  -5 -4.1 0  -5 -4.199999999999999 0  -5 -4.300000000000001 0  -5 -4.4 0  -5 -4.5 0  -5 -4.6 0  -5 -4.699999999999999 0  -5 -4.800000000000001 0  -5 -4.9 0  1.128327011142645 0.1002852115276075 0  1.111122787605995 0.1994495437097537 0  1.082099886765094 0.2971792840348225 0  1.043903495936489 0.3902843341247186 0  0.9947822639533379 0.4812494560901095 0  0.9363824957011896 0.566875902411947 0  0.8679171159055349 0.6466837085105269 0  0.7902389092784097 0.7196943939289815 0  0.7056249927176488 0.7859213396565492 0  0.6138981559511153 0.8447519684602096 0  0.5154931706611474 0.8948574198332563 0  0.4121225554732175 0.9362299133156411 0  0.3060186955407289 0.9687655378009177 0  0.1958130935506922 0.990940990342674 0  0.08498691020561341 1.003976904365 0  -0.02711678322900613 1.006582919297489 0  -0.1390073577655313 0.9983747800355603 0  -0.250029144212911 0.9812478297014434 0  -0.3585839295262779 0.9544326795760736 0  -0.4631917927363183 0.9177036480425439 0  -0.5629467195281115 0.8723371472442668 0  -0.6575367905733933 0.8177333045820891 0  -0.7455732040526444 0.7552719710408473 0  -0.826483064502898 0.6854190830545557 0  -0.8996173724712134 0.6077741385880897 0  -0.963286215075011 0.5246992116674691 0  -1.018088660949637 0.4369663645921258 0  -1.062146098723533 0.3442272389654119 0  -1.095324714086043 0.2487592069313303 0  -1.117858333288465 0.150845845242218 0  -1.129323744211284 0.05085653858468182 0  -1.129350572719863 -0.0497183290773743 0  -1.117903192416656 -0.1495175256010813 0  -1.096551963468271 -0.2474214083134667 0  -1.062035591051129 -0.3437080366055648 0  -1.018392505427749 -0.4357940919278664 0  -0.963906797234254 -0.5237551381008568 0  -0.9004349420087374 -0.6065113503226908 0  -0.8273118672417819 -0.6833818771523594 0  -0.7459170058485201 -0.7528542140268361 0  -0.6572021441873331 -0.8145735591407486 0  -0.5633069519382707 -0.8693325631893434 0  -0.4617073822691312 -0.9150236065430528 0  -0.3569639417018909 -0.9524306107159112 0  -0.2482582516615554 -0.9798024899568422 0  -0.1378096367134096 -0.9973706382269311 0  -0.0263777455338023 -1.006048920915757 0  0.08543406939572289 -1.00280718076294 0  0.1972978562770321 -0.9895053375317983 0  0.3067776700823424 -0.9673881767579942 0  0.4142905664827451 -0.9350084389648102 0  0.5163984251259527 -0.8938862815641707 0  0.6143932927659587 -0.8440063028186597 0  0.7058705457832016 -0.7864400518372129 0  0.7904129041696104 -0.7201045618480596 0  0.867555653154366 -0.6461786189099308 0  0.9355438888872768 -0.5661536166057978 0  0.9949017614880745 -0.4807901147380508 0  1.044964720408787 -0.3903848393494943 0  1.083151254749304 -0.2964371145593708 0  1.111226485007372 -0.1988741179591715 0  1.128350240437731 -0.09997166726503449 0  -2.44909380760553 4.919096193539056 0  -2.449015466734317 -4.911563417844422 0  4.911512692776786 2.448661939278539 0  4.919538233757853 -2.450053925908795 0  2.446839905709106 -4.896981724152933 0  2.441251515751295 4.900703605880323 0  -4.911530776016967 -2.448679946085246 0  -4.911530720176005 2.448683726120801 0  -1.749066368756201 4.912417661071162 0  -1.744829188754379 -4.915802631624074 0  4.921977649847158 1.744764163929447 0  4.910701687724923 -1.748626878428307 0  -4.910978566860262 -1.748349312760272 0  -4.911789960706456 1.748085912821533 0  1.74637335296512 4.906379110054957 0  1.747856667871657 -4.894708005649415 0  -1.149265118423135 4.910498248635761 0  -1.130078448604786 -4.91826972059695 0  -4.911081862270578 -1.14853925217459 0  -4.910906447143467 1.148338792565611 0  1.144232045846192 -4.914525453516635 0  1.149269798113893 4.910489885128819 0  4.911237756869554 1.146819480748015 0  4.921837806719366 -1.152530346448705 0  -0.5468897839296272 -4.911833858148396 0  -0.5466504287225784 4.920348963067375 0  -4.910124758894594 -0.5490485047314491 0  -4.910149951753371 0.5476024044923802 0  4.909481013727222 -0.5493733478094999 0  4.920859469366437 0.5460842774409488 0  0.542692926972607 -4.898980145199964 0  0.551382871762074 4.917236938054622 0  -4.912607060401013 -3.048906330228848 0  4.919130612559256 3.046883088204295 0  4.912122963615743 -3.048892002096915 0  -4.913451491730275 3.045992965494297 0  3.055762702282502 -4.918088327594004 0  -3.049127918160026 -4.912072566221267 0  3.05268475779048 4.914137591892796 0  -3.048570755202807 4.91295643451501 0  -4.909349032219235 -0.04994166514003526 0  0.04513355114369652 -4.913798211986287 0  0.04958265294982825 4.920684895497732 0  4.916249481499703 -0.05132161177989916 0  3.545984783379446 -4.919520457367737 0  -3.54929748550796
[...]
<PointData  Vectors="f_1368"> 
<DataArray  type="Float64"  Name="f_1368"  NumberOfComponents="3" format="ascii">-1.5613130381913668e-40 -1.6172218752314248e-40 0.0000000000000000e+00  1.9596237247298587e-40 -1.9792426232368017e-40 0.0000000000000000e+00  -2.4015705443584072e-40 -2.4141186150344366e-40 0.0000000000000000e+00  -2.9850227799168229e-40 3.1071686843590144e-40 0.0000000000000000e+00  1.4363615674635556e+01 -5.0951400869857288e-01 0.0000000000000000e+00  3.5061455143577222e-40 3.6035647625051067e-40 0.0000000000000000e+00  8.0115743508345786e-40 8.8222555925405220e-40 0.0000000000000000e+00  -1.7787697869283108e-39 -2.0805494134060856e-39 0.0000000000000000e+00  1.8237199762349787e-38 2.0424131106317081e-38 0.0000000000000000e+00  -5.8709821078763709e-38 -6.4104129680727750e-38 0.0000000000000000e+00  2.2492020237469994e-37 2.4488015490499218e-37 0.0000000000000000e+00  -8.1385649722920326e-37 -9.0593693462086934e-37 0.0000000000000000e+00  4.8128398025837808e-36 5.8343305891832356e-36 0.0000000000000000e+00  -2.9519291552513737e-35 -3.7550798127964601e-35 0.0000000000000000e+00  1.1907422897048202e-34 1.5422844397253948e-34 0.0000000000000000e+00  -2.5329886573080228e-34 -3.4035931023937355e-34 0.0000000000000000e+00  4.9779839189619297e-34 6.9147262605742411e-34 0.0000000000000000e+00  1.7803779569475752e-33 2.5268006255722725e-33 0.0000000000000000e+00  -8.0801851587840344e-33 -1.1616764193399914e-32 0.0000000000000000e+00  2.3554828706316293e-32 3.4723247622250369e-32 0.0000000000000000e+00  -1.3252548435964465e-31 -2.0023788104193364e-31 0.0000000000000000e+00  3.4804987533585398e-31 5.2968638636012148e-31 0.0000000000000000e+00  1.8766302501889960e-31 3.3231821952070981e-31 0.0000000000000000e+00  -1.5964581166984929e-30 -2.7214613302907594e-30 0.0000000000000000e+00  -8.3920413263731436e-31 -1.3396050099967409e-30 0.0000000000000000e+00  -2.2159641561815825e-30 -3.5849549039322396e-30 0.0000000000000000e+00  5.3427590078617920e-30 9.4126973436430019e-30 0.0000000000000000e+00  -1.3142774176105893e-29 -2.2503390194506511e-29 0.0000000000000000e+00  4.4258868791911075e-29 8.0049291016922893e-29 0.0000000000000000e+00  2.6279112958581432e-29 5.0839392966254160e-29 0.0000000000000000e+00  -2.1912503738107304e-28 -4.3222297777508513e-28 0.0000000000000000e+00  -7.3630786419646937e-29 -1.5564606120800357e-28 0.0000000000000000e+00  -1.2439905566981592e-28 -2.6861887645034070e-28 0.0000000000000000e+00  2.1529279261997959e-28 4.6343902311074092e-28 0.0000000000000000e+00  6.4735305772486157e-28 1.4932103606782046e-27 0.0000000000000000e+00  -6.8885287360642513e-29 -1.1636253201660749e-28 0.0000000000000000e+00  1.3926204925629164e-28 4.0543599661391577e-28 0.0000000000000000e+00  -1.0997933499021237e-28 -2.6873730774603175e-28 0.0000000000000000e+00  -4.9136246669040067e-28 -1.4413652168548553e-27 0.0000000000000000e+00  -4.4479610229098224e-28 -1.4447895370381621e-27 0.0000000000000000e+00  -2.8603456935125110e-29 -1.7720834015341231e-28 0.0000000000000000e+00  4.7889623611948856e-28 1.7308795143219158e-27 0.0000000000000000e+00  2.6070357897948710e-28 1.0540053775712662e-27 0.0000000000000000e+00  -5.0290413878970256e-29 -1.9321166199999932e-28 0.0000000000000000e+00  8.7551830775373972e-29 4.3060306232109814e-28 0.0000000000000000e+00  2.7405966590980560e-28 1.1252491324126682e-27 0.0000000000000000e+00  3.7871757862350532e-28 1.8877398252506293e-27 0.0000000000000000e+00  -1.9286138131403241e-28 -1.0770529063462986e-27 0.0000000000000000e+00  8.0934918495783069e-28 6.0761546288288577e-27 0.0000000000000000e+00  -2.2911643500393126e-29 -3.8803374267977501e-29 0.0000000000000000e+00  -4.5792799609231268e-28 -5.2707093923612017e-27 0.0000000000000000e+00  -1.3896728781917865e-28 -3.1002021770280486e-27 0.0000000000000000e+00  -1.9087303587322678e-28 -4.4026600225413712e-27 0.0000000000000000e+00  -3.4656041029339597e-28 -1.0934795195990329e-26 0.0000000000000000e+00  -1.6509826272891661e-28 -1.2532530180917783e-26 0.0000000000000000e+00  1.2124983454369706e-29 -2.1787015833375784e-27 0.0000000000000000e+00  1.6436828903545571e-28 -6.8689374328540979e-27 0.0000000000000000e+00  1.9671962699059789e-28 -2.5112845727013352e-27 0.0000000000000000e+00  4.1499524462068615e-28 -4.4625152375427675e-27 0.0000000000000000e+00  -2.3509386780787920e-28 1.9611624282114091e-27 0.0000000000000000e+00  7.4098968013749662e-28 -6.0144897477263022e-27 0.0000000000000000e+00  8.2693109350768159e-28 -5.4522232697823645e-27 0.0000000000000000e+00  -1.6960930950460368e-28 1.0792089459636863e-27 0.0000000000000000e+00  -1.6044797725203706e-27 8.0114437807661548e-27 0.0000000000000000e+00  -7.1225495006833883e-28 3.1789321015323693e-27 0.0000000000000000e+00  -4.0056165078059549e-28 1.8811502721989092e-27 0.0000000000000000e+00  -1.1721431557865121e-27 4.5813028220263490e-27 0.0000000000000000e+00  -6.9300893265357093e-28 2.4191983257531768e-27 0.0000000000000000e+00  8.0830874700944801e-28 -2.7038196446393008e-27 0.0000000000000000e+00  4.0990272012188712e-28 -1.2718268017332867e-27 0.0000000000000000e+00  8.5028249174189459e-29 -2.7754774844468275e-28 0.0000000000000000e+00  3.3942068835717135e-28 -9.7719492527255760e-28 0.0000000000000000e+00  2.9606816232249152e-28 -7.6356293596001230e-28 0.0000000000000000e+00  -2.5261289305587145e-28 6.3482710595948221e-28 0.0000000000000000e+00  -2.0020125372710315e-28 4.6441514885411645e-28 0.0000000000000000e+00  -1.4531517413583979e-28 3.2138877503718249e-28 0.0000000000000000e+00  1.9497049476371605e-29 -4.7694495986211553e-29 0.0000000000000000e+00  1.0380127476367921e-28 -2.1768247541408744e-28 0.0000000000000000e+00  1.4733393817834619e-28 -2.8643164810856603e-28 0.0000000000000000e+00  -5.4320412071452261e-30 1.4882777635388473e-29 0.0000000000000000e+00  -1.0206869131087749e-28 1.8656858313495773e-28 0.0000000000000000e+00  1.6673460700816327e-29 -3.0797419436370405e-29 0.0000000000000000e+00  5.5950476309687337e-30 -9.2599550287762268e-30 0.0000000000000000e+00  -1.4502655365528090e-29 2.5179320011002863e-29 0.0000000000000000e+00  -1.0719842020383577e-30 1.7333759433441646e-30 0.0000000000000000e+00  1.6280229093848937e-30 -2.6843093746149955e-30 0.0000000000000000e+00  -8.4250556286411436e-31 1.3640344319206977e-30 0.0000000000000000e+00  1.0581411017454223e-31 -1.6896122021585646e-31 0.0000000000000000e+00  -1.2735679305142563e-32 1.9338991692560891e-32 0.0000000000000000e+00  -5.5048651419659496e-34 9.2242873602996460e-34 0.0000000000000000e+00  6.8488004446513705e-33 -9.9104572683674256e-33 0.0000000000000000e+00  3.6863884155214499e-34 -4.4933730524506212e-34 0.0000000000000000e+00  -4.4637059673345813e-34 6.0766253810190503e-34 0.0000000000000000e+00  4.9607967598469581e-35 -7.0709216930713521e-35 0.0000000000000000e+00  -1.9531690392581418e-35 2.5495662713912425e-35 0.0000000000000000e+00  4.5841218883953719e-36 -5.7507469166713919e-36 0.0000000000000000e+00  -1.5623492817543253e-36 1.8990171304968683e-36 0.0000000000000000e+00  5.0548545748159286e-37 -5.9364600168721294e-37 0.0000000000000000e+00  -2.5209380436143667e-37 2.9119128768208942e-37 0.0000000000000000e+00  8.5071802686852078e-38 -9.7023193251435145e-38 0.0000000000000000e+00  -1.7408999198169241e-38 1.9396119911808004e-38 0.0000000000000000e+00  7.0534502289217521e-39 -7.6808989826022092e-39 0.0000000000000000e+00  -4.3134444610011281e-40 4.8110402842558762e-40 0.0000000000000000e+00  -3.3571752243681518e-40 3.4311261052352246e-40 0.0000000000000000e+00  -1.1695963284683405e-41 6.3404150146564396e-42 0.0000000000000000e+00  4.0014652950038175e-40 -3.9187270111281053e-40 0.0000000000000000e+00  -9.2534619093401704e-40 8.7025260016209670e-40 0.0000000000000000e+00  3.5233653911621225e-39 -3.2401241653005526e-39 0.0000000000000000e+00  -2.2967215164223955e-39 2.0652451398563073e-39 0.0000000000000000e+00  -1.5673180391048618e-38 1.3770510381544787e-38 0.0000000000000000e+00  6.2236498973640245e-38 -5.3479699521312839e-38 0.0000000000000000e+00  -8.5946625826920072e-38 7.2403311223479838e-38 0.0000000000000000e+00  -1.4409551470488250e-37 1.1701342927229756e-37 0.0000000000000000e+00  9.5240837646327017e-37 -7.6029567359589996e-37 0.0000000000000000e+00  -1.6825247262519954e-36 1.3214693959754813e-36 0.0000000000000000e+00  -1.3485350885120847e-36 9.8705979643795442e-37 0.0000000000000000e+00  1.3140465013835130e-35 -9.6943045338413024e-36 0.0000000000000000e+00  -2.5668162989133393e-35 1.8583700233099970e-35 0.0000000000000000e+00  -1.7723721952990506e-35 1.1813355673274994e-35 0.0000000000000000e+00  1.9024318471156159e-34 -1.2862572082827788e-34 0.0000000000000000e+00  -3.0789288953512538e-34 2.0636944803209285e-34 0.0000000000000000e+00  -4.0710559186625346e-34 2.5206753587247611e-34 0.0000000000000000e+00  2.5737709140343872e-33 -1.5866734843087440e-33 0.0000000000000000e+00  -2.5768863125764349e-33 1.5881601925980403e-33 0.0000000000000000e+00  -9.2403901678735362e-33 5.2329735770813329e-33 0.0000000000000000e+00  2.9429563095770491e-32 -1.6573244405278236e-32 0.0000000000000000e+00  2.1943206605697226e-33 -3.2048588590198439e-34 0.0000000000000000e+00  -1.5873857554116934e-31 8.1300242057794441e-32 0.0000000000000000e+00  2.1207046608935185e-31 -1.0780836192771034e-31 0.0000000000000000e+00  5.2528511694655741e-31 -2.4154973980659440e-31 0.0000000000000000e+00  -1.5725749002410023e-30 7.2153538978655971e-31 0.0000000000000000e+00  -8.8071631402525863e-31 3.3926386712389321e-31 0.0000000000000000e+00  8.3131154089633210e-30 -3.4399203465926132e-30 0.0000000000000000e+00  -2.5356804947924244e-30 1.2067820003866239e-30 0.0000000000000000e+00  -3.6370184117965389e-29 1.3427018540447876e-29 0.0000000000000000e+00  3.0246214222778560e-29 -1.1490721852704197e-29 0.0000000000000000e+00  1.4684907135646560e-28 -4.8162100278219549e-29 0.0000000000000000e+00  -1.6635572155252546e-28 5.5198596212809014e-29 0.0000000000000000e+00  -6.0656734252231984e-28 1.7471423148395898e-28 0.0000000000000000e+00  6.4196811348939062e-28 -1.9377010940142168e-28 0.0000000000000000e+00  2.5098007898533265e-27 -6.2995503416101088e-28 0.0000000000000000e+00  -1.9069404947066087e-27 5.0306168043948949e-28 0.0000000000000000e+00  -9.6311966320374213e-27 2.0234710333591113e-27 0.0000000000000000e+00  2.4997574440548502e-27 -5.8191706493249972e-28 0.0000000000000000e+00  3.0059974645819957e-26 -5.2121481890337111e-27 0.0000000000000000e+00  1.4548435708223291e-26 -1.9402562058551145e-27 0.0000000000000000e+00  -8.5534876319486368e-26 1.2086785922939603e-26 0.0000000000000000e+00  -1.2960596968355375e-25 1.5358767050272822e-26 0.0000000000000000e+00  1.4560977034215625e-25 -1.4514125894026700e-26 0.0000000000000000e+00  8.4919856118832336e-25 -6.0064500267749485e-26 0.0000000000000000e+00  1.5499781540670809e-24 -7.2904105329336268e-26 0.0000000000000000e+00  1.8897143829557758e-24 -4.9700339954883160e-26 0.0000000000000000e+00  1.8468491719971317e-24 -1.8988092775997737e-26 0.0000000000000000e+00  1.8665766328225109e-24 -7.2453255939452370e-28 0.0000000000000000e+00  1.9975207914441463e-24 2.3501304694088991e-26 0.0000000000000000e+00  1.8516353691234136e-24 5.3582394738203603e-26 0.0000000000000000e+00  1.2126397517155513e-24 5.9126959301491791e-26 0.0000000000000000e+00  3.5977810909484365e-25 2.6376947376644580e-26 0.0000000000000000e+00  -1.6190671752822350e-25 -1.2534803875470944e-26 0.0000000000000000e+00  -2.1341233770884283e-25 -2.2719211179245450e-26 0.0000000000000000e+00  -3.8051513507907666e-26 -5.3218297104233448e-27 0.0000000000000000e+00  5.9598406374623960e-26 8.6028777262376157e-27 0.0000000000000000e+00  3.6457168631235079e-26 6.2586566514205872e-27 0.0000000000000000e+00  -5.0814174296803128e-27 -8.8716620012488038e-28 0.0000000000000000e+00  -1.0649564094117214e-26 -2.2558973732689408e-27 0.0000000000000000e+00  -7.1216204790049072e-28 -1.8896260727687357e-28 0.0000000000000000e+00  2.6593780925751194e-27 6.6457048200820000e-28 0.0000000000000000e+00  3.7707312337770388e-28 1.0831355423513773e-28 0.0000000000000000e+00  -6.3102978776813604e-28 -1.8322844150376695e-28 0.0000000000000000e+00  -8.5478472535837170e-29 -2.8335645046897216e-29 0.0000000000000000e+00  1.4657093950679374e-28 4.9237002194637613e-29 0.0000000000000000e+00  6.2745711896611814e-30 2.7725025361520742e-30 0.0000000000000000e+00  -3.2789144559994428e-29 -1.2474204221806464e-29 0.0000000000000000e+00  2.8417090925065391e-30 1.0123441026557615e-30 0.0000000000000000e+00  6.2430275606075508e-30 2.6911503608991713e-30 0.0000000000000000e+00  -1.8392609779208983e-30 -7.8153380138456084e-31 0.0000000000000000e+00  -9.2007902671564707e-31 -4.4249018713790574e-31 0.0000000000000000e+00  5.9472062128532162e-31 2.8481703800181581e-31 0.0000000000000000e+00  3.2309133052580263e-32 2.0910761558523008e-32 0.0000000000000000e+00  -1.3094052517137811e-31 -6.8536335192947060e-32 0.0000000000000000e+00  2.9556149916586823e-32 1.5021466063088183e-32 0.0000000000000000e+00  1.8783718130985076e-32 1.0804460998803122e-32 0.0000000000000000e+00  -1.2039966181552682e-32 -6.8708730568657571e-33 0.0000000000000000e+00  1.8210280341581842e-34 2.2984277246682997e-35 0.0000000000000000e+00  2.1665351231172717e-33 1.3593748691538030e-33 0.0000000000000000e+00  -8.2196222288199278e-34 -5.1223624507408944e-34 0.0000000000000000e+00  -1.1465978142279594e-34 -8.2615447321724733e-35 0.0000000000000000e+00  1.9775695835956628e-34 1.3415449412959459e-34 0.0000000000000000e+00  -5.5693180050294477e-35 -3.7964369747668341e-35 0.0000000000000000e+00  -1.2923061031827590e-35 -9.6250285522704436e-36 0.0000000000000000e+00  1.4648039365647435e-35 1.0780095500891256e-35 0.0000000000000000e+00  -3.8153590249941840e-36 -2.8244231414163461e-36 0.0000000000000000e+00  -9.0207859832137150e-37 -7.1916572032645692e-37 0.0000000000000000e+00  1.0269041801430571e-36 8.1531880527781127e-37 0.0000000000000000e+00  -2.9706511839154980e-37 -2.3943741778110367e-37 0.0000000000000000e+00  -3.6564962492211483e-38 -3.1212708350603481e-38 0.0000000000000000e+00  6.4433239073691096e-38 5.5043644669486927e-38 0.0000000000000000e+00  -2.4535107288026433e-38 -2.1326705318222608e-38 0.0000000000000000e+00  8.8526482712803135e-40 7.5364816726802151e-40 0.0000000000000000e+00  3.4392900048428853e-39 3.1312651652778405e-39 0.0000000000000000e+00  -1.7974134466269861e-39 -1.6652046941555600e-39 0.0000000000000000e+00  3.8819085959489888e-40 3.6622938119691767e-40 0.0000000000000000e+00  1.8565158493659163e-40 1.8056573288471056e-40 0.0000000000000000e+00  3.5750626258373063e-40 3.7771410198145867e-40 0.0000000000000000e+00  -1.0426234922189292e-39 -1.1046518949863234e-39 0.0000000000000000e+00  2.0540433855394338e-39 2.2391220882596302e-39 0.0000000000000000e+00  -1.3926020270206230e-38 -1.5152397681781468e-38 0.0000000000000000e+00  9.9990832327698815e-38 1.0926713267982464e-37 0.0000000000000000e+00  -2.3214297129649691e-37 -2.5731338989905359e-37 0.0000000000000000e+00  2.6980755388174831e-37 3.1176830450509446e-37 0.0000000000000000e+00  -4.1710718800583874e-36 -4.9774467047866832e-36 0.0000000000000000e+00  1.3166704070634408e-35 1.5983395296151355e-35 0.0000000000000000e+00  -5.7037102403075531e-35 -7.0698692551790582e-35 0.0000000000000000e+00  1.2679466325795791e-34 1.6277762256788113e-34 0.0000000000000000e+00  -2.6049214856370813e-34 -3.5257594711178980e-34 0.0000000000000000e+00  1.3573913915408856e-33 1.8298266980174108e-33 0.0000000000000000e+00  -1.0228798396547837e-33 -1.3715413880452448e-33 0.0000000000000000e+00  5.5047014236837870e-33 7.2932036919088252e-33 0.0000000000000000e+00  4.2267240917541825e-32 6.4671459900954148e-32 0.0000000000000000e+00  -1.9893317634587702e-31 -2.9890277236082685e-31 0.0000000000000000e+00  -5.5054437352781178e-31 -8.9305759246535020e-31 0.0000000000000000e+00  1.0603670238933903e-30 1.7546657762952013e-30 0.0000000000000000e+00  -1.2072291639633879e-31 -1.8690204591408903e-31 0.0000000000000000e+00  -3.2597007790487287e-30 -5.6158972263186339e-30 0.0000000000000000e+00  9.6483760901862531e-30 1.6496524953215927e-29 0.0000000000000000e+00  1.4604166659030637e-29 2.7392869808801718e-29 0.0000000000000000e+00  -9.5310726846025369e-29 -1.7816280080256156e-28 0.0000000000000000e+00  3.0912065405425823e-29 5.8868312107013087e-29 0.0000000000000000e+00  9.9866726489488975e-29 2.0826415818998387e-28 0.0000000000000000e+00  3.7791303578919609e-29 7.3891528901937255e-29 0.0000000000000000e+00  3.2686045996987868e-28 6.8864421613575262e-28 0.0000000000000000e+00  1.3976269965321011e-28 3.3049360096684857e-28 0.0000000000000000e+00  -3.9408109393790714e-28 -8.5906707745833575e-28 0.0000000000000000e+00  -4.0115949627633392e-28 -1.0646746238878864e-27 0.0000000000000000e+00  3.9749277551419603e-28 9.8657674341976559e-28 0.0000000000000000e+00  7.2230752283314066e-28 1.8989291579284762e-27 0.0000000000000000e+00  3.8207644094137062e-28 1.1792684358390371e-27 0.0000000000000000e+00  8.9107799243874211e-29 4.7049723367355490e-28 0.0000000000000000e+00  -8.2463531902849830e-28 -2.5815978346370343e-27 0.0000000000000000e+00  -2.9642590679074843e-28 -8.8459622534347566e-28 0.0000000000000000e+00  -1.3212746643735758e-28 -3.9327015092236407e-28 0.0000000000000000e+00  -4.0184284983434700e-28 -1.6292783249775470e-27 0.0000000000000000e+00  -3.5293123955360631e-28 -1.5511412153421147e-27 0.0000000000000000e+00  -3.2591814810668294e-28 -1.9870821815112200e-27 0.0000000000000000e+00  2.3943960729970672e-29 -3.6629610497675571e-28 0.0000000000000000e+00  3.5690831634151117e-28 1.9859003519906348e-27 0.0000000000000000e+00  4.0630550107639882e-29 1.1547746438536858e-28 0.0000000000000000e+00  -2.5252140706424040e-28 -2.4323897548139072e-27 0.0000000000000000e+00  1.3511565256703596e-28 1.2054513383325113e-27 0.0000000000000000e+00  7.8710145994073513e-29 1.0649991939197796e-27 0.0000000000000000e+00  -5.9188359160329349e-29 -1.3854108427684436e-27 0.0000000000000000e+00  -8.0525120058039355e-30 -2.3741646796221874e-28 0.0000000000000000e+00  -6.1078140083282926e-30 -1.4776585773540286e-27 0.0000000000000000e+00  -5.2523740226807899e-29 2.3028275617933618e-27 0.0000000000000000e+00  -1.2102986337515114e-28 2.1515623887671922e-27 0.0000000000000000e+00  6.6575975164842034e-29 -1.6563632743913769e-27 0.0000000000000000e+00  -2.0807818149333762e-29 -1.9393108573560723e-28 0.0000000000000000e+00  2.3470272483327614e-28 -2.3195443931657490e-27 0.0000000000000000e+00  -2.8355126104515986e-28 1.6983336926734823e-27 0.0000000000000000e+00  -1.7205800344726987e-28 7.4549345618265343e-28 0.0000000000000000e+00  4.6189894993650800e-29 -7.3021832678334533e-28 0.0000000000000000e+00  -2.7186771505062491e-29 -2.3876055916006104e-28 0.0000000000000000e+00  5.7133858293656634e-28 -2.7805200585752225e-27 0.0000000000000000e+00  7.2496425921625506e-28 -3.3711488086733324e-27 0.0000000000000000e+00  1.1994184103008153e-27 -4.6557451542908313e-27 0.0000000000000000e+00  3.8946296026239531e-28 -1.2824520214921561e-27 0.0000000000000000e+00  -3.2098799576373445e-28 1.2406181894947988e-27 0.0000000000000000e+00  -8.0341580663332464e-28 2.4887243157997566e-27 0.0000000000000000e+00  -9.5270680053540889e-28 2.7183737633626788e-27 0.0000000000000000e+00  -2.7187193777408395e-28 6.8643965526573410e-28 0.0000000000000000e+00  1.6270278511829202e-28 -4.5322893031635768e-28 0.0000000000000000e+00  2.0241082536092609e-28 -5.1420042184306335e-28 0.0000000000000000e+00  8.3055045071923747e-28 -1.8822668187806811e-27 0.0000000000000000e+00  3.4429753125858955e-28 -7.3605518778896763e-28 0.0000000000000000e+00  -2.8414220047665573e-28 5.9620727561804792e-28 0.0000000000000000e+00  -1.0952263174304213e-29 2.7904255653645517e-29 0.0000000000000000e+00  3.1523274014081027e-29 -6.6681647974541843e-29 0.0000000000000000e+00  7.8139009326775778e-29 -1.5025820512344538e-28 0.0000000000000000e+00  -1.5958375632410276e-29 3.0735912722792656e-29 0.0000000000000000e+00  -2.3404777168781452e-29 4.1765240962915984e-29 0.0000000000000000e+00  2.23