<?xml version="1.0"?>
<VTKFile type="UnstructuredGrid"  version="0.1"  >
<UnstructuredGrid>
<Piece  NumberOfPoints="11902" NumberOfCells="23402">
<Points>
<DataArray  type="Float64"  NumberOfComponents="3"  format="ascii">-5 -5 0  5 -5 0  5 5 0  -5 5 0  1.06946381779721 0.0004582497145295671 0  -4.9 -5 0  -4.8 -5 0  -4.7 -5 0  -4.6 -5 0  -4.5 -5 0  -4.4 -5 0  -4.3 -5 0  -4.2 -5 0  -4.1 -5 0  -4 -5 0  -3.9 -5 0  -3.8 -5 0  -3.7 -5 0  -3.6 -5 0  -3.5 -5 0  -3.4 -5 0  -3.3 -5 0  -3.2 -5 0  -3.1 -5 0  -3 -5 0  -2.9 -5 0  -2.8 -5 0  -2.7 -5 0  -2.6 -5 0  -2.5 -5 0  -2.4 -5 0  -2.3 -5 0  -2.2 -5 0  -2.1 -5 0  -2 -5 0  -1.9 -5 0  -1.8 -5 0  -1.7 -5 0  -1.6 -5 0  -1.5 -5 0  -1.4 -5 0  -1.3 -5 0  -1.2 -5 0  -1.1 -5 0  -1 -5 0  -0.9000000000000004 -5 0  -0.7999999999999998 -5 0  -0.7000000000000002 -5 0  -0.5999999999999996 -5 0  -0.5 -5 0  -0.4000000000000004 -5 0  -0.2999999999999998 -5 0  -0.2000000000000002 -5 0  -0.09999999999999964 -5 0  0 -5 0  0.09999999999999964 -5 0  0.2000000000000002 -5 0  0.2999999999999998 -5 0  0.4000000000000004 -5 0  0.5 -5 0  0.5999999999999996 -5 0  0.7000000000000002 -5 0  0.7999999999999998 -5 0  0.9000000000000004 -5 0  1 -5 0  1.1 -5 0  1.2 -5 0  1.3 -5 0  1.4 -5 0  1.5 -5 0  1.6 -5 0  1.7 -5 0  1.8 -5 0  1.9 -5 0  2 -5 0  2.1 -5 0  2.2 -5 0  2.3 -5 0  2.4 -5 0  2.5 -5 0  2.6 -5 0  2.7 -5 0  2.8 -5 0  2.9 -5 0  3 -5 0  3.1 -5 0  3.199999999999999 -5 0  3.300000000000001 -5 0  3.4 -5 0  3.5 -5 0  3.6 -5 0  3.699999999999999 -5 0  3.800000000000001 -5 0  3.9 -5 0  4 -5 0  4.1 -5 0  4.199999999999999 -5 0  4.300000000000001 -5 0  4.4 -5 0  4.5 -5 0  4.6 -5 0  4.699999999999999 -5 0  4.800000000000001 -5 0  4.9 -5 0  5 -4.9 0  5 -4.8 0  5 -4.7 0  5 -4.6 0  5 -4.5 0  5 -4.4 0  5 -4.3 0  5 -4.2 0  5 -4.1 0  5 -4 0  5 -3.9 0  5 -3.8 0  5 -3.7 0  5 -3.6 0  5 -3.5 0  5 -3.4 0  5 -3.3 0  5 -3.2 0  5 -3.1 0  5 -3 0  5 -2.9 0  5 -2.8 0  5 -2.7 0  5 -2.6 0  5 -2.5 0  5 -2.4 0  5 -2.3 0  5 -2.2 0  5 -2.1 0  5 -2 0  5 -1.9 0  5 -1.8 0  5 -1.7 0  5 -1.6 0  5 -1.5 0  5 -1.4 0  5 -1.3 0  5 -1.2 0  5 -1.1 0  5 -1 0  5 -0.9000000000000004 0  5 -0.7999999999999998 0  5 -0.7000000000000002 0  5 -0.5999999999999996 0  5 -0.5 0  5 -0.4000000000000004 0  5 -0.2999999999999998 0  5 -0.2000000000000002 0  5 -0.09999999999999964 0  5 0 0  5 0.09999999999999964 0  5 0.2000000000000002 0  5 0.2999999999999998 0  5 0.4000000000000004 0  5 0.5 0  5 0.5999999999999996 0  5 0.7000000000000002 0  5 0.7999999999999998 0  5 0.9000000000000004 0  5 1 0  5 1.1 0  5 1.2 0  5 1.3 0  5 1.4 0  5 1.5 0  5 1.6 0  5 1.7 0  5 1.8 0  5 1.9 0  5 2 0  5 2.1 0  5 2.2 0  5 2.3 0  5 2.4 0  5 2.5 0  5 2.6 0  5 2.7 0  5 2.8 0  5 2.9 0  5 3 0  5 3.1 0  5 3.199999999999999 0  5 3.300000000000001 0  5 3.4 0  5 3.5 0  5 3.6 0  5 3.699999999999999 0  5 3.800000000000001 0  5 3.9 0  5 4 0  5 4.1 0  5 4.199999999999999 0  5 4.300000000000001 0  5 4.4 0  5 4.5 0  5 4.6 0  5 4.699999999999999 0  5 4.800000000000001 0  5 4.9 0  4.9 5 0  4.8 5 0  4.7 5 0  4.6 5 0  4.5 5 0  4.4 5 0  4.3 5 0  4.2 5 0  4.1 5 0  4 5 0  3.9 5 0  3.8 5 0  3.7 5 0  3.6 5 0  3.5 5 0  3.4 5 0  3.3 5 0  3.2 5 0  3.1 5 0  3 5 0  2.9 5 0  2.8 5 0  2.7 5 0  2.6 5 0  2.5 5 0  2.4 5 0  2.3 5 0  2.2 5 0  2.1 5 0  2 5 0  1.9 5 0  1.8 5 0  1.7 5 0  1.6 5 0  1.5 5 0  1.4 5 0  1.3 5 0  1.2 5 0  1.1 5 0  1 5 0  0.9000000000000004 5 0  0.7999999999999998 5 0  0.7000000000000002 5 0  0.5999999999999996 5 0  0.5 5 0  0.4000000000000004 5 0  0.2999999999999998 5 0  0.2000000000000002 5 0  0.09999999999999964 5 0  0 5 0  -0.09999999999999964 5 0  -0.2000000000000002 5 0  -0.2999999999999998 5 0  -0.4000000000000004 5 0  -0.5 5 0  -0.5999999999999996 5 0  -0.7000000000000002 5 0  -0.7999999999999998 5 0  -0.9000000000000004 5 0  -1 5 0  -1.1 5 0  -1.2 5 0  -1.3 5 0  -1.4 5 0  -1.5 5 0  -1.6 5 0  -1.7 5 0  -1.8 5 0  -1.9 5 0  -2 5 0  -2.1 5 0  -2.2 5 0  -2.3 5 0  -2.4 5 0  -2.5 5 0  -2.6 5 0  -2.7 5 0  -2.8 5 0  -2.9 5 0  -3 5 0  -3.1 5 0  -3.199999999999999 5 0  -3.300000000000001 5 0  -3.4 5 0  -3.5 5 0  -3.6 5 0  -3.699999999999999 5 0  -3.800000000000001 5 0  -3.9 5 0  -4 5 0  -4.1 5 0  -4.199999999999999 5 0  -4.300000000000001 5 0  -4.4 5 0  -4.5 5 0  -4.6 5 0  -4.699999999999999 5 0  -4.800000000000001 5 0  -4.9 5 0  -5 4.9 0  -5 4.8 0  -5 4.7 0  -5 4.6 0  -5 4.5 0  -5 4.4 0  -5 4.3 0  -5 4.2 0  -5 4.1 0  -5 4 0  -5 3.9 0  -5 3.8 0  -5 3.7 0  -5 3.6 0  -5 3.5 0  -5 3.4 0  -5 3.3 0  -5 3.2 0  -5 3.1 0  -5 3 0  -5 2.9 0  -5 2.8 0  -5 2.7 0  -5 2.6 0  -5 2.5 0  -5 2.4 0  -5 2.3 0  -5 2.2 0  -5 2.1 0  -5 2 0  -5 1.9 0  -5 1.8 0  -5 1.7 0  -5 1.6 0  -5 1.5 0  -5 1.4 0  -5 1.3 0  -5 1.2 0  -5 1.1 0  -5 1 0  -5 0.9000000000000004 0  -5 0.7999999999999998 0  -5 0.7000000000000002 0  -5 0.5999999999999996 0  -5 0.5 0  -5 0.4000000000000004 0  -5 0.2999999999999998 0  -5 0.2000000000000002 0  -5 0.09999999999999964 0  -5 0 0  -5 -0.09999999999999964 0  -5 -0.2000000000000002 0  -5 -0.2999999999999998 0  -5 -0.4000000000000004 0  -5 -0.5 0  -5 -0.5999999999999996 0  -5 -0.7000000000000002 0  -5 -0.7999999999999998 0  -5 -0.9000000000000004 0  -5 -1 0  -5 -1.1 0  -5 -1.2 0  -5 -1.3 0  -5 -1.4 0  -5 -1.5 0  -5 -1.6 0  -5 -1.7 0  -5 -1.8 0  -5 -1.9 0  -5 -2 0  -5 -2.1 0  -5 -2.2 0  -5 -2.3 0  -5 -2.4 0  -5 -2.5 0  -5 -2.6 0  -5 -2.7 0  -5 -2.8 0  -5 -2.9 0  -5 -3 0  -5 -3.1 0  -5 -3.199999999999999 0  -5 -3.300000000000001 0  -5 -3.4 0  -5 -3.5 0  -5 -3.6 0  -5 -3.699999999999999 0  -5 -3.800000000000001 0  -5 -3.9 0  -5 -4 0  -5 -4.1 0  -5 -4.199999999999999 0  -5 -4.300000000000001 0  -5 -4.4 0  -5 -4.5 0  -5 -4.6 0  -5 -4.699999999999999 0  -5 -4.800000000000001 0  -5 -4.9 0  1.06423837004427 0.1003226294705178 0  1.048229624439437 0.199579692403655 0  1.021342926903657 0.2970792327353065 0  0.9851469754879497 0.3908989377696467 0  0.9389915606239224 0.4816220788221134 0  0.8837835217542932 0.5672930164638094 0  0.8194209407644617 0.6470874738740426 0  0.7464568747521286 0.7203392913506308 0  0.6666181839971209 0.7866962647565776 0  0.5801709250033031 0.8454321781657334 0  0.4876711518506003 0.8954160964733922 0  0.3902197282570342 0.9366195982055798 0  0.2896676357120288 0.9688073547946431 0  0.18567753632967 0.9908768473109354 0  0.08031757379623453 1.003487168689406 0  -0.02609464237651371 1.006032544715522 0  -0.1322590936965813 0.9982955188472832 0  -0.2371637770340951 0.9811890021460092 0  -0.3396713965864036 0.9542086221706659 0  -0.4387133570740496 0.9174913000211624 0  -0.5332851482848027 0.8719991966112505 0  -0.6226942849608893 0.8175734078004062 0  -0.7059327374898031 0.7551647683066935 0  -0.7821966977672827 0.6853768309708581 0  -0.8508186897917596 0.6081907677267501 0  -0.9107238318212055 0.5251317774967638 0  -0.9620186304580096 0.4371788105552077 0  -1.003374521024575 0.3445463669819684 0  -1.034624652362214 0.2487512468846947 0  -1.055823826324225 0.1505186735437173 0  -1.066564399257403 0.05054349891354851 0  -1.066581695593891 -0.04997859276139443 0  -1.055861554401502 -0.1498667134069623 0  -1.035458024691666 -0.2480628655890594 0  -1.003366809464999 -0.3441662309360964 0  -0.9621568360625291 -0.4364693158159752 0  -0.9110082294155529 -0.5245527516613122 0  -0.8511524778555885 -0.6074330776533509 0  -0.782496851838773 -0.6842405306082738 0  -0.7059500201084963 -0.7539213263839695 0  -0.6224023684556804 -0.8159776291567165 0  -0.5335010641504453 -0.8707064092041811 0  -0.4380843337165829 -0.9161965848808152 0  -0.3389849094370014 -0.9531549250338265 0  -0.2363195472269645 -0.9803029198256293 0  -0.1315764424727163 -0.9976674620998773 0  -0.02562629086281669 -1.005767004869712 0  0.0804946005834011 -1.002982814829567 0  0.1862841309220115 -0.9901710056266958 0  0.2899060113361044 -0.9680278167803532 0  0.3912436711597176 -0.9358840856347134 0  0.4880103804387451 -0.894743528416973 0  0.5804360458209358 -0.8448124653325674 0  0.6667985987751489 -0.7868582475722123 0  0.7466102386439664 -0.7205127233270624 0  0.819214235466093 -0.6468025246016031 0  0.8833937791829068 -0.5667768743900266 0  0.9391676812185071 -0.4812930316839886 0  0.9858556127071468 -0.390929190563194 0  1.021937711258266 -0.2968099817386584 0  1.048274552247276 -0.1992910158652465 0  1.064275072373155 -0.1001919735056949 0  -2.449481370718785 4.919815180866778 0  -2.449437172846579 -4.912347290413358 0  4.912315246628367 2.4492288565529 0  4.920266405623269 -2.450569460074303 0  2.447330643461755 -4.897902819678334 0  2.441726317428189 4.901594596452245 0  -4.912326565315547 -2.449240587317828 0  -4.912328624066529 2.449244228169844 0  -1.74946495134447 4.913448702892032 0  -1.745210224978525 -4.916791992278839 0  4.922988942825336 1.745275906819477 0  4.911856352409683 -1.749213593248772 0  -4.912120372332239 -1.748927195853994 0  -4.912923723748105 1.748657619927024 0  1.746796442525641 4.907486930892143 0  1.748330591082476 -4.895951680612914 0  -1.14958124079353 4.911742836003957 0  -1.130362588135386 -4.919406999505551 0  -4.912508287563135 -1.149013742816179 0  -4.912337681788746 1.148812509994191 0  1.144527325743853 -4.915716286681335 0  1.149582117766692 4.911738235165662 0  4.912676155685629 1.147297654175333 0  4.923101319620677 -1.152953427151522 0  -0.5470539034830064 -4.913182207142497 0  -0.5467989925531126 4.921571120134388 0  -4.911779418397767 -0.5493118911239045 0  -4.911805565581007 0.5478627968700185 0  4.911163435578759 -0.5496418603488361 0  4.922331214115508 0.5463166724486308 0  0.5428725914662726 -4.900529192753567 0  0.5515339537213503 4.918508088996158 0  -4.913144832510152 -3.049370504744094 0  4.919632631773353 3.047317577538842 0  4.91266690858428 -3.049363826197802 0  -4.913986807992429 3.046453444167344 0  3.056109406674809 -4.918617103966243 0  -3.049500649137944 -4.912637611144266 0  3.053049703246163 4.914693405133053 0  -3.048941286745457 4.913517346293948 0  -4.911089079168536 -0.04996799814616398 0  0.04514348077994364 -4.915155911090941 0  0.04959401466486919 4.921937881883517 0  4.917872318501121 -0.05134628185851108 0  3.54626050771494 -4.919891591957746 0  -3.54959
[...]
<PointData  Vectors="f_732"> 
<DataArray  type="Float64"  Name="f_732"  NumberOfComponents="3" format="ascii">-1.6450767972705391e-40 -1.6848364516075438e-40 0.0000000000000000e+00  2.1467398578486189e-40 -2.1452725228950278e-40 0.0000000000000000e+00  -2.5023913150705877e-40 -2.5552611858892055e-40 0.0000000000000000e+00  -3.1764477876652449e-40 3.3620603935929599e-40 0.0000000000000000e+00  1.2872731518061462e+01 -6.7334077835878825e-01 0.0000000000000000e+00  3.6477734932327400e-40 3.7401007785257255e-40 0.0000000000000000e+00  8.2125692679702792e-40 9.2893559911677917e-40 0.0000000000000000e+00  -1.8231502034501060e-39 -2.1683078196360607e-39 0.0000000000000000e+00  1.8835784926003619e-38 2.1145189299211784e-38 0.0000000000000000e+00  -6.0712103721406397e-38 -6.5876403423165760e-38 0.0000000000000000e+00  2.3634115213501952e-37 2.5005364888847037e-37 0.0000000000000000e+00  -8.6635017777585594e-37 -9.3173119032570639e-37 0.0000000000000000e+00  5.0687911972619654e-36 6.1053240390735981e-36 0.0000000000000000e+00  -3.0595198541087845e-35 -3.9539777912059803e-35 0.0000000000000000e+00  1.2304624280695249e-34 1.6166541155739570e-34 0.0000000000000000e+00  -2.5787135685301031e-34 -3.5545034366593187e-34 0.0000000000000000e+00  4.9562642257624744e-34 7.1822609839503819e-34 0.0000000000000000e+00  1.7975957501094389e-33 2.6594313856029618e-33 0.0000000000000000e+00  -8.2582009459578260e-33 -1.2197868421357148e-32 0.0000000000000000e+00  2.4333005972406224e-32 3.6366280512050998e-32 0.0000000000000000e+00  -1.3578860950701519e-31 -2.0982462806661981e-31 0.0000000000000000e+00  3.5615308912309399e-31 5.5463465748875244e-31 0.0000000000000000e+00  1.8804927793935550e-31 3.5962973536563391e-31 0.0000000000000000e+00  -1.6070135963030752e-30 -2.9126678201986035e-30 0.0000000000000000e+00  -8.6883866129423299e-31 -1.3496169789047491e-30 0.0000000000000000e+00  -2.2980049233899208e-30 -3.6280971928552735e-30 0.0000000000000000e+00  5.5256325110843424e-30 9.7326978064630101e-30 0.0000000000000000e+00  -1.4345357845339656e-29 -2.1923718016196708e-29 0.0000000000000000e+00  4.6716801790344722e-29 8.0518686649662723e-29 0.0000000000000000e+00  2.8316281225311118e-29 5.2251614609781417e-29 0.0000000000000000e+00  -2.3139660300891267e-28 -4.4582953957822556e-28 0.0000000000000000e+00  -7.4710413324496439e-29 -1.5199702762097716e-28 0.0000000000000000e+00  -1.2130667062272615e-28 -2.3669173272159952e-28 0.0000000000000000e+00  2.2010785356011491e-28 4.5013533149398292e-28 0.0000000000000000e+00  6.7207388262865394e-28 1.4679341847737903e-27 0.0000000000000000e+00  -8.7850671717795937e-29 -1.2529359076828374e-28 0.0000000000000000e+00  1.2611402907567721e-28 3.8453383936511086e-28 0.0000000000000000e+00  -1.1466840354860974e-28 -2.6236428413341990e-28 0.0000000000000000e+00  -4.6828276163807010e-28 -1.3741906009066743e-27 0.0000000000000000e+00  -4.2323338223869350e-28 -1.3869424001626768e-27 0.0000000000000000e+00  -3.9728283151764591e-29 -1.9392580426023632e-28 0.0000000000000000e+00  4.6224772290491253e-28 1.6669511059409284e-27 0.0000000000000000e+00  2.4329957274614831e-28 1.0227239262882298e-27 0.0000000000000000e+00  -6.5868851141548004e-29 -1.9826589210758167e-28 0.0000000000000000e+00  7.3511664403736734e-29 4.1633829094495317e-28 0.0000000000000000e+00  3.7433616226919255e-28 1.1302997864419718e-27 0.0000000000000000e+00  4.6661033605044393e-28 1.8903158865957890e-27 0.0000000000000000e+00  -2.5263873932360200e-28 -1.0586714059598851e-27 0.0000000000000000e+00  9.3634045452071158e-28 6.1092341507996179e-27 0.0000000000000000e+00  2.0971891749985494e-29 -5.2846528299794740e-29 0.0000000000000000e+00  -4.3152875113438596e-28 -5.3393553289853380e-27 0.0000000000000000e+00  -5.1981252747646289e-29 -3.1691341295367846e-27 0.0000000000000000e+00  -1.5769130113077578e-28 -4.4982713383339276e-27 0.0000000000000000e+00  -4.2579821420291094e-28 -1.1067028645686655e-26 0.0000000000000000e+00  -2.4243124197469414e-28 -1.2682242297536782e-26 0.0000000000000000e+00  1.9726712215700867e-29 -2.2089995283741279e-27 0.0000000000000000e+00  1.8620677396271616e-28 -7.0018871751727412e-27 0.0000000000000000e+00  2.2834320516728168e-28 -2.6060978117604169e-27 0.0000000000000000e+00  4.6066383390048978e-28 -4.5754668033925358e-27 0.0000000000000000e+00  -2.5964259819179499e-28 1.9459038750585354e-27 0.0000000000000000e+00  7.8106166742888045e-28 -6.2011872445277910e-27 0.0000000000000000e+00  8.5258021962119354e-28 -5.6173280512466263e-27 0.0000000000000000e+00  -1.9506741445905915e-28 1.0680403389929019e-27 0.0000000000000000e+00  -1.7500781197610363e-27 8.1485857495092424e-27 0.0000000000000000e+00  -7.6512872352815118e-28 3.2282401459188866e-27 0.0000000000000000e+00  -3.9970218467433950e-28 1.9455782273315421e-27 0.0000000000000000e+00  -1.2408491236231487e-27 4.6476782621532812e-27 0.0000000000000000e+00  -7.3482048859179227e-28 2.4521612914478182e-27 0.0000000000000000e+00  8.6952127145282779e-28 -2.7075340353227681e-27 0.0000000000000000e+00  4.2138632470944806e-28 -1.2697528826602568e-27 0.0000000000000000e+00  8.8456952776066272e-29 -3.0137281116248932e-28 0.0000000000000000e+00  3.3092943072245124e-28 -9.8357155937237691e-28 0.0000000000000000e+00  3.0763095446073075e-28 -7.6987067696772887e-28 0.0000000000000000e+00  -2.6001952682413472e-28 6.2972263742513025e-28 0.0000000000000000e+00  -2.2237685114174931e-28 4.9013577724374853e-28 0.0000000000000000e+00  -1.5773152677341038e-28 3.3414552299852826e-28 0.0000000000000000e+00  1.7756996163570824e-29 -3.9951249988886137e-29 0.0000000000000000e+00  1.1445085223517376e-28 -2.3159286879875674e-28 0.0000000000000000e+00  1.6141312980036531e-28 -3.0134109254795704e-28 0.0000000000000000e+00  -4.9243831019102185e-30 1.5538501843950989e-29 0.0000000000000000e+00  -1.0973212325273116e-28 1.9346980373966212e-28 0.0000000000000000e+00  1.7920891325355536e-29 -3.2105980084886318e-29 0.0000000000000000e+00  5.9988817930513144e-30 -9.4752579702342220e-30 0.0000000000000000e+00  -1.4978725048913464e-29 2.5947201891669996e-29 0.0000000000000000e+00  -1.0262969347187746e-30 1.7716923813919440e-30 0.0000000000000000e+00  1.6446859118725727e-30 -2.7661347139928227e-30 0.0000000000000000e+00  -8.5735511051248660e-31 1.4177611797514779e-30 0.0000000000000000e+00  1.0673420197864390e-31 -1.7291424171863914e-31 0.0000000000000000e+00  -1.3081551076587665e-32 1.9965863131833617e-32 0.0000000000000000e+00  -3.3155121917590926e-34 7.3272544402540644e-34 0.0000000000000000e+00  6.9455388941867158e-33 -1.0467589085639030e-32 0.0000000000000000e+00  4.1570393130748952e-34 -5.2332517174915858e-34 0.0000000000000000e+00  -4.7209122209876013e-34 6.6479423609038226e-34 0.0000000000000000e+00  5.2951137744331732e-35 -7.9546089298698643e-35 0.0000000000000000e+00  -2.1584492784545551e-35 2.8704511186685308e-35 0.0000000000000000e+00  4.8703994440165112e-36 -6.2483646366653798e-36 0.0000000000000000e+00  -1.5363549125350522e-36 1.9402066583511476e-36 0.0000000000000000e+00  5.0733419940302688e-37 -6.0865285308052789e-37 0.0000000000000000e+00  -2.5275882619592743e-37 2.9990083964534342e-37 0.0000000000000000e+00  8.5549816832799630e-38 -1.0038660872929311e-37 0.0000000000000000e+00  -1.7870440303753240e-38 2.0278590064305293e-38 0.0000000000000000e+00  7.2681957344958083e-39 -8.0815476182504518e-39 0.0000000000000000e+00  -4.2057452098530444e-40 4.9395660879005991e-40 0.0000000000000000e+00  -3.6583261783032941e-40 3.7131238901190627e-40 0.0000000000000000e+00  -1.5726080013133583e-41 8.4217462253975007e-42 0.0000000000000000e+00  3.9824034473772473e-40 -4.0438316747706301e-40 0.0000000000000000e+00  -9.2908075416273810e-40 8.9909324142029293e-40 0.0000000000000000e+00  3.6850693139245968e-39 -3.4183790028485184e-39 0.0000000000000000e+00  -2.6517768627822822e-39 2.3098846767267588e-39 0.0000000000000000e+00  -1.5592313430296496e-38 1.4060194574812378e-38 0.0000000000000000e+00  6.4069788882193787e-38 -5.5634426712154416e-38 0.0000000000000000e+00  -9.1633565302162258e-38 7.6829504282569569e-38 0.0000000000000000e+00  -1.3894522887989682e-37 1.1654604623894163e-37 0.0000000000000000e+00  9.7036656524865801e-37 -7.8199621736418354e-37 0.0000000000000000e+00  -1.7575088875939427e-36 1.3787159830218120e-36 0.0000000000000000e+00  -1.2665067781967355e-36 9.5793641630737180e-37 0.0000000000000000e+00  1.3357189820210023e-35 -9.9061281095505404e-36 0.0000000000000000e+00  -2.6614595399144597e-35 1.9212999868469298e-35 0.0000000000000000e+00  -1.6887368762555371e-35 1.1445201161902256e-35 0.0000000000000000e+00  1.9375054924233088e-34 -1.3083012108203881e-34 0.0000000000000000e+00  -3.1929114203923738e-34 2.1274407358060151e-34 0.0000000000000000e+00  -4.0422398946987690e-34 2.4918115088395838e-34 0.0000000000000000e+00  2.6319212155173745e-33 -1.6087171444043133e-33 0.0000000000000000e+00  -2.6960521694314931e-33 1.6475379638466634e-33 0.0000000000000000e+00  -9.3439735551524298e-33 5.2027089679207882e-33 0.0000000000000000e+00  3.0237179986076097e-32 -1.6791836395814457e-32 0.0000000000000000e+00  1.4973913635293070e-33 3.2258728178920917e-34 0.0000000000000000e+00  -1.6179540029195612e-31 8.0821473292884996e-32 0.0000000000000000e+00  2.1975230822810152e-31 -1.1022939554279844e-31 0.0000000000000000e+00  5.2989312856071479e-31 -2.3280607413655219e-31 0.0000000000000000e+00  -1.6087043979185760e-30 7.1859146217587736e-31 0.0000000000000000e+00  -8.6399123373426874e-31 2.9116380522491846e-31 0.0000000000000000e+00  8.4278532816440440e-30 -3.3460854234043126e-30 0.0000000000000000e+00  -2.6649392987655413e-30 1.3717063110260031e-30 0.0000000000000000e+00  -3.6591159562476183e-29 1.2713387697118136e-29 0.0000000000000000e+00  3.0556640602779771e-29 -1.1837501051543448e-29 0.0000000000000000e+00  1.4670679202016660e-28 -4.4241821351774801e-29 0.0000000000000000e+00  -1.6545603612245304e-28 5.5550278543257012e-29 0.0000000000000000e+00  -6.0187347048610721e-28 1.5597650361622706e-28 0.0000000000000000e+00  6.2946408946436480e-28 -1.9794048524503630e-28 0.0000000000000000e+00  2.4774809900672403e-27 -5.5205073693228909e-28 0.0000000000000000e+00  -1.8406339018067271e-27 5.4394810965427230e-28 0.0000000000000000e+00  -9.4476809391547599e-27 1.7918714350154411e-27 0.0000000000000000e+00  2.2271401880730897e-27 -8.5441034771496240e-28 0.0000000000000000e+00  2.9126500804010122e-26 -4.8220307941267443e-27 0.0000000000000000e+00  1.4364352333748337e-26 -1.0406182787559880e-27 0.0000000000000000e+00  -8.2851441558340725e-26 1.1959136489901977e-26 0.0000000000000000e+00  -1.2552369924405378e-25 1.4269390333697659e-26 0.0000000000000000e+00  1.4546602865628499e-25 -1.1404315244129099e-26 0.0000000000000000e+00  8.4090349510158499e-25 -4.2858503776218262e-26 0.0000000000000000e+00  1.5365773246825864e-24 -3.9358394783247149e-26 0.0000000000000000e+00  1.8756581045437671e-24 -1.0802559215749161e-26 0.0000000000000000e+00  1.8350725794506329e-24 4.8924382364754901e-27 0.0000000000000000e+00  1.8597999015592274e-24 -4.3504631328710363e-27 0.0000000000000000e+00  1.9991561618251820e-24 -3.4950403938422066e-27 0.0000000000000000e+00  1.8583473682993716e-24 2.1951456807301567e-26 0.0000000000000000e+00  1.2152060512857523e-24 3.9767791280149028e-26 0.0000000000000000e+00  3.5364071698816798e-25 2.3077159814116133e-26 0.0000000000000000e+00  -1.7165076097819083e-25 -8.4173566104292363e-27 0.0000000000000000e+00  -2.1968715879913083e-25 -2.0030201040795353e-26 0.0000000000000000e+00  -3.9271147316490132e-26 -6.2589077175580944e-27 0.0000000000000000e+00  6.0456874410894867e-26 6.7996739866861039e-27 0.0000000000000000e+00  3.6979188135970254e-26 5.6548583178816004e-27 0.0000000000000000e+00  -5.2172478673412944e-27 -6.6068770089235992e-28 0.0000000000000000e+00  -1.0901972388451671e-26 -2.0809730632247029e-27 0.0000000000000000e+00  -7.9668924876996356e-28 -2.2149862919012693e-28 0.0000000000000000e+00  2.6923941360216213e-27 6.1857396767238353e-28 0.0000000000000000e+00  4.0416642092133283e-28 1.1487381092522394e-28 0.0000000000000000e+00  -6.3469170088882506e-28 -1.7303688068305921e-28 0.0000000000000000e+00  -9.1777905800119656e-29 -3.0594549169322481e-29 0.0000000000000000e+00  1.4749161259742200e-28 4.7480342893409141e-29 0.0000000000000000e+00  7.5709300794642988e-30 3.6347888978607883e-30 0.0000000000000000e+00  -3.3178676955487780e-29 -1.2294515194496742e-29 0.0000000000000000e+00  2.6501485310251484e-30 7.8674730906049310e-31 0.0000000000000000e+00  6.3661911343450752e-30 2.7196693380131464e-30 0.0000000000000000e+00  -1.8354206339256684e-30 -7.3904258575713996e-31 0.0000000000000000e+00  -9.4716074460211354e-31 -4.5999480927120803e-31 0.0000000000000000e+00  6.0309330653449960e-31 2.8168110062253897e-31 0.0000000000000000e+00  3.5187145733445847e-32 2.5438366056371826e-32 0.0000000000000000e+00  -1.3399030151515011e-31 -6.9359345521260937e-32 0.0000000000000000e+00  3.0042287307117103e-32 1.4433538622402353e-32 0.0000000000000000e+00  1.9328583412063812e-32 1.1199662551603380e-32 0.0000000000000000e+00  -1.2364177130152076e-32 -6.9271047059789047e-33 0.0000000000000000e+00  1.8495934383780956e-34 -2.7545856505546216e-35 0.0000000000000000e+00  2.2313186997324014e-33 1.3951554373862287e-33 0.0000000000000000e+00  -8.4842654062657042e-34 -5.1877924832721616e-34 0.0000000000000000e+00  -1.1780783542063861e-34 -8.7177706001132503e-35 0.0000000000000000e+00  2.0436302905425453e-34 1.3784598684575752e-34 0.0000000000000000e+00  -5.7692740557159123e-35 -3.8833275704744164e-35 0.0000000000000000e+00  -1.3365612681185247e-35 -9.9880010776329672e-36 0.0000000000000000e+00  1.5187899702572962e-35 1.1129501394372984e-35 0.0000000000000000e+00  -3.9583467045863203e-36 -2.9174418247444411e-36 0.0000000000000000e+00  -9.3944981606172339e-37 -7.4490003955400220e-37 0.0000000000000000e+00  1.0682577748488937e-36 8.4610800475284954e-37 0.0000000000000000e+00  -3.0848118381343328e-37 -2.4942136361337548e-37 0.0000000000000000e+00  -3.8674261030729951e-38 -3.2172946584182427e-38 0.0000000000000000e+00  6.7328755045420077e-38 5.7378969700732230e-38 0.0000000000000000e+00  -2.5550610959244743e-38 -2.2340026214494414e-38 0.0000000000000000e+00  8.6219828891269309e-40 8.3143728551521769e-40 0.0000000000000000e+00  3.6178235472435025e-39 3.2694242677411707e-39 0.0000000000000000e+00  -1.8802322680768443e-39 -1.7494659410857016e-39 0.0000000000000000e+00  4.0304731239899812e-40 3.8761081489197743e-40 0.0000000000000000e+00  1.9747236714475169e-40 1.8779203695009242e-40 0.0000000000000000e+00  3.6959089488665550e-40 4.0086116780538528e-40 0.0000000000000000e+00  -1.0945157185850125e-39 -1.1580141324989867e-39 0.0000000000000000e+00  2.1415234855940309e-39 2.3371127169195802e-39 0.0000000000000000e+00  -1.4485657604970723e-38 -1.5721009181142803e-38 0.0000000000000000e+00  1.0267630743639769e-37 1.1402890729504219e-37 0.0000000000000000e+00  -2.3230929716073971e-37 -2.6660124742478089e-37 0.0000000000000000e+00  2.6313393620724333e-37 3.1548232424785142e-37 0.0000000000000000e+00  -4.2534153303747540e-36 -5.1545379300098252e-36 0.0000000000000000e+00  1.3798342031997155e-35 1.6637898699959370e-35 0.0000000000000000e+00  -6.0935557542323727e-35 -7.4276798466298410e-35 0.0000000000000000e+00  1.3643336711553187e-34 1.7394066000836660e-34 0.0000000000000000e+00  -2.9342870983842611e-34 -3.9179871654812636e-34 0.0000000000000000e+00  1.4694132007330152e-33 1.9885243648977107e-33 0.0000000000000000e+00  -1.1889518986380291e-33 -1.6290188582871576e-33 0.0000000000000000e+00  6.1120961330551336e-33 7.9840101548824045e-33 0.0000000000000000e+00  4.3859099685661486e-32 6.9148095320644454e-32 0.0000000000000000e+00  -2.0909166586232145e-31 -3.2112686415375099e-31 0.0000000000000000e+00  -5.6370587614714690e-31 -9.4669455564052464e-31 0.0000000000000000e+00  1.0642844354245096e-30 1.8358959482111589e-30 0.0000000000000000e+00  -7.2285506484425262e-32 -1.2495512264151209e-31 0.0000000000000000e+00  -3.3285715600490542e-30 -5.6743110214986356e-30 0.0000000000000000e+00  9.8268671139327371e-30 1.5886083951258135e-29 0.0000000000000000e+00  1.4935575129495955e-29 2.7356459082172659e-29 0.0000000000000000e+00  -9.8241121858741047e-29 -1.7802071370391443e-28 0.0000000000000000e+00  3.1810789891120770e-29 6.0172123291130145e-29 0.0000000000000000e+00  9.8121771548714361e-29 2.0957788280997040e-28 0.0000000000000000e+00  4.2292358756532782e-29 7.4489494973192303e-29 0.0000000000000000e+00  3.5801829628359091e-28 7.0478271607621432e-28 0.0000000000000000e+00  1.5113226207113948e-28 3.4160439069124460e-28 0.0000000000000000e+00  -4.4491218563114302e-28 -9.0940807592548428e-28 0.0000000000000000e+00  -3.9467137801262583e-28 -1.0300129671900192e-27 0.0000000000000000e+00  4.2243596653590355e-28 9.9009676502160409e-28 0.0000000000000000e+00  7.7630152563261059e-28 1.9296398127219480e-27 0.0000000000000000e+00  3.9505628599915659e-28 1.1707910698442058e-27 0.0000000000000000e+00  5.4306045820985078e-29 4.1629196729077528e-28 0.0000000000000000e+00  -8.9575140981391458e-28 -2.6391717379852297e-27 0.0000000000000000e+00  -3.4217734712434648e-28 -9.4536777916283217e-28 0.0000000000000000e+00  -1.7022685043774111e-28 -4.6348902677294094e-28 0.0000000000000000e+00  -4.4739661241949207e-28 -1.7080662751511239e-27 0.0000000000000000e+00  -4.0528749112768564e-28 -1.6639080043726573e-27 0.0000000000000000e+00  -3.3522735756480780e-28 -1.9893217731720441e-27 0.0000000000000000e+00  8.8637861172943861e-29 -1.6836008081536983e-28 0.0000000000000000e+00  4.7169811010687007e-28 2.4074338629257671e-27 0.0000000000000000e+00  7.7354105639878072e-29 2.9356207872640688e-28 0.0000000000000000e+00  -3.1192921104594902e-28 -2.6818245902891185e-27 0.0000000000000000e+00  2.0393434601214189e-28 1.5849355966030315e-27 0.0000000000000000e+00  1.2625023973657576e-28 1.4386672040301365e-27 0.0000000000000000e+00  -8.2082108304640019e-29 -1.4176719818429190e-27 0.0000000000000000e+00  -1.0397630635923632e-29 -8.6804927497000006e-29 0.0000000000000000e+00  -3.8525031346090748e-29 -1.4782538278519744e-27 0.0000000000000000e+00  -3.4007984794372563e-29 2.7420999364393022e-27 0.0000000000000000e+00  -1.2688017797454779e-28 2.5712263310226399e-27 0.0000000000000000e+00  2.4156228398895667e-29 -1.7152880766065592e-27 0.0000000000000000e+00  -5.8756179489593535e-29 -1.0072433722377285e-28 0.0000000000000000e+00  2.2663724091049076e-28 -2.4473604726612970e-27 0.0000000000000000e+00  -3.7153021353414777e-28 1.9786339786789765e-27 0.0000000000000000e+00  -2.4030507834577056e-28 9.4639759021817741e-28 0.0000000000000000e+00  -1.9198939335400941e-29 -6.5214551818187204e-28 0.0000000000000000e+00  -8.5593888291165531e-29 -1.3095210307501919e-28 0.0000000000000000e+00  6.1168345836686899e-28 -2.9051916317726070e-27 0.0000000000000000e+00  7.3324199549501237e-28 -3.3948008340771372e-27 0.0000000000000000e+00  1.2820474479638623e-27 -4.7639403325584356e-27 0.0000000000000000e+00  4.2757812836123169e-28 -1.3262743322772524e-27 0.0000000000000000e+00  -3.0857338141197226e-28 1.1947315870258351e-27 0.0000000000000000e+00  -8.5065960932303928e-28 2.5095999800177506e-27 0.0000000000000000e+00  -1.0179600662745026e-27 2.7525625777286352e-27 0.0000000000000000e+00  -3.0423193690244362e-28 7.1716064003167102e-28 0.0000000000000000e+00  1.5870976352113211e-28 -4.3051387339710213e-28 0.0000000000000000e+00  2.2673076806054970e-28 -5.4023713061610945e-28 0.0000000000000000e+00  9.2609065411818400e-28 -1.9587279176529135e-27 0.0000000000000000e+00  3.7978763483717186e-28 -7.6106002244260609e-28 0.0000000000000000e+00  -3.1251390749479994e-28 6.1068836296965168e-28 0.0000000000000000e+00  -1.0373958610404414e-29 3.2647106398355341e-29 0.0000000000000000e+00  3.3351203092218825e-29 -6.8625651989842606e-29 0.0000000000000000e+00  8.4524161565869045e-29 -1.5609405970470070e-28 0.0000000000000000e+00  -1.6911398908879950e-29 3.1613512736263525e-29 0.0000000000000000e+00  -2.4769430518733960e-29 4.2469021305994502e-29 0.0000000000000000e+00  2.5261