<?xml version="1.0"?>
<VTKFile type="UnstructuredGrid"  version="0.1"  >
<UnstructuredGrid>
<Piece  NumberOfPoints="11902" NumberOfCells="23402">
<Points>
<DataArray  type="Float64"  NumberOfComponents="3"  format="ascii">-5 -5 0  5 -5 0  5 5 0  -5 5 0  1.158916580830249 0.001062626219501671 0  -4.9 -5 0  -4.8 -5 0  -4.7 -5 0  -4.6 -5 0  -4.5 -5 0  -4.4 -5 0  -4.3 -5 0  -4.2 -5 0  -4.1 -5 0  -4 -5 0  -3.9 -5 0  -3.8 -5 0  -3.7 -5 0  -3.6 -5 0  -3.5 -5 0  -3.4 -5 0  -3.3 -5 0  -3.2 -5 0  -3.1 -5 0  -3 -5 0  -2.9 -5 0  -2.8 -5 0  -2.7 -5 0  -2.6 -5 0  -2.5 -5 0  -2.4 -5 0  -2.3 -5 0  -2.2 -5 0  -2.1 -5 0  -2 -5 0  -1.9 -5 0  -1.8 -5 0  -1.7 -5 0  -1.6 -5 0  -1.5 -5 0  -1.4 -5 0  -1.3 -5 0  -1.2 -5 0  -1.1 -5 0  -1 -5 0  -0.9000000000000004 -5 0  -0.7999999999999998 -5 0  -0.7000000000000002 -5 0  -0.5999999999999996 -5 0  -0.5 -5 0  -0.4000000000000004 -5 0  -0.2999999999999998 -5 0  -0.2000000000000002 -5 0  -0.09999999999999964 -5 0  0 -5 0  0.09999999999999964 -5 0  0.2000000000000002 -5 0  0.2999999999999998 -5 0  0.4000000000000004 -5 0  0.5 -5 0  0.5999999999999996 -5 0  0.7000000000000002 -5 0  0.7999999999999998 -5 0  0.9000000000000004 -5 0  1 -5 0  1.1 -5 0  1.2 -5 0  1.3 -5 0  1.4 -5 0  1.5 -5 0  1.6 -5 0  1.7 -5 0  1.8 -5 0  1.9 -5 0  2 -5 0  2.1 -5 0  2.2 -5 0  2.3 -5 0  2.4 -5 0  2.5 -5 0  2.6 -5 0  2.7 -5 0  2.8 -5 0  2.9 -5 0  3 -5 0  3.1 -5 0  3.199999999999999 -5 0  3.300000000000001 -5 0  3.4 -5 0  3.5 -5 0  3.6 -5 0  3.699999999999999 -5 0  3.800000000000001 -5 0  3.9 -5 0  4 -5 0  4.1 -5 0  4.199999999999999 -5 0  4.300000000000001 -5 0  4.4 -5 0  4.5 -5 0  4.6 -5 0  4.699999999999999 -5 0  4.800000000000001 -5 0  4.9 -5 0  5 -4.9 0  5 -4.8 0  5 -4.7 0  5 -4.6 0  5 -4.5 0  5 -4.4 0  5 -4.3 0  5 -4.2 0  5 -4.1 0  5 -4 0  5 -3.9 0  5 -3.8 0  5 -3.7 0  5 -3.6 0  5 -3.5 0  5 -3.4 0  5 -3.3 0  5 -3.2 0  5 -3.1 0  5 -3 0  5 -2.9 0  5 -2.8 0  5 -2.7 0  5 -2.6 0  5 -2.5 0  5 -2.4 0  5 -2.3 0  5 -2.2 0  5 -2.1 0  5 -2 0  5 -1.9 0  5 -1.8 0  5 -1.7 0  5 -1.6 0  5 -1.5 0  5 -1.4 0  5 -1.3 0  5 -1.2 0  5 -1.1 0  5 -1 0  5 -0.9000000000000004 0  5 -0.7999999999999998 0  5 -0.7000000000000002 0  5 -0.5999999999999996 0  5 -0.5 0  5 -0.4000000000000004 0  5 -0.2999999999999998 0  5 -0.2000000000000002 0  5 -0.09999999999999964 0  5 0 0  5 0.09999999999999964 0  5 0.2000000000000002 0  5 0.2999999999999998 0  5 0.4000000000000004 0  5 0.5 0  5 0.5999999999999996 0  5 0.7000000000000002 0  5 0.7999999999999998 0  5 0.9000000000000004 0  5 1 0  5 1.1 0  5 1.2 0  5 1.3 0  5 1.4 0  5 1.5 0  5 1.6 0  5 1.7 0  5 1.8 0  5 1.9 0  5 2 0  5 2.1 0  5 2.2 0  5 2.3 0  5 2.4 0  5 2.5 0  5 2.6 0  5 2.7 0  5 2.8 0  5 2.9 0  5 3 0  5 3.1 0  5 3.199999999999999 0  5 3.300000000000001 0  5 3.4 0  5 3.5 0  5 3.6 0  5 3.699999999999999 0  5 3.800000000000001 0  5 3.9 0  5 4 0  5 4.1 0  5 4.199999999999999 0  5 4.300000000000001 0  5 4.4 0  5 4.5 0  5 4.6 0  5 4.699999999999999 0  5 4.800000000000001 0  5 4.9 0  4.9 5 0  4.8 5 0  4.7 5 0  4.6 5 0  4.5 5 0  4.4 5 0  4.3 5 0  4.2 5 0  4.1 5 0  4 5 0  3.9 5 0  3.8 5 0  3.7 5 0  3.6 5 0  3.5 5 0  3.4 5 0  3.3 5 0  3.2 5 0  3.1 5 0  3 5 0  2.9 5 0  2.8 5 0  2.7 5 0  2.6 5 0  2.5 5 0  2.4 5 0  2.3 5 0  2.2 5 0  2.1 5 0  2 5 0  1.9 5 0  1.8 5 0  1.7 5 0  1.6 5 0  1.5 5 0  1.4 5 0  1.3 5 0  1.2 5 0  1.1 5 0  1 5 0  0.9000000000000004 5 0  0.7999999999999998 5 0  0.7000000000000002 5 0  0.5999999999999996 5 0  0.5 5 0  0.4000000000000004 5 0  0.2999999999999998 5 0  0.2000000000000002 5 0  0.09999999999999964 5 0  0 5 0  -0.09999999999999964 5 0  -0.2000000000000002 5 0  -0.2999999999999998 5 0  -0.4000000000000004 5 0  -0.5 5 0  -0.5999999999999996 5 0  -0.7000000000000002 5 0  -0.7999999999999998 5 0  -0.9000000000000004 5 0  -1 5 0  -1.1 5 0  -1.2 5 0  -1.3 5 0  -1.4 5 0  -1.5 5 0  -1.6 5 0  -1.7 5 0  -1.8 5 0  -1.9 5 0  -2 5 0  -2.1 5 0  -2.2 5 0  -2.3 5 0  -2.4 5 0  -2.5 5 0  -2.6 5 0  -2.7 5 0  -2.8 5 0  -2.9 5 0  -3 5 0  -3.1 5 0  -3.199999999999999 5 0  -3.300000000000001 5 0  -3.4 5 0  -3.5 5 0  -3.6 5 0  -3.699999999999999 5 0  -3.800000000000001 5 0  -3.9 5 0  -4 5 0  -4.1 5 0  -4.199999999999999 5 0  -4.300000000000001 5 0  -4.4 5 0  -4.5 5 0  -4.6 5 0  -4.699999999999999 5 0  -4.800000000000001 5 0  -4.9 5 0  -5 4.9 0  -5 4.8 0  -5 4.7 0  -5 4.6 0  -5 4.5 0  -5 4.4 0  -5 4.3 0  -5 4.2 0  -5 4.1 0  -5 4 0  -5 3.9 0  -5 3.8 0  -5 3.7 0  -5 3.6 0  -5 3.5 0  -5 3.4 0  -5 3.3 0  -5 3.2 0  -5 3.1 0  -5 3 0  -5 2.9 0  -5 2.8 0  -5 2.7 0  -5 2.6 0  -5 2.5 0  -5 2.4 0  -5 2.3 0  -5 2.2 0  -5 2.1 0  -5 2 0  -5 1.9 0  -5 1.8 0  -5 1.7 0  -5 1.6 0  -5 1.5 0  -5 1.4 0  -5 1.3 0  -5 1.2 0  -5 1.1 0  -5 1 0  -5 0.9000000000000004 0  -5 0.7999999999999998 0  -5 0.7000000000000002 0  -5 0.5999999999999996 0  -5 0.5 0  -5 0.4000000000000004 0  -5 0.2999999999999998 0  -5 0.2000000000000002 0  -5 0.09999999999999964 0  -5 0 0  -5 -0.09999999999999964 0  -5 -0.2000000000000002 0  -5 -0.2999999999999998 0  -5 -0.4000000000000004 0  -5 -0.5 0  -5 -0.5999999999999996 0  -5 -0.7000000000000002 0  -5 -0.7999999999999998 0  -5 -0.9000000000000004 0  -5 -1 0  -5 -1.1 0  -5 -1.2 0  -5 -1.3 0  -5 -1.4 0  -5 -1.5 0  -5 -1.6 0  -5 -1.7 0  -5 -1.8 0  -5 -1.9 0  -5 -2 0  -5 -2.1 0  -5 -2.2 0  -5 -2.3 0  -5 -2.4 0  -5 -2.5 0  -5 -2.6 0  -5 -2.7 0  -5 -2.8 0  -5 -2.9 0  -5 -3 0  -5 -3.1 0  -5 -3.199999999999999 0  -5 -3.300000000000001 0  -5 -3.4 0  -5 -3.5 0  -5 -3.6 0  -5 -3.699999999999999 0  -5 -3.800000000000001 0  -5 -3.9 0  -5 -4 0  -5 -4.1 0  -5 -4.199999999999999 0  -5 -4.300000000000001 0  -5 -4.4 0  -5 -4.5 0  -5 -4.6 0  -5 -4.699999999999999 0  -5 -4.800000000000001 0  -5 -4.9 0  1.153289260938984 0.1000042470841024 0  1.135555673863741 0.1989018433902144 0  1.105671078325022 0.2965370937567171 0  1.066629345376359 0.3891294757031993 0  1.016217324174382 0.4800337747893045 0  0.9564595528661856 0.5654950522534899 0  0.8863020215191351 0.6452760958601195 0  0.806822533096475 0.7181543739867278 0  0.7203386515846287 0.7842087217971546 0  0.6264536148227127 0.8429756382119368 0  0.5256896853270681 0.893238400739422 0  0.4201246629051718 0.9347471613944209 0  0.3119454104642594 0.9673998210310686 0  0.1993088108499304 0.9896983643446282 0  0.08654647501493505 1.003110962875627 0  -0.02742606471560225 1.005761939203784 0  -0.1412836735020837 0.9971683435033335 0  -0.2547555841664174 0.97989866646872 0  -0.3656419403434359 0.9532386494050831 0  -0.4722551119735817 0.9165697067856112 0  -0.5739244404158392 0.8712028638646876 0  -0.6704829944922699 0.8165314469293037 0  -0.760309409411723 0.7539968338146247 0  -0.843090310610271 0.6840241394542517 0  -0.9181640172777893 0.6062346433104638 0  -0.9834589401271129 0.5233279580219976 0  -1.039709862067367 0.4358428836697379 0  -1.08494941717415 0.3432548631546282 0  -1.118971794678333 0.2481792779415413 0  -1.142029697010794 0.1506451523924722 0  -1.153762574196268 0.05087413168138399 0  -1.153783729769564 -0.04949961122272938 0  -1.142051165953376 -0.1490349161550741 0  -1.120165326957653 -0.246574515247789 0  -1.084743232157109 -0.3427562662250935 0  -1.040065311515962 -0.4345812300059889 0  -0.9842227941080022 -0.5223300149320634 0  -0.9192281043870669 -0.6048702283257789 0  -0.8442438931201522 -0.6817235172286349 0  -0.7609478062835798 -0.7511224640673214 0  -0.6702410252571734 -0.8126821436232723 0  -0.5742833491506359 -0.8673243478958612 0  -0.4703304043249473 -0.9132839189931977 0  -0.36349956703322 -0.9508968513342391 0  -0.252572316655099 -0.978384932155401 0  -0.1399599099484709 -0.9961286587153874 0  -0.02671543548922323 -1.005093266552125 0  0.08709268648651647 -1.001541491241495 0  0.2012571610520917 -0.9879406380096101 0  0.3130025109122039 -0.9658604096063381 0  0.4227729275467997 -0.9334081764791811 0  0.526877358107119 -0.8922434810067464 0  0.627038401357166 -0.8423142737825098 0  0.7205708076973572 -0.7849037976438025 0  0.8069628260629906 -0.7186734011243499 0  0.885888285203362 -0.6447149154157705 0  0.9554201760601926 -0.5647722144476306 0  1.016248337539797 -0.4795479868202748 0  1.067718241275749 -0.3892359942367977 0  1.106870930174103 -0.2955422606328629 0  1.135700415483303 -0.1982166778028344 0  1.1533028023473 -0.09961764972912474 0  -2.44896476258204 4.918857362549115 0  -2.448875052156148 -4.911303029011755 0  4.911246096042516 2.448474068315168 0  4.919296355851937 -2.449883089576358 0  2.446676487919088 -4.896675707496262 0  2.441093420067748 4.900407611602523 0  -4.911266444446953 -2.448494173358351 0  -4.911265683741672 2.44849799301142 0  -1.748933335509296 4.912074293497473 0  -1.744701999057538 -4.915473145174247 0  4.921641070795046 1.744594250081952 0  4.910317352401049 -1.748432084060211 0  -4.910598563850687 -1.748157460383061 0  -4.911412627143832 1.747896105190763 0  1.746232132215264 4.906010176543394 0  1.747698458826004 -4.894293778634911 0  -1.149159405601605 4.910082977382725 0  -1.129983388245029 -4.917890231995405 0  -4.910606356280676 -1.148381471849938 0  -4.910429327154019 1.14818126831999 0  1.144133272750817 -4.914128076007351 0  1.149165337513048 4.910073331751084 0  4.910758205429803 1.146660462086661 0  4.921416582978566 -1.15238966028838 0  -0.5468348433958317 -4.911383371585249 0  -0.5466006454154414 4.919940659368362 0  -4.909572499351611 -0.5489608174004308 0  -4.909597367452236 0.5475157144433179 0  4.908919424739166 -0.5492839531016952 0  4.920368225694868 0.5460068992045348 0  0.5426327468125595 -4.898462591310256 0  0.5513322568039197 4.916812242500591 0  -4.912428692659597 -3.048752742283911 0  4.918964111433481 3.046739306057814 0  4.91194253337526 -3.04873586803155 0  -4.913273941655598 3.045840590073286 0  3.055647536721301 -4.917913042708038 0  -3.049004088689869 -4.911885274153814 0  3.052563526021135 4.913953334178547 0  -3.048447684906102 4.912770492593995 0  -4.908768037985261 -0.04993289270858918 0  0.04513022912369055 -4.913344431479935 0  0.04957883880192144 4.920266122438161 0  4.915707580600859 -0.05131340011728659 0  3.545893303134333 -4.919397622244884 0  -3.549198064254599 4.
[...]
<PointData  Scalars="f_27"> 
<DataArray  type="Float64"  Name="f_27"  format="ascii">0.0000000000000000e+00  0.0000000000000000e+00  0.0000000000000000e+00  0.0000000000000000e+00  7.7957542209540498e-01  0.0000000000000000e+00  0.0000000000000000e+00  0.0000000000000000e+00  0.0000000000000000e+00  0.0000000000000000e+00  0.0000000000000000e+00  0.0000000000000000e+00  0.0000000000000000e+00  0.0000000000000000e+00  0.0000000000000000e+00  0.0000000000000000e+00  0.0000000000000000e+00  0.0000000000000000e+00  0.0000000000000000e+00  0.0000000000000000e+00  0.0000000000000000e+00  0.0000000000000000e+00  0.0000000000000000e+00  0.0000000000000000e+00  0.0000000000000000e+00  0.0000000000000000e+00  0.0000000000000000e+00  0.0000000000000000e+00  0.0000000000000000e+00  0.0000000000000000e+00  0.0000000000000000e+00  0.0000000000000000e+00  0.0000000000000000e+00  0.0000000000000000e+00  0.0000000000000000e+00  0.0000000000000000e+00  0.0000000000000000e+00  0.0000000000000000e+00  0.0000000000000000e+00  0.0000000000000000e+00  0.0000000000000000e+00  0.0000000000000000e+00  0.0000000000000000e+00  0.0000000000000000e+00  0.0000000000000000e+00  0.0000000000000000e+00  0.0000000000000000e+00  0.0000000000000000e+00  0.0000000000000000e+00  0.0000000000000000e+00  0.0000000000000000e+00  0.0000000000000000e+00  0.0000000000000000e+00  0.0000000000000000e+00  0.0000000000000000e+00  0.0000000000000000e+00  0.0000000000000000e+00  0.0000000000000000e+00  0.0000000000000000e+00  0.0000000000000000e+00  0.0000000000000000e+00  0.0000000000000000e+00  0.0000000000000000e+00  0.0000000000000000e+00  0.0000000000000000e+00  0.0000000000000000e+00  0.0000000000000000e+00  0.0000000000000000e+00  0.0000000000000000e+00  0.0000000000000000e+00  0.0000000000000000e+00  0.0000000000000000e+00  0.0000000000000000e+00  0.0000000000000000e+00  0.0000000000000000e+00  0.0000000000000000e+00  0.0000000000000000e+00  0.0000000000000000e+00  0.0000000000000000e+00  0.0000000000000000e+00  0.0000000000000000e+00  0.0000000000000000e+00  0.0000000000000000e+00  0.0000000000000000e+00  0.0000000000000000e+00  0.0000000000000000e+00  0.0000000000000000e+00  0.0000000000000000e+00  0.0000000000000000e+00  0.0000000000000000e+00  0.0000000000000000e+00  0.0000000000000000e+00  0.0000000000000000e+00  0.0000000000000000e+00  0.0000000000000000e+00  0.0000000000000000e+00  0.0000000000000000e+00  0.0000000000000000e+00  0.0000000000000000e+00  0.0000000000000000e+00  0.0000000000000000e+00  0.0000000000000000e+00  0.0000000000000000e+00  0.0000000000000000e+00  0.0000000000000000e+00  0.0000000000000000e+00  0.0000000000000000e+00  0.0000000000000000e+00  0.0000000000000000e+00  0.0000000000000000e+00  0.0000000000000000e+00  0.0000000000000000e+00  0.0000000000000000e+00  0.0000000000000000e+00  0.0000000000000000e+00  0.0000000000000000e+00  0.0000000000000000e+00  0.0000000000000000e+00  0.0000000000000000e+00  0.0000000000000000e+00  0.0000000000000000e+00  0.0000000000000000e+00  0.0000000000000000e+00  0.0000000000000000e+00  0.0000000000000000e+00  0.0000000000000000e+00  0.0000000000000000e+00  0.0000000000000000e+00  0.0000000000000000e+00  0.0000000000000000e+00  0.0000000000000000e+00  0.0000000000000000e+00  0.0000000000000000e+00  0.0000000000000000e+00  0.0000000000000000e+00  0.0000000000000000e+00  0.0000000000000000e+00  0.0000000000000000e+00  0.0000000000000000e+00  0.0000000000000000e+00  0.0000000000000000e+00  0.0000000000000000e+00  0.0000000000000000e+00  0.0000000000000000e+00  0.0000000000000000e+00  0.0000000000000000e+00  0.0000000000000000e+00  0.0000000000000000e+00  0.0000000000000000e+00  0.0000000000000000e+00  0.0000000000000000e+00  0.0000000000000000e+00  0.0000000000000000e+00  0.0000000000000000e+00  0.0000000000000000e+00  0.0000000000000000e+00  0.0000000000000000e+00  0.0000000000000000e+00  0.0000000000000000e+00  0.0000000000000000e+00  0.0000000000000000e+00  0.0000000000000000e+00  0.0000000000000000e+00  0.0000000000000000e+00  0.0000000000000000e+00  0.0000000000000000e+00  0.0000000000000000e+00  0.0000000000000000e+00  0.0000000000000000e+00  0.0000000000000000e+00  0.0000000000000000e+00  0.0000000000000000e+00  0.0000000000000000e+00  0.0000000000000000e+00  0.0000000000000000e+00  0.0000000000000000e+00  0.0000000000000000e+00  0.0000000000000000e+00  0.0000000000000000e+00  0.0000000000000000e+00  0.0000000000000000e+00  0.0000000000000000e+00  0.0000000000000000e+00  0.0000000000000000e+00  0.0000000000000000e+00  0.0000000000000000e+00  0.0000000000000000e+00  0.0000000000000000e+00  0.0000000000000000e+00  0.0000000000000000e+00  0.0000000000000000e+00  0.0000000000000000e+00  0.0000000000000000e+00  0.0000000000000000e+00  0.0000000000000000e+00  0.0000000000000000e+00  0.0000000000000000e+00  0.0000000000000000e+00  0.0000000000000000e+00  0.0000000000000000e+00  0.0000000000000000e+00  0.0000000000000000e+00  0.0000000000000000e+00  0.0000000000000000e+00  0.0000000000000000e+00  0.0000000000000000e+00  0.0000000000000000e+00  0.0000000000000000e+00  0.0000000000000000e+00  0.0000000000000000e+00  0.0000000000000000e+00  0.0000000000000000e+00  0.0000000000000000e+00  0.0000000000000000e+00  0.0000000000000000e+00  0.0000000000000000e+00  0.0000000000000000e+00  0.0000000000000000e+00  0.0000000000000000e+00  0.0000000000000000e+00  0.0000000000000000e+00  0.0000000000000000e+00  0.0000000000000000e+00  0.0000000000000000e+00  0.0000000000000000e+00  0.0000000000000000e+00  0.0000000000000000e+00  0.0000000000000000e+00  0.0000000000000000e+00  0.0000000000000000e+00  0.0000000000000000e+00  0.0000000000000000e+00  0.0000000000000000e+00  0.0000000000000000e+00  0.0000000000000000e+00  0.0000000000000000e+00  0.0000000000000000e+00  0.0000000000000000e+00  0.0000000000000000e+00  0.0000000000000000e+00  0.0000000000000000e+00  0.0000000000000000e+00  0.0000000000000000e+00  0.0000000000000000e+00  0.0000000000000000e+00  0.0000000000000000e+00  0.0000000000000000e+00  0.0000000000000000e+00  0.0000000000000000e+00  0.0000000000000000e+00  0.0000000000000000e+00  0.0000000000000000e+00  0.0000000000000000e+00  0.0000000000000000e+00  0.0000000000000000e+00  0.0000000000000000e+00  0.0000000000000000e+00  0.0000000000000000e+00  0.0000000000000000e+00  0.0000000000000000e+00  0.0000000000000000e+00  0.0000000000000000e+00  0.0000000000000000e+00  0.0000000000000000e+00  0.0000000000000000e+00  0.0000000000000000e+00  0.0000000000000000e+00  0.0000000000000000e+00  0.0000000000000000e+00  0.0000000000000000e+00  0.0000000000000000e+00  0.0000000000000000e+00  0.0000000000000000e+00  0.0000000000000000e+00  0.0000000000000000e+00  0.0000000000000000e+00  0.0000000000000000e+00  0.0000000000000000e+00  0.0000000000000000e+00  0.0000000000000000e+00  0.0000000000000000e+00  0.0000000000000000e+00  0.0000000000000000e+00  0.0000000000000000e+00  0.0000000000000000e+00  0.0000000000000000e+00  0.0000000000000000e+00  0.0000000000000000e+00  0.0000000000000000e+00  0.0000000000000000e+00  0.0000000000000000e+00  0.0000000000000000e+00  0.0000000000000000e+00  0.0000000000000000e+00  0.0000000000000000e+00  0.0000000000000000e+00  0.0000000000000000e+00  0.0000000000000000e+00  0.0000000000000000e+00  0.0000000000000000e+00  0.0000000000000000e+00  0.0000000000000000e+00  0.0000000000000000e+00  0.0000000000000000e+00  0.0000000000000000e+00  0.0000000000000000e+00  0.0000000000000000e+00  0.0000000000000000e+00  0.0000000000000000e+00  0.0000000000000000e+00  0.0000000000000000e+00  0.0000000000000000e+00  0.0000000000000000e+00  0.0000000000000000e+00  0.0000000000000000e+00  0.0000000000000000e+00  0.0000000000000000e+00  0.0000000000000000e+00  0.0000000000000000e+00  0.0000000000000000e+00  0.0000000000000000e+00  0.0000000000000000e+00  0.0000000000000000e+00  0.0000000000000000e+00  0.0000000000000000e+00  0.0000000000000000e+00  0.0000000000000000e+00  0.0000000000000000e+00  0.0000000000000000e+00  0.0000000000000000e+00  0.0000000000000000e+00  0.0000000000000000e+00  0.0000000000000000e+00  0.0000000000000000e+00  0.0000000000000000e+00  0.0000000000000000e+00  0.0000000000000000e+00  0.0000000000000000e+00  0.0000000000000000e+00  0.0000000000000000e+00  0.0000000000000000e+00  0.0000000000000000e+00  0.0000000000000000e+00  0.0000000000000000e+00  0.0000000000000000e+00  0.0000000000000000e+00  0.0000000000000000e+00  0.0000000000000000e+00  0.0000000000000000e+00  0.0000000000000000e+00  0.0000000000000000e+00  0.0000000000000000e+00  0.0000000000000000e+00  0.0000000000000000e+00  0.0000000000000000e+00  0.0000000000000000e+00  0.0000000000000000e+00  0.0000000000000000e+00  0.0000000000000000e+00  0.0000000000000000e+00  0.0000000000000000e+00  0.0000000000000000e+00  0.0000000000000000e+00  0.0000000000000000e+00  0.0000000000000000e+00  0.0000000000000000e+00  0.0000000000000000e+00  0.0000000000000000e+00  0.0000000000000000e+00  0.0000000000000000e+00  0.0000000000000000e+00  0.0000000000000000e+00  0.0000000000000000e+00  0.0000000000000000e+00  0.0000000000000000e+00  0.0000000000000000e+00  0.0000000000000000e+00  0.0000000000000000e+00  0.0000000000000000e+00  0.0000000000000000e+00  0.0000000000000000e+00  0.0000000000000000e+00  0.0000000000000000e+00  0.0000000000000000e+00  0.0000000000000000e+00  0.0000000000000000e+00  0.0000000000000000e+00  0.0000000000000000e+00  0.0000000000000000e+00  0.0000000000000000e+00  0.0000000000000000e+00  0.0000000000000000e+00  0.0000000000000000e+00  0.0000000000000000e+00  0.0000000000000000e+00  0.0000000000000000e+00  0.0000000000000000e+00  0.0000000000000000e+00  0.0000000000000000e+00  0.0000000000000000e+00  0.0000000000000000e+00  7.7231684109918752e-01  7.8259901411397226e-01  8.2937516498557440e-01  8.2736329390515573e-01  7.9903267632894748e-01  7.4741652275789416e-01  7.5707471842196628e-01  8.1084728784016902e-01  7.9031708870438211e-01  7.4291914537333581e-01  7.6282114797464817e-01  7.7548566405494257e-01  7.3007645486839157e-01  7.9265250296934120e-01  7.8577655609014530e-01  7.9117340198563602e-01  8.1981098878008685e-01  7.7994927046950502e-01  7.6815029192111617e-01  7.9449433056873453e-01  7.8089053167529410e-01  7.8895725970234898e-01  7.8036709720525066e-01  7.5886080861599892e-01  7.8126595879299310e-01  8.0608226794563187e-01  7.7445959254355312e-01  7.8940750914448365e-01  8.1809959930521658e-01  8.0360385462993744e-01  7.8807516870556804e-01  7.8413956393946360e-01  7.9730460955441596e-01  7.2402778746505669e-01  7.9343662441525364e-01  7.7011181401742512e-01  7.8979071758111785e-01  7.5902977624204970e-01  7.6069771816362486e-01  7.9225201046210558e-01  8.3673790662979908e-01  7.4600628971367533e-01  7.9790102960498188e-01  7.6212010442612632e-01  7.7140102247603193e-01  7.8887094237632605e-01  7.0220664241768349e-01  7.4155855822895822e-01  7.8099719875670559e-01  7.6721280719054463e-01  7.8947883996989332e-01  8.0768739095413478e-01  7.8854466964328973e-01  7.5373984926302817e-01  7.7572799797284298e-01  7.8398466855198934e-01  8.0664076789661088e-01  7.8316802490889237e-01  7.2625525093548049e-01  7.6965250858273759e-01  7.7635338302331858e-01  7.6317856754047475e-01  -1.6863219878647468e-31  1.2135460244009666e-31  2.3870701304426453e-34  4.0357824641253449e-34  2.0849851885888273e-31  2.7847058315762086e-31  1.0938274723516724e-36  -3.9321229110712907e-35  -3.0234426182589022e-31  -1.0975283408427763e-31  5.6061194370892679e-32  7.7917125442211694e-32  4.2887602040310029e-32  5.0496277239417405e-32  2.6419285575325957e-30  1.4237635159519765e-30  -4.2640536989457014e-30  1.9971962590901882e-31  -6.1769960969643576e-30  -8.6112480284102995e-30  -1.4444080444586768e-30  -1.5562025997624632e-30  -4.1996581839483506e-30  -5.1060359529395802e-30  -3.0630841087596823e-30  -2.2945835593081811e-30  -7.7861470588086922e-29  1.1646105125957852e-29  -3.5059154170751634e-29  -1.8475236904892532e-28  6.4824805644195771e-30  -1.5232998197441325e-30  -3.8433572690647881e-36  2.6128432572415645e-36  2.0708549100288252e-36  -3.8295715905722335e-36  3.7517209520932686e-33  2.5261453282747686e-33  2.0915711757333964e-33  2.4373599645775508e-33  -8.3728178315945328e-28  8.7899710685663166e-30  -3.3530299373730725e-31  1.4115813318466953e-27  8.5141832435139987e-36  5.0337134345181539e-36  1.1144777805208045e-35  -3.5059472596710556e-38  2.0394689997898780e-39  -3.8054593254922125e-38  1.3737963080839258e-38  -2.2146155480351841e-36  6.9939035684523872e-40  -1.3584102565799380e-37  -3.1974707695258410e-38  -1.1897813205798516e-39  -1.4401521120452189e-37  1.0248234187498151e-39  -8.0915495114379986e-38  -1.6078448556946434e-39  -3.2694260561144650e-40  -4.2110502219797976e-40  -3.3960510913158630e-40  -1.1436916289139035e-41  -1.4464143368581248e-42  3.7993438844018541e-41  4.9315791871494751e-41  -4.4022701192235922e-40  1.3635103687779324e-27  1.7885348721515243e-30  -1.0953333463724348e-30  1.2615269197913995e-27  2.4927062211007341e-30  1.2970707516207769e-30  6.2477256318422902e-30  6.0450437021078249e-30  1.3832738977568041e-30  1.3610746185854474e-30  -1.0304780734466632e-30  -7.8823685332074105e-30  -1.3631132601252434e-30  -3.8507833106590129e-31  2.6761864860113526e-29  4.4836167320458067e-29  -2.6571479408411851e-31  1.3984884200346810e-30  -1.1094852244488413e-30  6.0275452920455930e-31  -1.7353631688067899e-30  -1.2970269210569675e-30  -1.3709655599194120e-32  -1.2678350184379553e-32  -3.4433875648835011e-31  -3.8973262666141324e-31  7.1743369155201151e-33  7.0577903851916100e-33  3.2871826658262686e-35  -1.3585883961371935e-32  2.2157358511516479e-32  -3.3724062490474528e-35  7.7317365316314756e-33  -3.3194138081601860e-35  3.0819007906877681e-35  3.1057051410860975e-32  1.8527298780064920e-42  6.6739282780078759e-42  -1.3630902031732088e-42  -2.8716495142443117e-42  -7.0641203273355511e-43  -2.0533276903531110e-42  3.0126842563257638e-42  2.2005746579405045e-42  2.7016886423009787e-28  1.3139192140474718e-29  2.5436880110472547e-30  1.4197595167306919e-27  5.3673745539239571e-32  -1.5845643892905831e-33  -1.8392800095626348e-33  -1.5111843615335078e-31  1.8228360844578371e-33  1.4638641010641395e-31  2.4861878347460115e-31  1.6866032768283612e-33  -5.1479532590993707e-37  -8.1241649861430501e-34  -3.6724849170889277e-34  4.3006391217741100e-39  -4.2221066713574948e-37  -1.3215839467166845e-35  -5.0720066790361843e-34  1.3153195705685917e-37  2.7943368327980810e-39  -1.6382653116856344e-40  -1.4564617883894187e-36  -2.7369601340553577e-39  -5.8565795746934019e-37  -2.5606694165739888e-39  8.5613015117183952e-39  -9.0838034572239806e-41  -7.0691740158662780e-37  -3.7875079926883827e-39  1.1623523371792045e-40  -1.4583156092901359e-40  8.0483732188678939e-39  -4.1705622022940426e-41  -3.6952345366490092e-37  -3.6267781146231951e-39  -6.9355264201436645e-43  2.9766401271370470e-43  -4.5319792252546901e-43  -1.0496101894416747e-42  -3.6076552489092165e-28  4.8310912843667795e-29  -1.7767170563974342e-27  4.2732327550417842e-27  7.1297150414365316e-27  -2.5622096608324772e-26  -2.1470035440522192e-26  1.0089634525797982e-25  4.5691093882104575e-26  -2.9982012753125982e-25  -3.1714252908149710e-26  6.2095817646989579e-25  -2.8983059679095172e-25  -3.6030435535529296e-25  1.9125810002711758e-24  -4.3563994602177091e-24  -7.5106806919708698e-24  2.7444416595866002e-23  2.1895155805939929e-23  -1.0569783568748770e-22  -4.5714115726814303e-23  -6.5198993831048732e-23  3.0365524968858191e-22  3.9570749854212888e-23  -6.1581503171300788e-22  1.8847853376753725e-22  4.2029068388831734e-22  -1.1518339785140351e-21  3.0022219347440067e-21  3.5138561244065196e-21  -1.6642814729899434e-20  -5.8190207897196103e-21  4.0248038993097189e-21  4.8137954269073440e-20  -3.6698553789523619e-21  -6.8057672488396933e-20  5.7595082786576755e-20  -1.0022562604372602e-19  -1.8073832165024729e-19  8.7840852762132073e-19  2.0230846379301393e-19  -2.3266868287046298e-18  6.1392786327841531e-19  -2.1269463619302701e-18  1.3819702782305590e-18  -3.1978083460466539e-18  1.1818132744909272e-17  4.7633697903888010e-18  1.4752437255628350e-19  -3.3615897709895979e-18  8.2312944264759102e-18  6.5980128258556207e-18  -1.7519317128817844e-19  -3.3262735532107877e-18  6.8510759796985033e-19  -1.9892996448391333e-19  6.6367937941606619e-18  -3.2705455071338535e-18  6.3877927558231951e-19  6.5915663665764022e-20  -1.9206761942927718e-19  4.8833200915211194e-19  -2.9954962309483114e-18  4.2381881516758050e-19  -1.9915044118409227e-19  2.6250851921752876e-19  -2.2687154176448662e-18  6.3038791830689616e-19  -1.6810574844354256e-19  4.6713409385525245e-20  -1.2994205427501010e-18  6.3154077653401776e-19  -2.0196055790162472e-18  3.4844508452499693e-20  -2.9297401194095775e-19  5.3000873138827994e-18  -2.4805250779392592e-18  7.6014081919604615e-18  1.3375471131999566e-18  -2.7734423103639368e-17  1.6301545102907281e-17  -8.7603179212291944e-17  -2.1887083001955884e-18  2.4836986716255370e-17  -5.7746797049170170e-17  -9.7257178648402867e-18  1.7277145433835046e-16  -9.0759416131181969e-17  4.7909911485651744e-16  -1.4515656667363717e-16  5.0260056259485423e-16  -8.9925763892262793e-17  1.0251155697489796e-16  3.6883839709061571e-17  -3.0998574847498200e-16  3.5060172582343011e-17  1.1482656427271249e-17  -2.1977168036556893e-01  9.0229838560446727e-17  -2.3900592028772756e-16  8.7425803028031974e-18  1.9828555415964827e-16  -2.3405135239813665e-01  -9.9062333504090054e-17  4.5425238690954156e-16  -2.1839211036793377e-01  -1.1273329770664833e-16  3.1343538348336700e-16  -1.5879988068364173e-15  -6.3074407732278193e-16  4.5695001224665395e-17  1.6142213367172119e-16  -2.0613837391648839e-15  3.1763495699996498e-17  -8.0939077625752054e-17  3.0974608147755203e-16  -1.1422228104224710e-15  -8.7085865189361333e-16  1.4067781045542451e-16  -2.0402138621051537e-16  1.8724760703479337e-15  -3.3230424313008405e-18  8.1033507986421327e-17  -2.9860316903182177e-16  1.2004011625764234e-15  4.4461298424293867e-16  2.7807325828052430e-17  -4.1267680725572613e-16  8.5881183574596414e-16  1.1254958949418765e-15  -6.9578117508591701e-17  -5.0205825523754252e-16  -7.2635018739760427e-18  2.0531440755743548e-15  -2.3406466746061962e-16  -4.6852301871351185e-16  -1.5921370261690826e-15  2.7690488282696668e-15  -1.1253788576888624e-14  -2.4300671354035952e-15  -4.8426817982057281e-16  3.1238181541002772e-15  -1.3284173267374568e-14  -1.4385340114228797e-15  -6.8709849080153192e-16  2.8785969933361433e-15  -1.5153212437536046e-14  1.2758655776158464e-15  1.6888306330773678e-14  -1.3000396220785789e-14  5.7826267013567904e-14  -3.2381324332260463e-15  3.4788912041846746e-15  -5.4628104841452258e-15  3.9127590273949384e-14  -9.4103201071649682e-15  3.3134928860044594e-15  1.7173219394049280e-14  -1.2248157751368897e-13  3.4770922421673225e-14  -5.9204310006197237e-14  -3.2012966556761754e-14  -3.2444075527537650e-15  2.5536092231365088e-14  -1.6150466056567791e-13  5.7750747992953880e-14  -2.5364043701507417e-13  7.3066079116703341e-14  -2.8151899534472281e-13  7.7950785069922626e-14  -3.0268046464045473e-13  8.6610087808834762e-14  -3.4461315397291429e-13  9.7881757921721832e-14  -3.7461195344223096e-13  9.8294896535923377e-14  -3.3521017316987374e-13  7.3859174280146480e-14  -1.9589401575043273e-13  2.8763486363801091e-14  -2.5661178181696875e-14  -8.1755979587993949e-15  5.9028901045523362e-14  -1.5078935936154890e-14  3.6581786538981957e-14  -3.8029968714447027e-15  -3.9042398033531272e-15  2.7309093107845511e-15  -1.2960928996281665e-16  -3.1794050917447304e-16  1.6854414516909637e-16  1.0630708278077149e-18  -4.3579760507461017e-17  1.0705015286782959e-17  6.3060793667447299e-18  -3.1344860672097251e-18  -1.6609295925021219e-19  -3.4791901874641870e-18  5.1558771223490212e-19  -2.0334777781732062e-14  9.8784683840207258e-19  -1.9724989517133743e-18  6.2864513347021938e-20  9.8331496883624638e-19  -2.6604459802807677e-19  4.5195735233715642e-19  -3.6127759646837358e-22  