<?xml version="1.0"?>
<VTKFile type="UnstructuredGrid"  version="0.1"  >
<UnstructuredGrid>
<Piece  NumberOfPoints="11902" NumberOfCells="23402">
<Points>
<DataArray  type="Float64"  NumberOfComponents="3"  format="ascii">-5 -5 0  5 -5 0  5 5 0  -5 5 0  1.197216567196905 0.001277479223619998 0  -4.9 -5 0  -4.8 -5 0  -4.7 -5 0  -4.6 -5 0  -4.5 -5 0  -4.4 -5 0  -4.3 -5 0  -4.2 -5 0  -4.1 -5 0  -4 -5 0  -3.9 -5 0  -3.8 -5 0  -3.7 -5 0  -3.6 -5 0  -3.5 -5 0  -3.4 -5 0  -3.3 -5 0  -3.2 -5 0  -3.1 -5 0  -3 -5 0  -2.9 -5 0  -2.8 -5 0  -2.7 -5 0  -2.6 -5 0  -2.5 -5 0  -2.4 -5 0  -2.3 -5 0  -2.2 -5 0  -2.1 -5 0  -2 -5 0  -1.9 -5 0  -1.8 -5 0  -1.7 -5 0  -1.6 -5 0  -1.5 -5 0  -1.4 -5 0  -1.3 -5 0  -1.2 -5 0  -1.1 -5 0  -1 -5 0  -0.9000000000000004 -5 0  -0.7999999999999998 -5 0  -0.7000000000000002 -5 0  -0.5999999999999996 -5 0  -0.5 -5 0  -0.4000000000000004 -5 0  -0.2999999999999998 -5 0  -0.2000000000000002 -5 0  -0.09999999999999964 -5 0  0 -5 0  0.09999999999999964 -5 0  0.2000000000000002 -5 0  0.2999999999999998 -5 0  0.4000000000000004 -5 0  0.5 -5 0  0.5999999999999996 -5 0  0.7000000000000002 -5 0  0.7999999999999998 -5 0  0.9000000000000004 -5 0  1 -5 0  1.1 -5 0  1.2 -5 0  1.3 -5 0  1.4 -5 0  1.5 -5 0  1.6 -5 0  1.7 -5 0  1.8 -5 0  1.9 -5 0  2 -5 0  2.1 -5 0  2.2 -5 0  2.3 -5 0  2.4 -5 0  2.5 -5 0  2.6 -5 0  2.7 -5 0  2.8 -5 0  2.9 -5 0  3 -5 0  3.1 -5 0  3.199999999999999 -5 0  3.300000000000001 -5 0  3.4 -5 0  3.5 -5 0  3.6 -5 0  3.699999999999999 -5 0  3.800000000000001 -5 0  3.9 -5 0  4 -5 0  4.1 -5 0  4.199999999999999 -5 0  4.300000000000001 -5 0  4.4 -5 0  4.5 -5 0  4.6 -5 0  4.699999999999999 -5 0  4.800000000000001 -5 0  4.9 -5 0  5 -4.9 0  5 -4.8 0  5 -4.7 0  5 -4.6 0  5 -4.5 0  5 -4.4 0  5 -4.3 0  5 -4.2 0  5 -4.1 0  5 -4 0  5 -3.9 0  5 -3.8 0  5 -3.7 0  5 -3.6 0  5 -3.5 0  5 -3.4 0  5 -3.3 0  5 -3.2 0  5 -3.1 0  5 -3 0  5 -2.9 0  5 -2.8 0  5 -2.7 0  5 -2.6 0  5 -2.5 0  5 -2.4 0  5 -2.3 0  5 -2.2 0  5 -2.1 0  5 -2 0  5 -1.9 0  5 -1.8 0  5 -1.7 0  5 -1.6 0  5 -1.5 0  5 -1.4 0  5 -1.3 0  5 -1.2 0  5 -1.1 0  5 -1 0  5 -0.9000000000000004 0  5 -0.7999999999999998 0  5 -0.7000000000000002 0  5 -0.5999999999999996 0  5 -0.5 0  5 -0.4000000000000004 0  5 -0.2999999999999998 0  5 -0.2000000000000002 0  5 -0.09999999999999964 0  5 0 0  5 0.09999999999999964 0  5 0.2000000000000002 0  5 0.2999999999999998 0  5 0.4000000000000004 0  5 0.5 0  5 0.5999999999999996 0  5 0.7000000000000002 0  5 0.7999999999999998 0  5 0.9000000000000004 0  5 1 0  5 1.1 0  5 1.2 0  5 1.3 0  5 1.4 0  5 1.5 0  5 1.6 0  5 1.7 0  5 1.8 0  5 1.9 0  5 2 0  5 2.1 0  5 2.2 0  5 2.3 0  5 2.4 0  5 2.5 0  5 2.6 0  5 2.7 0  5 2.8 0  5 2.9 0  5 3 0  5 3.1 0  5 3.199999999999999 0  5 3.300000000000001 0  5 3.4 0  5 3.5 0  5 3.6 0  5 3.699999999999999 0  5 3.800000000000001 0  5 3.9 0  5 4 0  5 4.1 0  5 4.199999999999999 0  5 4.300000000000001 0  5 4.4 0  5 4.5 0  5 4.6 0  5 4.699999999999999 0  5 4.800000000000001 0  5 4.9 0  4.9 5 0  4.8 5 0  4.7 5 0  4.6 5 0  4.5 5 0  4.4 5 0  4.3 5 0  4.2 5 0  4.1 5 0  4 5 0  3.9 5 0  3.8 5 0  3.7 5 0  3.6 5 0  3.5 5 0  3.4 5 0  3.3 5 0  3.2 5 0  3.1 5 0  3 5 0  2.9 5 0  2.8 5 0  2.7 5 0  2.6 5 0  2.5 5 0  2.4 5 0  2.3 5 0  2.2 5 0  2.1 5 0  2 5 0  1.9 5 0  1.8 5 0  1.7 5 0  1.6 5 0  1.5 5 0  1.4 5 0  1.3 5 0  1.2 5 0  1.1 5 0  1 5 0  0.9000000000000004 5 0  0.7999999999999998 5 0  0.7000000000000002 5 0  0.5999999999999996 5 0  0.5 5 0  0.4000000000000004 5 0  0.2999999999999998 5 0  0.2000000000000002 5 0  0.09999999999999964 5 0  0 5 0  -0.09999999999999964 5 0  -0.2000000000000002 5 0  -0.2999999999999998 5 0  -0.4000000000000004 5 0  -0.5 5 0  -0.5999999999999996 5 0  -0.7000000000000002 5 0  -0.7999999999999998 5 0  -0.9000000000000004 5 0  -1 5 0  -1.1 5 0  -1.2 5 0  -1.3 5 0  -1.4 5 0  -1.5 5 0  -1.6 5 0  -1.7 5 0  -1.8 5 0  -1.9 5 0  -2 5 0  -2.1 5 0  -2.2 5 0  -2.3 5 0  -2.4 5 0  -2.5 5 0  -2.6 5 0  -2.7 5 0  -2.8 5 0  -2.9 5 0  -3 5 0  -3.1 5 0  -3.199999999999999 5 0  -3.300000000000001 5 0  -3.4 5 0  -3.5 5 0  -3.6 5 0  -3.699999999999999 5 0  -3.800000000000001 5 0  -3.9 5 0  -4 5 0  -4.1 5 0  -4.199999999999999 5 0  -4.300000000000001 5 0  -4.4 5 0  -4.5 5 0  -4.6 5 0  -4.699999999999999 5 0  -4.800000000000001 5 0  -4.9 5 0  -5 4.9 0  -5 4.8 0  -5 4.7 0  -5 4.6 0  -5 4.5 0  -5 4.4 0  -5 4.3 0  -5 4.2 0  -5 4.1 0  -5 4 0  -5 3.9 0  -5 3.8 0  -5 3.7 0  -5 3.6 0  -5 3.5 0  -5 3.4 0  -5 3.3 0  -5 3.2 0  -5 3.1 0  -5 3 0  -5 2.9 0  -5 2.8 0  -5 2.7 0  -5 2.6 0  -5 2.5 0  -5 2.4 0  -5 2.3 0  -5 2.2 0  -5 2.1 0  -5 2 0  -5 1.9 0  -5 1.8 0  -5 1.7 0  -5 1.6 0  -5 1.5 0  -5 1.4 0  -5 1.3 0  -5 1.2 0  -5 1.1 0  -5 1 0  -5 0.9000000000000004 0  -5 0.7999999999999998 0  -5 0.7000000000000002 0  -5 0.5999999999999996 0  -5 0.5 0  -5 0.4000000000000004 0  -5 0.2999999999999998 0  -5 0.2000000000000002 0  -5 0.09999999999999964 0  -5 0 0  -5 -0.09999999999999964 0  -5 -0.2000000000000002 0  -5 -0.2999999999999998 0  -5 -0.4000000000000004 0  -5 -0.5 0  -5 -0.5999999999999996 0  -5 -0.7000000000000002 0  -5 -0.7999999999999998 0  -5 -0.9000000000000004 0  -5 -1 0  -5 -1.1 0  -5 -1.2 0  -5 -1.3 0  -5 -1.4 0  -5 -1.5 0  -5 -1.6 0  -5 -1.7 0  -5 -1.8 0  -5 -1.9 0  -5 -2 0  -5 -2.1 0  -5 -2.2 0  -5 -2.3 0  -5 -2.4 0  -5 -2.5 0  -5 -2.6 0  -5 -2.7 0  -5 -2.8 0  -5 -2.9 0  -5 -3 0  -5 -3.1 0  -5 -3.199999999999999 0  -5 -3.300000000000001 0  -5 -3.4 0  -5 -3.5 0  -5 -3.6 0  -5 -3.699999999999999 0  -5 -3.800000000000001 0  -5 -3.9 0  -5 -4 0  -5 -4.1 0  -5 -4.199999999999999 0  -5 -4.300000000000001 0  -5 -4.4 0  -5 -4.5 0  -5 -4.6 0  -5 -4.699999999999999 0  -5 -4.800000000000001 0  -5 -4.9 0  1.191257872860176 0.09913631885429244 0  1.172563822218183 0.1973385742341367 0  1.141278435252818 0.2946064278551154 0  1.100789433728738 0.3861552352844367 0  1.048147454690594 0.4768382958345607 0  0.9861384840312422 0.5619585634669119 0  0.9132386731335276 0.6417269898765539 0  0.8310627839620297 0.7145463771544117 0  0.7418505752903036 0.7802384608234655 0  0.6445030134678964 0.8387657025565818 0  0.5400517123167944 0.8895878921936563 0  0.4314066881701951 0.9314865781156176 0  0.3204085743917376 0.9642983618858662 0  0.2038908842455546 0.9866995413667023 0  0.08843749740440651 1.001270617128746 0  -0.02769968950159394 1.004040457566697 0  -0.1440089939610003 0.9943310927615649 0  -0.261604129304873 0.9766626326038983 0  -0.3759261394392112 0.9504720759757447 0  -0.4851556909370755 0.9139497891300167 0  -0.589638924534557 0.8683783187902953 0  -0.6890392638032111 0.8136538872498258 0  -0.7813246203720583 0.750747588616101 0  -0.8670792249939671 0.6802353134640912 0  -0.9454979123454754 0.6021525984799895 0  -1.013575846191745 0.5197179830918515 0  -1.07216663863993 0.4327736674389886 0  -1.119471107615517 0.3406465775044037 0  -1.154940654837448 0.2465490371800198 0  -1.178790066568287 0.1499485575896996 0  -1.190880005537445 0.05078715144160582 0  -1.190875914827473 -0.04904181348452077 0  -1.178729131337117 -0.1478743800806273 0  -1.155779886588572 -0.2444742374021523 0  -1.118959968316006 -0.3402803580620464 0  -1.072528740535579 -0.4315608825360437 0  -1.014561570682214 -0.5188060911960894 0  -0.9470049038719713 -0.6007969717680266 0  -0.8688972656120971 -0.6777151364052055 0  -0.7827350196920988 -0.7472411680830496 0  -0.6891630147789994 -0.8085344010898065 0  -0.5898468939483231 -0.8628713414557527 0  -0.4824379839109378 -0.9096662776161515 0  -0.3726713823993861 -0.9476916085624004 0  -0.2587705620196976 -0.9753086123870933 0  -0.1426127650958409 -0.9934146595221005 0  -0.02728924295281566 -1.003169230734721 0  0.08904976152070669 -0.9987838616359274 0  0.2067499353945854 -0.9844273380333491 0  0.3220100081928528 -0.9626323004501927 0  0.4347741326833728 -0.9300646507602066 0  0.5417088980651096 -0.8886268860867681 0  0.6452246090247815 -0.8383559046284135 0  0.7420227990408428 -0.7812085329879409 0  0.8311285874373608 -0.7152552892433337 0  0.9127405673326359 -0.6411680308882219 0  0.9847179084758221 -0.5612967559677438 0  1.048006969408053 -0.4762773710957175 0  1.101823794341482 -0.3862251828923524 0  1.142694062722169 -0.2931686308025447 0  1.172819236637338 -0.1965106514748471 0  1.19127862366063 -0.09867313820028034 0  -2.44879017594216 4.918534859293668 0  -2.448685084733015 -4.91095139221673 0  4.910886127781271 2.448220826798081 0  4.918969773097159 -2.449652818357482 0  2.446455370161898 -4.896262432364479 0  2.440879539182376 4.900007921019384 0  -4.910909510382829 -2.448243753532353 0  -4.910907818842888 2.448247624596597 0  -1.748753097928939 4.911609881709516 0  -1.744529662084156 -4.915027494119279 0  4.92118616541916 1.744364964257382 0  4.909797824938541 -1.748169242712912 0  -4.910084900227496 -1.747898572636376 0  -4.910902592362463 1.747639966293759 0  1.746040789219314 4.905511242089283 0  1.747484053792174 -4.893733486203147 0  -1.149016006047782 4.909520635294512 0  -1.129854367335455 -4.917376306037574 0  -4.909963022156993 -1.148168374024032 0  -4.90978382227029 1.147968500456065 0  1.143999221639718 -4.913589910118581 0  1.149023589220848 4.909509239578586 0  4.910109424925316 1.146445684100755 0  4.920846733661349 -1.152199665549209 0  -0.5467602864307944 -4.910772793527657 0  -0.5465329891456652 4.919387308821912 0  -4.908824822778417 -0.5488423149724301 0  -4.908849260231749 0.5473985341426645 0  4.908159128164875 -0.5491631416338245 0  4.919703210125128 0.5459023097268854 0  0.5425509862768441 -4.8977611168864 0  0.5512634729536552 4.916236649804169 0  -4.912188024915801 -3.04854586971424 0  4.918739498352641 3.046545640371775 0  4.91169908417957 -3.048525570559006 0  -4.913034399486961 3.045635343396127 0  3.055491996004089 -4.917676651474808 0  -3.048836807442532 -4.911632690241524 0  3.052399782533997 4.913704827593741 0  -3.048281485443127 4.912519705922744 0  -4.907981285549019 -0.04992104515954481 0  0.04512571512204248 -4.912729260011204 0  0.04957363070606104 4.919698440463447 0  4.914973802852637 -0.05130231307613953 0  3.545769802551115 -4.919232121801832 0  -3.54906390
[...]
<PointData  Scalars="f_27"> 
<DataArray  type="Float64"  Name="f_27"  format="ascii">0.0000000000000000e+00  0.0000000000000000e+00  0.0000000000000000e+00  0.0000000000000000e+00  8.5798286921245093e-01  0.0000000000000000e+00  0.0000000000000000e+00  0.0000000000000000e+00  0.0000000000000000e+00  0.0000000000000000e+00  0.0000000000000000e+00  0.0000000000000000e+00  0.0000000000000000e+00  0.0000000000000000e+00  0.0000000000000000e+00  0.0000000000000000e+00  0.0000000000000000e+00  0.0000000000000000e+00  0.0000000000000000e+00  0.0000000000000000e+00  0.0000000000000000e+00  0.0000000000000000e+00  0.0000000000000000e+00  0.0000000000000000e+00  0.0000000000000000e+00  0.0000000000000000e+00  0.0000000000000000e+00  0.0000000000000000e+00  0.0000000000000000e+00  0.0000000000000000e+00  0.0000000000000000e+00  0.0000000000000000e+00  0.0000000000000000e+00  0.0000000000000000e+00  0.0000000000000000e+00  0.0000000000000000e+00  0.0000000000000000e+00  0.0000000000000000e+00  0.0000000000000000e+00  0.0000000000000000e+00  0.0000000000000000e+00  0.0000000000000000e+00  0.0000000000000000e+00  0.0000000000000000e+00  0.0000000000000000e+00  0.0000000000000000e+00  0.0000000000000000e+00  0.0000000000000000e+00  0.0000000000000000e+00  0.0000000000000000e+00  0.0000000000000000e+00  0.0000000000000000e+00  0.0000000000000000e+00  0.0000000000000000e+00  0.0000000000000000e+00  0.0000000000000000e+00  0.0000000000000000e+00  0.0000000000000000e+00  0.0000000000000000e+00  0.0000000000000000e+00  0.0000000000000000e+00  0.0000000000000000e+00  0.0000000000000000e+00  0.0000000000000000e+00  0.0000000000000000e+00  0.0000000000000000e+00  0.0000000000000000e+00  0.0000000000000000e+00  0.0000000000000000e+00  0.0000000000000000e+00  0.0000000000000000e+00  0.0000000000000000e+00  0.0000000000000000e+00  0.0000000000000000e+00  0.0000000000000000e+00  0.0000000000000000e+00  0.0000000000000000e+00  0.0000000000000000e+00  0.0000000000000000e+00  0.0000000000000000e+00  0.0000000000000000e+00  0.0000000000000000e+00  0.0000000000000000e+00  0.0000000000000000e+00  0.0000000000000000e+00  0.0000000000000000e+00  0.0000000000000000e+00  0.0000000000000000e+00  0.0000000000000000e+00  0.0000000000000000e+00  0.0000000000000000e+00  0.0000000000000000e+00  0.0000000000000000e+00  0.0000000000000000e+00  0.0000000000000000e+00  0.0000000000000000e+00  0.0000000000000000e+00  0.0000000000000000e+00  0.0000000000000000e+00  0.0000000000000000e+00  0.0000000000000000e+00  0.0000000000000000e+00  0.0000000000000000e+00  0.0000000000000000e+00  0.0000000000000000e+00  0.0000000000000000e+00  0.0000000000000000e+00  0.0000000000000000e+00  0.0000000000000000e+00  0.0000000000000000e+00  0.0000000000000000e+00  0.0000000000000000e+00  0.0000000000000000e+00  0.0000000000000000e+00  0.0000000000000000e+00  0.0000000000000000e+00  0.0000000000000000e+00  0.0000000000000000e+00  0.0000000000000000e+00  0.0000000000000000e+00  0.0000000000000000e+00  0.0000000000000000e+00  0.0000000000000000e+00  0.0000000000000000e+00  0.0000000000000000e+00  0.0000000000000000e+00  0.0000000000000000e+00  0.0000000000000000e+00  0.0000000000000000e+00  0.0000000000000000e+00  0.0000000000000000e+00  0.0000000000000000e+00  0.0000000000000000e+00  0.0000000000000000e+00  0.0000000000000000e+00  0.0000000000000000e+00  0.0000000000000000e+00  0.0000000000000000e+00  0.0000000000000000e+00  0.0000000000000000e+00  0.0000000000000000e+00  0.0000000000000000e+00  0.0000000000000000e+00  0.0000000000000000e+00  0.0000000000000000e+00  0.0000000000000000e+00  0.0000000000000000e+00  0.0000000000000000e+00  0.0000000000000000e+00  0.0000000000000000e+00  0.0000000000000000e+00  0.0000000000000000e+00  0.0000000000000000e+00  0.0000000000000000e+00  0.0000000000000000e+00  0.0000000000000000e+00  0.0000000000000000e+00  0.0000000000000000e+00  0.0000000000000000e+00  0.0000000000000000e+00  0.0000000000000000e+00  0.0000000000000000e+00  0.0000000000000000e+00  0.0000000000000000e+00  0.0000000000000000e+00  0.0000000000000000e+00  0.0000000000000000e+00  0.0000000000000000e+00  0.0000000000000000e+00  0.0000000000000000e+00  0.0000000000000000e+00  0.0000000000000000e+00  0.0000000000000000e+00  0.0000000000000000e+00  0.0000000000000000e+00  0.0000000000000000e+00  0.0000000000000000e+00  0.0000000000000000e+00  0.0000000000000000e+00  0.0000000000000000e+00  0.0000000000000000e+00  0.0000000000000000e+00  0.0000000000000000e+00  0.0000000000000000e+00  0.0000000000000000e+00  0.0000000000000000e+00  0.0000000000000000e+00  0.0000000000000000e+00  0.0000000000000000e+00  0.0000000000000000e+00  0.0000000000000000e+00  0.0000000000000000e+00  0.0000000000000000e+00  0.0000000000000000e+00  0.0000000000000000e+00  0.0000000000000000e+00  0.0000000000000000e+00  0.0000000000000000e+00  0.0000000000000000e+00  0.0000000000000000e+00  0.0000000000000000e+00  0.0000000000000000e+00  0.0000000000000000e+00  0.0000000000000000e+00  0.0000000000000000e+00  0.0000000000000000e+00  0.0000000000000000e+00  0.0000000000000000e+00  0.0000000000000000e+00  0.0000000000000000e+00  0.0000000000000000e+00  0.0000000000000000e+00  0.0000000000000000e+00  0.0000000000000000e+00  0.0000000000000000e+00  0.0000000000000000e+00  0.0000000000000000e+00  0.0000000000000000e+00  0.0000000000000000e+00  0.0000000000000000e+00  0.0000000000000000e+00  0.0000000000000000e+00  0.0000000000000000e+00  0.0000000000000000e+00  0.0000000000000000e+00  0.0000000000000000e+00  0.0000000000000000e+00  0.0000000000000000e+00  0.0000000000000000e+00  0.0000000000000000e+00  0.0000000000000000e+00  0.0000000000000000e+00  0.0000000000000000e+00  0.0000000000000000e+00  0.0000000000000000e+00  0.0000000000000000e+00  0.0000000000000000e+00  0.0000000000000000e+00  0.0000000000000000e+00  0.0000000000000000e+00  0.0000000000000000e+00  0.0000000000000000e+00  0.0000000000000000e+00  0.0000000000000000e+00  0.0000000000000000e+00  0.0000000000000000e+00  0.0000000000000000e+00  0.0000000000000000e+00  0.0000000000000000e+00  0.0000000000000000e+00  0.0000000000000000e+00  0.0000000000000000e+00  0.0000000000000000e+00  0.0000000000000000e+00  0.0000000000000000e+00  0.0000000000000000e+00  0.0000000000000000e+00  0.0000000000000000e+00  0.0000000000000000e+00  0.0000000000000000e+00  0.0000000000000000e+00  0.0000000000000000e+00  0.0000000000000000e+00  0.0000000000000000e+00  0.0000000000000000e+00  0.0000000000000000e+00  0.0000000000000000e+00  0.0000000000000000e+00  0.0000000000000000e+00  0.0000000000000000e+00  0.0000000000000000e+00  0.0000000000000000e+00  0.0000000000000000e+00  0.0000000000000000e+00  0.0000000000000000e+00  0.0000000000000000e+00  0.0000000000000000e+00  0.0000000000000000e+00  0.0000000000000000e+00  0.0000000000000000e+00  0.0000000000000000e+00  0.0000000000000000e+00  0.0000000000000000e+00  0.0000000000000000e+00  0.0000000000000000e+00  0.0000000000000000e+00  0.0000000000000000e+00  0.0000000000000000e+00  0.0000000000000000e+00  0.0000000000000000e+00  0.0000000000000000e+00  0.0000000000000000e+00  0.0000000000000000e+00  0.0000000000000000e+00  0.0000000000000000e+00  0.0000000000000000e+00  0.0000000000000000e+00  0.0000000000000000e+00  0.0000000000000000e+00  0.0000000000000000e+00  0.0000000000000000e+00  0.0000000000000000e+00  0.0000000000000000e+00  0.0000000000000000e+00  0.0000000000000000e+00  0.0000000000000000e+00  0.0000000000000000e+00  0.0000000000000000e+00  0.0000000000000000e+00  0.0000000000000000e+00  0.0000000000000000e+00  0.0000000000000000e+00  0.0000000000000000e+00  0.0000000000000000e+00  0.0000000000000000e+00  0.0000000000000000e+00  0.0000000000000000e+00  0.0000000000000000e+00  0.0000000000000000e+00  0.0000000000000000e+00  0.0000000000000000e+00  0.0000000000000000e+00  0.0000000000000000e+00  0.0000000000000000e+00  0.0000000000000000e+00  0.0000000000000000e+00  0.0000000000000000e+00  0.0000000000000000e+00  0.0000000000000000e+00  0.0000000000000000e+00  0.0000000000000000e+00  0.0000000000000000e+00  0.0000000000000000e+00  0.0000000000000000e+00  0.0000000000000000e+00  0.0000000000000000e+00  0.0000000000000000e+00  0.0000000000000000e+00  0.0000000000000000e+00  0.0000000000000000e+00  0.0000000000000000e+00  0.0000000000000000e+00  0.0000000000000000e+00  0.0000000000000000e+00  0.0000000000000000e+00  0.0000000000000000e+00  0.0000000000000000e+00  0.0000000000000000e+00  0.0000000000000000e+00  0.0000000000000000e+00  0.0000000000000000e+00  0.0000000000000000e+00  0.0000000000000000e+00  0.0000000000000000e+00  0.0000000000000000e+00  0.0000000000000000e+00  0.0000000000000000e+00  0.0000000000000000e+00  0.0000000000000000e+00  0.0000000000000000e+00  0.0000000000000000e+00  0.0000000000000000e+00  0.0000000000000000e+00  0.0000000000000000e+00  0.0000000000000000e+00  0.0000000000000000e+00  0.0000000000000000e+00  0.0000000000000000e+00  0.0000000000000000e+00  0.0000000000000000e+00  0.0000000000000000e+00  0.0000000000000000e+00  0.0000000000000000e+00  0.0000000000000000e+00  0.0000000000000000e+00  0.0000000000000000e+00  0.0000000000000000e+00  0.0000000000000000e+00  0.0000000000000000e+00  0.0000000000000000e+00  0.0000000000000000e+00  0.0000000000000000e+00  0.0000000000000000e+00  0.0000000000000000e+00  0.0000000000000000e+00  0.0000000000000000e+00  0.0000000000000000e+00  0.0000000000000000e+00  0.0000000000000000e+00  0.0000000000000000e+00  0.0000000000000000e+00  0.0000000000000000e+00  0.0000000000000000e+00  0.0000000000000000e+00  0.0000000000000000e+00  0.0000000000000000e+00  0.0000000000000000e+00  0.0000000000000000e+00  0.0000000000000000e+00  0.0000000000000000e+00  0.0000000000000000e+00  8.5304540795786965e-01  8.6105670218460240e-01  8.9129308176857791e-01  8.9084875203317626e-01  8.7261128315234782e-01  8.3666382018163221e-01  8.4404273020236420e-01  8.7965284971721425e-01  8.6603549392459400e-01  8.3449207476769083e-01  8.4882720632560005e-01  8.5565731706803172e-01  8.2718414267669294e-01  8.6874632327141732e-01  8.6404090308860526e-01  8.6674838270623300e-01  8.8644433673276901e-01  8.6131978434679946e-01  8.5132651077175991e-01  8.6891108079141188e-01  8.6061499170103795e-01  8.6595850687726539e-01  8.5953642372946670e-01  8.4560730705507936e-01  8.6023535301285659e-01  8.7603800213011296e-01  8.5552838109650886e-01  8.6484571844956348e-01  8.8448787564289555e-01  8.7472503303937643e-01  8.6465896419178478e-01  8.6140214908857493e-01  8.6931144049455977e-01  8.1958146445896429e-01  8.6792510461476646e-01  8.5153643257714373e-01  8.6509341667088036e-01  8.4492450473731318e-01  8.4680410799053141e-01  8.6723812519121724e-01  8.9642862930341671e-01  8.3578935291307399e-01  8.7158197132146031e-01  8.4718450761449626e-01  8.5497714419114956e-01  8.6562207015936432e-01  8.0529300520421532e-01  8.3340936978749236e-01  8.6092698350970565e-01  8.5216255942151098e-01  8.6580789862484442e-01  8.7857327553919784e-01  8.6557399639638255e-01  8.4094094087405591e-01  8.5663265503849428e-01  8.6209950406753566e-01  8.7695823625320157e-01  8.6193789811840071e-01  8.2199092547675734e-01  8.5125648449438074e-01  8.5574923447155071e-01  8.4728112072115180e-01  -1.2189824346425549e-31  9.0416460488960540e-32  1.7453355788118482e-34  2.9799598494085125e-34  1.5016780464657593e-31  2.0805622430796596e-31  3.4839020653238428e-36  -2.3243393770891363e-35  -2.4976213244219141e-31  -8.8886958022245318e-32  4.1011057273316295e-32  5.8387084222212171e-32  3.2226607999500088e-32  3.8684212178341606e-32  2.0180291647776495e-30  1.0746639134653261e-30  -3.2021113870852844e-30  1.0932128635373830e-31  -4.6225318714394768e-30  -6.4655218814130694e-30  -1.0569508839210024e-30  -1.1678113174582277e-30  -3.0701465663540426e-30  -3.8774895117128240e-30  -2.2527143493674345e-30  -1.6858745961179821e-30  -5.2872019906421778e-29  1.0208350421105291e-29  -2.5485881685462494e-29  -1.3329834870552169e-28  4.7965025512078611e-30  -1.1195414193446835e-30  -2.8339530914621667e-36  1.9283466044092027e-36  1.5446875260643304e-36  -2.7957730399697545e-36  2.7395881065369226e-33  1.7692186232765187e-33  1.5035787541564683e-33  1.7786115372830412e-33  -6.0159780654075766e-28  6.5002167250508511e-30  -3.0125004342429871e-31  1.0400770621547225e-27  6.2597171887253450e-36  3.7430617202493110e-36  8.1532916743965365e-36  -2.5601627855588239e-38  6.2069105548526313e-40  -2.8174801814234282e-38  9.2618456216460487e-39  -1.4808508336054857e-36  5.2891717641605478e-40  -9.8444581889151357e-38  -2.1794790679003791e-38  -8.6535063155043899e-40  -1.0464957317761783e-37  7.5307081501735292e-40  -5.7923980099337361e-38  -1.1621782696212777e-39  -2.4494234085542887e-40  -3.0648249760225654e-40  -2.5119541902911284e-40  -8.5959269000619338e-42  -1.5357947026894162e-42  2.7960194270965444e-41  3.5919727238146415e-41  -3.1982377316114671e-40  9.9877805290449045e-28  1.3763027875216821e-30  -8.3739155143206489e-31  9.3495319105098939e-28  1.7273690269087083e-30  9.7374272683903065e-31  4.7311623170806818e-30  4.2321444599888579e-30  1.0335536250419604e-30  1.0196472496496457e-30  -8.5696369775501642e-31  -5.8332009993441104e-30  -1.0339208019975401e-30  -2.9259595079286144e-31  2.0399744196763576e-29  3.3302297612645131e-29  -2.0485812986717857e-31  1.0804933053668032e-30  -7.0319233957031093e-31  4.4822794137078454e-31  -1.2773312115064826e-30  -1.0003708074606127e-30  -1.0262689798310083e-32  -9.3560699280014088e-33  -2.5174847393262170e-31  -2.7912605935352649e-31  5.3576204860963455e-33  5.3011177579118850e-33  2.4374478323345728e-35  -1.0168355601531206e-32  1.6914156294507937e-32  -2.4448810630921048e-35  5.6256643242431307e-33  -2.4384686046450480e-35  2.2715293637648734e-35  2.2515473019983068e-32  1.3428408554806278e-42  4.9381705091508058e-42  -1.0011315956248947e-42  -1.9893980465288616e-42  -5.3978342173449370e-43  -1.4649732221159798e-42  2.1624426275684887e-42  1.6025574294663153e-42  1.9639378949172066e-28  9.7249180477515700e-30  1.7156936512286380e-30  1.0626171483767752e-27  3.7278275288774825e-32  -1.1722581006665582e-33  -1.3687858240131510e-33  -1.0323022209984625e-31  1.3568367355783742e-33  1.0572562086218736e-31  1.8324269214179215e-31  1.2270097068089553e-33  -3.8056808847791044e-37  -5.8651659980714766e-34  -2.6574016046676458e-34  -7.3419364803305796e-39  -3.0875686385471623e-37  -6.4499089707334105e-36  -3.6109394827448063e-34  8.7161297534291189e-38  1.9983916397560788e-39  -1.1988185200252017e-40  -1.0658073950197988e-36  -2.0620975996997033e-39  -4.0333800519649849e-37  -1.9533825704849362e-39  6.4401019399998029e-39  -7.1222939364978882e-41  -5.1325581219455620e-37  -2.8083224087364068e-39  3.7597501377268976e-41  -1.0522598741009037e-40  5.9995313736644145e-39  -3.5254349193788765e-41  -2.6106416272207893e-37  -2.6361565748650694e-39  -5.0558877751651544e-43  2.2157559116785033e-43  -3.1916159966876948e-43  -7.5393098097001568e-43  -2.6154621364592341e-28  3.7501207700433601e-29  -1.2985948416853816e-27  3.1049218940130383e-27  5.2430584462978278e-27  -1.8726992929639065e-26  -1.5930509134451422e-26  7.4220149916088056e-26  3.4532466148996578e-26  -2.2261688220210592e-25  -2.7315875580626252e-26  4.7025940025834521e-25  -2.0012010015320755e-25  -3.2217339967433918e-25  1.3738696102759714e-24  -3.0214118673370595e-24  -5.4664402493395240e-24  1.9740433858234920e-23  1.6064805268189010e-23  -7.7000475606628339e-23  -3.3766285299434203e-23  -4.5406908599958498e-23  2.2299255456037104e-22  2.9571928416189600e-23  -4.5510674573052091e-22  1.3889443005223435e-22  3.1470075510501121e-22  -8.5387633352570351e-22  2.2188850514961772e-21  2.6083360534690602e-21  -1.2352978815431570e-20  -4.3024255715369573e-21  3.0186164426109860e-21  3.5742826929941926e-20  -2.8726887151731856e-21  -5.0196393896520554e-20  4.3360131502867826e-20  -7.6838651900630698e-20  -1.3548437985666154e-19  6.6081917574256087e-19  1.5046737850303156e-19  -1.7428495941952647e-18  4.6423758779388282e-19  -1.6178143438912996e-18  1.0181274807685858e-18  -2.4030837297089862e-18  8.9066669310844978e-18  3.5688589081234360e-18  1.1169212281498550e-19  -2.5179185584248083e-18  6.1859891901538912e-18  4.9128809404218744e-18  -1.2596161624129882e-19  -2.4896482238249020e-18  5.0964808824297294e-19  -1.3373989390352926e-19  4.8843771136101741e-18  -2.4452460434442804e-18  4.7160000487540408e-19  7.2170387414918637e-20  -1.4521195667718750e-19  3.5430542206624257e-19  -2.2127959888595795e-18  3.3105228778983506e-19  -1.4816791127871824e-19  1.8553225507252690e-19  -1.6451705314236872e-18  4.6549272322774609e-19  -1.2265349502392661e-19  3.2693519903708758e-20  -9.5719864801811910e-19  4.7336151326299826e-19  -1.5613328554352321e-18  2.5900459626697467e-20  -1.8306763879375002e-19  3.7512820931964100e-18  -1.7894247463001643e-18  5.5083741398737979e-18  9.8540540019679957e-19  -2.0305160197163707e-17  1.1935356196642081e-17  -6.4162022778990123e-17  -1.6030273145322566e-18  1.8214903425472323e-17  -4.2675702998054594e-17  -6.8352579170323576e-18  1.2433761181510877e-16  -6.5461535399479633e-17  3.4537118606934480e-16  -1.0446164660215143e-16  3.6023770171060541e-16  -6.3752271320423226e-17  6.7766473344627673e-17  2.8707396885294822e-17  -2.3207297048192454e-16  2.5127568319331639e-17  8.4459972493940883e-18  -2.4790578639082084e-01  6.7097000925790980e-17  -1.7732500897421858e-16  6.5551758102789883e-18  1.4641143373581898e-16  -2.5977193809791244e-01  -7.3309355041691281e-17  3.3645192000265602e-16  -2.4319299306201245e-01  -8.3562086446136104e-17  2.3220892639347539e-16  -1.1770281176199012e-15  -4.6489779423192817e-16  3.2221453323307638e-17  1.2926504132141532e-16  -1.4832102233103296e-15  2.3533601480469185e-17  -6.3052841567524751e-17  2.4085247551817044e-16  -8.9019150321969486e-16  -6.7907564070585457e-16  1.1001465224268828e-16  -1.6022723611466487e-16  1.4652110582717217e-15  -2.4090185963637440e-18  6.4097172342788144e-17  -2.3888273238272000e-16  9.4846065018856075e-16  3.7415230256332320e-16  1.4737106984109583e-17  -3.0271238955582827e-16  5.6656352045594675e-16  8.5006570942777125e-16  -5.6436808528120045e-17  -3.6359999768923253e-16  -6.3634320600235644e-17  1.5205239887369818e-15  -1.7588489426229016e-16  -3.3980098979834954e-16  -1.2132755228622379e-15  2.0463353666569192e-15  -8.2606396811238516e-15  -1.8227888090160960e-15  -3.5260296245164298e-16  2.3074681899578345e-15  -9.7734100597157990e-15  -1.0784999750647589e-15  -5.0439885987862633e-16  2.1254309759276836e-15  -1.1167582419542113e-14  9.3670661169591783e-16  1.2475981065218563e-14  -9.5953359068626672e-15  4.2627536030021723e-14  -2.3610272512804949e-15  2.5741009653427908e-15  -4.0959045088322785e-15  2.9659878882778778e-14  -7.4483173276143844e-15  5.5438070824727139e-15  1.1572137289284781e-14  -8.6281639432007458e-14  2.5069386144540798e-14  -4.4767299965040917e-14  -2.2172715432570914e-14  -2.4843281352191521e-15  1.8181248623737895e-14  -1.1584487728196260e-13  4.1585481566469608e-14  -1.8284926222435110e-13  5.2620294583004855e-14  -2.0236116480639651e-13  5.6013264731402245e-14  -2.1785293770208332e-13  6.2687057947002679e-14  -2.5080155180281595e-13  7.1540693890318388e-14  -2.7411173525678879e-13  7.1754733112449304e-14  -2.4343779340033743e-13  5.3282128745749893e-14  -1.3994689384554620e-13  2.0269908893610314e-14  -1.6924131152043189e-14  -6.1504279110717965e-15  4.2768595134834047e-14  -1.0797562719688090e-14  2.5839891097300869e-14  -2.6043063325216852e-15  -3.1635960901092323e-15  1.9326322017117280e-15  -1.1950536142982569e-16  -2.1940807429085194e-16  1.2491925494849628e-16  -1.1713750949354493e-18  -3.1542113021144476e-17  7.9876883017021789e-18  4.4577074142359052e-18  -2.2745529690975250e-18  -8.7161122349517145e-20  -2.5983904333160119e-18  3.6627859028411432e-19  -1.4622967997620288e-14  7.2227276273638457e-19  -1.4097091767645290e-18  3.7090578644342928e-20  7.3753679420418135e-19  -1.9592350917742935e-19  3.2620601339378312e-19  1.1760792909614620e-21 