<?xml version="1.0"?>
<VTKFile type="UnstructuredGrid"  version="0.1"  >
<UnstructuredGrid>
<Piece  NumberOfPoints="11902" NumberOfCells="23402">
<Points>
<DataArray  type="Float64"  NumberOfComponents="3"  format="ascii">-5 -5 0  5 -5 0  5 5 0  -5 5 0  1.186041096732996 0.001221665444542545 0  -4.9 -5 0  -4.8 -5 0  -4.7 -5 0  -4.6 -5 0  -4.5 -5 0  -4.4 -5 0  -4.3 -5 0  -4.2 -5 0  -4.1 -5 0  -4 -5 0  -3.9 -5 0  -3.8 -5 0  -3.7 -5 0  -3.6 -5 0  -3.5 -5 0  -3.4 -5 0  -3.3 -5 0  -3.2 -5 0  -3.1 -5 0  -3 -5 0  -2.9 -5 0  -2.8 -5 0  -2.7 -5 0  -2.6 -5 0  -2.5 -5 0  -2.4 -5 0  -2.3 -5 0  -2.2 -5 0  -2.1 -5 0  -2 -5 0  -1.9 -5 0  -1.8 -5 0  -1.7 -5 0  -1.6 -5 0  -1.5 -5 0  -1.4 -5 0  -1.3 -5 0  -1.2 -5 0  -1.1 -5 0  -1 -5 0  -0.9000000000000004 -5 0  -0.7999999999999998 -5 0  -0.7000000000000002 -5 0  -0.5999999999999996 -5 0  -0.5 -5 0  -0.4000000000000004 -5 0  -0.2999999999999998 -5 0  -0.2000000000000002 -5 0  -0.09999999999999964 -5 0  0 -5 0  0.09999999999999964 -5 0  0.2000000000000002 -5 0  0.2999999999999998 -5 0  0.4000000000000004 -5 0  0.5 -5 0  0.5999999999999996 -5 0  0.7000000000000002 -5 0  0.7999999999999998 -5 0  0.9000000000000004 -5 0  1 -5 0  1.1 -5 0  1.2 -5 0  1.3 -5 0  1.4 -5 0  1.5 -5 0  1.6 -5 0  1.7 -5 0  1.8 -5 0  1.9 -5 0  2 -5 0  2.1 -5 0  2.2 -5 0  2.3 -5 0  2.4 -5 0  2.5 -5 0  2.6 -5 0  2.7 -5 0  2.8 -5 0  2.9 -5 0  3 -5 0  3.1 -5 0  3.199999999999999 -5 0  3.300000000000001 -5 0  3.4 -5 0  3.5 -5 0  3.6 -5 0  3.699999999999999 -5 0  3.800000000000001 -5 0  3.9 -5 0  4 -5 0  4.1 -5 0  4.199999999999999 -5 0  4.300000000000001 -5 0  4.4 -5 0  4.5 -5 0  4.6 -5 0  4.699999999999999 -5 0  4.800000000000001 -5 0  4.9 -5 0  5 -4.9 0  5 -4.8 0  5 -4.7 0  5 -4.6 0  5 -4.5 0  5 -4.4 0  5 -4.3 0  5 -4.2 0  5 -4.1 0  5 -4 0  5 -3.9 0  5 -3.8 0  5 -3.7 0  5 -3.6 0  5 -3.5 0  5 -3.4 0  5 -3.3 0  5 -3.2 0  5 -3.1 0  5 -3 0  5 -2.9 0  5 -2.8 0  5 -2.7 0  5 -2.6 0  5 -2.5 0  5 -2.4 0  5 -2.3 0  5 -2.2 0  5 -2.1 0  5 -2 0  5 -1.9 0  5 -1.8 0  5 -1.7 0  5 -1.6 0  5 -1.5 0  5 -1.4 0  5 -1.3 0  5 -1.2 0  5 -1.1 0  5 -1 0  5 -0.9000000000000004 0  5 -0.7999999999999998 0  5 -0.7000000000000002 0  5 -0.5999999999999996 0  5 -0.5 0  5 -0.4000000000000004 0  5 -0.2999999999999998 0  5 -0.2000000000000002 0  5 -0.09999999999999964 0  5 0 0  5 0.09999999999999964 0  5 0.2000000000000002 0  5 0.2999999999999998 0  5 0.4000000000000004 0  5 0.5 0  5 0.5999999999999996 0  5 0.7000000000000002 0  5 0.7999999999999998 0  5 0.9000000000000004 0  5 1 0  5 1.1 0  5 1.2 0  5 1.3 0  5 1.4 0  5 1.5 0  5 1.6 0  5 1.7 0  5 1.8 0  5 1.9 0  5 2 0  5 2.1 0  5 2.2 0  5 2.3 0  5 2.4 0  5 2.5 0  5 2.6 0  5 2.7 0  5 2.8 0  5 2.9 0  5 3 0  5 3.1 0  5 3.199999999999999 0  5 3.300000000000001 0  5 3.4 0  5 3.5 0  5 3.6 0  5 3.699999999999999 0  5 3.800000000000001 0  5 3.9 0  5 4 0  5 4.1 0  5 4.199999999999999 0  5 4.300000000000001 0  5 4.4 0  5 4.5 0  5 4.6 0  5 4.699999999999999 0  5 4.800000000000001 0  5 4.9 0  4.9 5 0  4.8 5 0  4.7 5 0  4.6 5 0  4.5 5 0  4.4 5 0  4.3 5 0  4.2 5 0  4.1 5 0  4 5 0  3.9 5 0  3.8 5 0  3.7 5 0  3.6 5 0  3.5 5 0  3.4 5 0  3.3 5 0  3.2 5 0  3.1 5 0  3 5 0  2.9 5 0  2.8 5 0  2.7 5 0  2.6 5 0  2.5 5 0  2.4 5 0  2.3 5 0  2.2 5 0  2.1 5 0  2 5 0  1.9 5 0  1.8 5 0  1.7 5 0  1.6 5 0  1.5 5 0  1.4 5 0  1.3 5 0  1.2 5 0  1.1 5 0  1 5 0  0.9000000000000004 5 0  0.7999999999999998 5 0  0.7000000000000002 5 0  0.5999999999999996 5 0  0.5 5 0  0.4000000000000004 5 0  0.2999999999999998 5 0  0.2000000000000002 5 0  0.09999999999999964 5 0  0 5 0  -0.09999999999999964 5 0  -0.2000000000000002 5 0  -0.2999999999999998 5 0  -0.4000000000000004 5 0  -0.5 5 0  -0.5999999999999996 5 0  -0.7000000000000002 5 0  -0.7999999999999998 5 0  -0.9000000000000004 5 0  -1 5 0  -1.1 5 0  -1.2 5 0  -1.3 5 0  -1.4 5 0  -1.5 5 0  -1.6 5 0  -1.7 5 0  -1.8 5 0  -1.9 5 0  -2 5 0  -2.1 5 0  -2.2 5 0  -2.3 5 0  -2.4 5 0  -2.5 5 0  -2.6 5 0  -2.7 5 0  -2.8 5 0  -2.9 5 0  -3 5 0  -3.1 5 0  -3.199999999999999 5 0  -3.300000000000001 5 0  -3.4 5 0  -3.5 5 0  -3.6 5 0  -3.699999999999999 5 0  -3.800000000000001 5 0  -3.9 5 0  -4 5 0  -4.1 5 0  -4.199999999999999 5 0  -4.300000000000001 5 0  -4.4 5 0  -4.5 5 0  -4.6 5 0  -4.699999999999999 5 0  -4.800000000000001 5 0  -4.9 5 0  -5 4.9 0  -5 4.8 0  -5 4.7 0  -5 4.6 0  -5 4.5 0  -5 4.4 0  -5 4.3 0  -5 4.2 0  -5 4.1 0  -5 4 0  -5 3.9 0  -5 3.8 0  -5 3.7 0  -5 3.6 0  -5 3.5 0  -5 3.4 0  -5 3.3 0  -5 3.2 0  -5 3.1 0  -5 3 0  -5 2.9 0  -5 2.8 0  -5 2.7 0  -5 2.6 0  -5 2.5 0  -5 2.4 0  -5 2.3 0  -5 2.2 0  -5 2.1 0  -5 2 0  -5 1.9 0  -5 1.8 0  -5 1.7 0  -5 1.6 0  -5 1.5 0  -5 1.4 0  -5 1.3 0  -5 1.2 0  -5 1.1 0  -5 1 0  -5 0.9000000000000004 0  -5 0.7999999999999998 0  -5 0.7000000000000002 0  -5 0.5999999999999996 0  -5 0.5 0  -5 0.4000000000000004 0  -5 0.2999999999999998 0  -5 0.2000000000000002 0  -5 0.09999999999999964 0  -5 0 0  -5 -0.09999999999999964 0  -5 -0.2000000000000002 0  -5 -0.2999999999999998 0  -5 -0.4000000000000004 0  -5 -0.5 0  -5 -0.5999999999999996 0  -5 -0.7000000000000002 0  -5 -0.7999999999999998 0  -5 -0.9000000000000004 0  -5 -1 0  -5 -1.1 0  -5 -1.2 0  -5 -1.3 0  -5 -1.4 0  -5 -1.5 0  -5 -1.6 0  -5 -1.7 0  -5 -1.8 0  -5 -1.9 0  -5 -2 0  -5 -2.1 0  -5 -2.2 0  -5 -2.3 0  -5 -2.4 0  -5 -2.5 0  -5 -2.6 0  -5 -2.7 0  -5 -2.8 0  -5 -2.9 0  -5 -3 0  -5 -3.1 0  -5 -3.199999999999999 0  -5 -3.300000000000001 0  -5 -3.4 0  -5 -3.5 0  -5 -3.6 0  -5 -3.699999999999999 0  -5 -3.800000000000001 0  -5 -3.9 0  -5 -4 0  -5 -4.1 0  -5 -4.199999999999999 0  -5 -4.300000000000001 0  -5 -4.4 0  -5 -4.5 0  -5 -4.6 0  -5 -4.699999999999999 0  -5 -4.800000000000001 0  -5 -4.9 0  1.180203848477047 0.09945870875081894 0  1.161818245323957 0.197899845955573 0  1.130955438489153 0.2953021092495237 0  1.090913792687815 0.3871890765252454 0  1.038965584603588 0.4779476075173834 0  0.9776358818262557 0.5631709745413068 0  0.9055622808315241 0.6429376208312602 0  0.8241680602037638 0.7157373528726104 0  0.7357181825807824 0.7815433819516335 0  0.6394039842259303 0.8401652879175705 0  0.5360448767917855 0.8907706447196633 0  0.4282529748828005 0.9325252871153126 0  0.3180101802950597 0.9652924576914805 0  0.202663250605677 0.9876966861835123 0  0.08796090866990044 1.001826090972731 0  -0.02764950019370996 1.004554115420434 0  -0.1433341728030415 0.9952605613718786 0  -0.259648807852381 0.9777281883696978 0  -0.3729923886611337 0.9513618464302359 0  -0.4815372923797354 0.9147911514352334 0  -0.58520631902398 0.8693150524312063 0  -0.6838093605363733 0.8145902423630953 0  -0.7754294940869232 0.7518418080779087 0  -0.8602978335318536 0.6815519373983976 0  -0.9376773015545242 0.6035741542277524 0  -1.004895755132535 0.5209710441758314 0  -1.062788235812444 0.4338514972832719 0  -1.10944537667414 0.3415626385997864 0  -1.144467954828424 0.2471229763371646 0  -1.168091002904136 0.1501990207473737 0  -1.180088439028134 0.0508244983959897 0  -1.180093742250504 -0.04918766301467483 0  -1.168059749674609 -0.1482662347327861 0  -1.14545411305256 -0.2451998676236681 0  -1.109054875342825 -0.3411438571068929 0  -1.063162006557594 -0.4325924692559925 0  -1.005815992832249 -0.5200080546371201 0  -0.9390467867953073 -0.6021928396607037 0  -0.861901312704576 -0.6790673969821728 0  -0.7765653186370869 -0.7485035198246844 0  -0.6837880470733267 -0.8098789615879429 0  -0.5854841821494016 -0.8643241946911387 0  -0.4790641092368877 -0.9108067079452576 0  -0.3701131537810653 -0.9486949085977271 0  -0.2570014662799253 -0.9762895795626922 0  -0.1419435592326984 -0.9942844890567387 0  -0.0271147149884756 -1.003735568613811 0  0.08857195802559967 -0.9996568191583014 0  0.2052258347256972 -0.9855744786320769 0  0.3194440452553452 -0.9636463341751692 0  0.4314167274963411 -0.9311144630474962 0  0.537562830867133 -0.8897942964307075 0  0.6400861112773709 -0.8396697972066054 0  0.7359121405906414 -0.7824357032291539 0  0.8242549765271918 -0.716387730246456 0  0.9050900846777182 -0.6423609481923441 0  0.9763422308233514 -0.56248737944358 0  1.038873083718276 -0.4774190187764023 0  1.091972014379478 -0.3872746567225452 0  1.132307749921774 -0.293998112602443 0  1.162033260471251 -0.197108428046676 0  1.180217083278743 -0.09901030860656204 0  -2.448838429143295 4.918623905015703 0  -2.448737588653914 -4.911048486699033 0  4.910985511398684 2.448290685797878 0  4.91905993804031 -2.449716339498657 0  2.446516488368654 -4.896376547741225 0  2.440938650599377 4.90011827641336 0  -4.91100806274344 -2.44831283676608 0  -4.911006623376393 2.448316693540022 0  -1.748802942670379 4.9117382014871 0  -1.744577324472075 -4.915150633336503 0  4.921311803878027 1.744428242126946 0  4.909941324562926 -1.748241778085529 0  -4.910226782368929 -1.747970020929973 0  -4.911043467031109 1.747710657758222 0  1.746093707178714 4.90564908934547 0  1.74754335777123 -4.893888304118298 0  -1.149055685297393 4.909676097957728 0  -1.129890080000751 -4.917518390678841 0  -4.910140782224971 -1.148227204929011 0  -4.909962178361619 1.14802724368797 0  1.144036325706769 -4.913738697952376 0  1.14906281998851 4.909665187380226 0  4.910288680259352 1.146504979625585 0  4.921004177954512 -1.152252115014058 0  -0.5467809184668988 -4.910941662779536 0  -0.5465517289284687 4.919540340425725 0  -4.909031466900279 -0.5488750375015805 0  -4.909056020839408 0.5474308972978605 0  4.908369253370232 -0.5491965022624733 0  4.919886994204084 0.5459311939294366 0  0.542573628887706 -4.897955123504182 0  0.5512825250060603 4.91639583682429 0  -4.912254455961384 -3.04860292236688 0  4.918801489252133 3.046599049836947 0  4.91176628156483 -3.048583565786206 0  -4.913100515179671 3.045691948383176 0  3.055534949033963 -4.917741884353612 0  -3.048883009707171 -4.911702392535739 0  3.052445002403247 4.913773406132592 0  -3.048327378928766 4.912588915741792 0  -4.908198747747481 -0.04992431448668339 0  0.04512696559595264 -4.912899413938438 0  0.04957507779253284 4.919855452919697 0  4.915176611815365 -0.05130537251380169 0  3.545803905167555 -4.919277773590542 0  -3.549100940712944 4.9121971
[...]
<PointData  Scalars="f_27"> 
<DataArray  type="Float64"  Name="f_27"  format="ascii">0.0000000000000000e+00  0.0000000000000000e+00  0.0000000000000000e+00  0.0000000000000000e+00  8.3503341934031994e-01  0.0000000000000000e+00  0.0000000000000000e+00  0.0000000000000000e+00  0.0000000000000000e+00  0.0000000000000000e+00  0.0000000000000000e+00  0.0000000000000000e+00  0.0000000000000000e+00  0.0000000000000000e+00  0.0000000000000000e+00  0.0000000000000000e+00  0.0000000000000000e+00  0.0000000000000000e+00  0.0000000000000000e+00  0.0000000000000000e+00  0.0000000000000000e+00  0.0000000000000000e+00  0.0000000000000000e+00  0.0000000000000000e+00  0.0000000000000000e+00  0.0000000000000000e+00  0.0000000000000000e+00  0.0000000000000000e+00  0.0000000000000000e+00  0.0000000000000000e+00  0.0000000000000000e+00  0.0000000000000000e+00  0.0000000000000000e+00  0.0000000000000000e+00  0.0000000000000000e+00  0.0000000000000000e+00  0.0000000000000000e+00  0.0000000000000000e+00  0.0000000000000000e+00  0.0000000000000000e+00  0.0000000000000000e+00  0.0000000000000000e+00  0.0000000000000000e+00  0.0000000000000000e+00  0.0000000000000000e+00  0.0000000000000000e+00  0.0000000000000000e+00  0.0000000000000000e+00  0.0000000000000000e+00  0.0000000000000000e+00  0.0000000000000000e+00  0.0000000000000000e+00  0.0000000000000000e+00  0.0000000000000000e+00  0.0000000000000000e+00  0.0000000000000000e+00  0.0000000000000000e+00  0.0000000000000000e+00  0.0000000000000000e+00  0.0000000000000000e+00  0.0000000000000000e+00  0.0000000000000000e+00  0.0000000000000000e+00  0.0000000000000000e+00  0.0000000000000000e+00  0.0000000000000000e+00  0.0000000000000000e+00  0.0000000000000000e+00  0.0000000000000000e+00  0.0000000000000000e+00  0.0000000000000000e+00  0.0000000000000000e+00  0.0000000000000000e+00  0.0000000000000000e+00  0.0000000000000000e+00  0.0000000000000000e+00  0.0000000000000000e+00  0.0000000000000000e+00  0.0000000000000000e+00  0.0000000000000000e+00  0.0000000000000000e+00  0.0000000000000000e+00  0.0000000000000000e+00  0.0000000000000000e+00  0.0000000000000000e+00  0.0000000000000000e+00  0.0000000000000000e+00  0.0000000000000000e+00  0.0000000000000000e+00  0.0000000000000000e+00  0.0000000000000000e+00  0.0000000000000000e+00  0.0000000000000000e+00  0.0000000000000000e+00  0.0000000000000000e+00  0.0000000000000000e+00  0.0000000000000000e+00  0.0000000000000000e+00  0.0000000000000000e+00  0.0000000000000000e+00  0.0000000000000000e+00  0.0000000000000000e+00  0.0000000000000000e+00  0.0000000000000000e+00  0.0000000000000000e+00  0.0000000000000000e+00  0.0000000000000000e+00  0.0000000000000000e+00  0.0000000000000000e+00  0.0000000000000000e+00  0.0000000000000000e+00  0.0000000000000000e+00  0.0000000000000000e+00  0.0000000000000000e+00  0.0000000000000000e+00  0.0000000000000000e+00  0.0000000000000000e+00  0.0000000000000000e+00  0.0000000000000000e+00  0.0000000000000000e+00  0.0000000000000000e+00  0.0000000000000000e+00  0.0000000000000000e+00  0.0000000000000000e+00  0.0000000000000000e+00  0.0000000000000000e+00  0.0000000000000000e+00  0.0000000000000000e+00  0.0000000000000000e+00  0.0000000000000000e+00  0.0000000000000000e+00  0.0000000000000000e+00  0.0000000000000000e+00  0.0000000000000000e+00  0.0000000000000000e+00  0.0000000000000000e+00  0.0000000000000000e+00  0.0000000000000000e+00  0.0000000000000000e+00  0.0000000000000000e+00  0.0000000000000000e+00  0.0000000000000000e+00  0.0000000000000000e+00  0.0000000000000000e+00  0.0000000000000000e+00  0.0000000000000000e+00  0.0000000000000000e+00  0.0000000000000000e+00  0.0000000000000000e+00  0.0000000000000000e+00  0.0000000000000000e+00  0.0000000000000000e+00  0.0000000000000000e+00  0.0000000000000000e+00  0.0000000000000000e+00  0.0000000000000000e+00  0.0000000000000000e+00  0.0000000000000000e+00  0.0000000000000000e+00  0.0000000000000000e+00  0.0000000000000000e+00  0.0000000000000000e+00  0.0000000000000000e+00  0.0000000000000000e+00  0.0000000000000000e+00  0.0000000000000000e+00  0.0000000000000000e+00  0.0000000000000000e+00  0.0000000000000000e+00  0.0000000000000000e+00  0.0000000000000000e+00  0.0000000000000000e+00  0.0000000000000000e+00  0.0000000000000000e+00  0.0000000000000000e+00  0.0000000000000000e+00  0.0000000000000000e+00  0.0000000000000000e+00  0.0000000000000000e+00  0.0000000000000000e+00  0.0000000000000000e+00  0.0000000000000000e+00  0.0000000000000000e+00  0.0000000000000000e+00  0.0000000000000000e+00  0.0000000000000000e+00  0.0000000000000000e+00  0.0000000000000000e+00  0.0000000000000000e+00  0.0000000000000000e+00  0.0000000000000000e+00  0.0000000000000000e+00  0.0000000000000000e+00  0.0000000000000000e+00  0.0000000000000000e+00  0.0000000000000000e+00  0.0000000000000000e+00  0.0000000000000000e+00  0.0000000000000000e+00  0.0000000000000000e+00  0.0000000000000000e+00  0.0000000000000000e+00  0.0000000000000000e+00  0.0000000000000000e+00  0.0000000000000000e+00  0.0000000000000000e+00  0.0000000000000000e+00  0.0000000000000000e+00  0.0000000000000000e+00  0.0000000000000000e+00  0.0000000000000000e+00  0.0000000000000000e+00  0.0000000000000000e+00  0.0000000000000000e+00  0.0000000000000000e+00  0.0000000000000000e+00  0.0000000000000000e+00  0.0000000000000000e+00  0.0000000000000000e+00  0.0000000000000000e+00  0.0000000000000000e+00  0.0000000000000000e+00  0.0000000000000000e+00  0.0000000000000000e+00  0.0000000000000000e+00  0.0000000000000000e+00  0.0000000000000000e+00  0.0000000000000000e+00  0.0000000000000000e+00  0.0000000000000000e+00  0.0000000000000000e+00  0.0000000000000000e+00  0.0000000000000000e+00  0.0000000000000000e+00  0.0000000000000000e+00  0.0000000000000000e+00  0.0000000000000000e+00  0.0000000000000000e+00  0.0000000000000000e+00  0.0000000000000000e+00  0.0000000000000000e+00  0.0000000000000000e+00  0.0000000000000000e+00  0.0000000000000000e+00  0.0000000000000000e+00  0.0000000000000000e+00  0.0000000000000000e+00  0.0000000000000000e+00  0.0000000000000000e+00  0.0000000000000000e+00  0.0000000000000000e+00  0.0000000000000000e+00  0.0000000000000000e+00  0.0000000000000000e+00  0.0000000000000000e+00  0.0000000000000000e+00  0.0000000000000000e+00  0.0000000000000000e+00  0.0000000000000000e+00  0.0000000000000000e+00  0.0000000000000000e+00  0.0000000000000000e+00  0.0000000000000000e+00  0.0000000000000000e+00  0.0000000000000000e+00  0.0000000000000000e+00  0.0000000000000000e+00  0.0000000000000000e+00  0.0000000000000000e+00  0.0000000000000000e+00  0.0000000000000000e+00  0.0000000000000000e+00  0.0000000000000000e+00  0.0000000000000000e+00  0.0000000000000000e+00  0.0000000000000000e+00  0.0000000000000000e+00  0.0000000000000000e+00  0.0000000000000000e+00  0.0000000000000000e+00  0.0000000000000000e+00  0.0000000000000000e+00  0.0000000000000000e+00  0.0000000000000000e+00  0.0000000000000000e+00  0.0000000000000000e+00  0.0000000000000000e+00  0.0000000000000000e+00  0.0000000000000000e+00  0.0000000000000000e+00  0.0000000000000000e+00  0.0000000000000000e+00  0.0000000000000000e+00  0.0000000000000000e+00  0.0000000000000000e+00  0.0000000000000000e+00  0.0000000000000000e+00  0.0000000000000000e+00  0.0000000000000000e+00  0.0000000000000000e+00  0.0000000000000000e+00  0.0000000000000000e+00  0.0000000000000000e+00  0.0000000000000000e+00  0.0000000000000000e+00  0.0000000000000000e+00  0.0000000000000000e+00  0.0000000000000000e+00  0.0000000000000000e+00  0.0000000000000000e+00  0.0000000000000000e+00  0.0000000000000000e+00  0.0000000000000000e+00  0.0000000000000000e+00  0.0000000000000000e+00  0.0000000000000000e+00  0.0000000000000000e+00  0.0000000000000000e+00  0.0000000000000000e+00  0.0000000000000000e+00  0.0000000000000000e+00  0.0000000000000000e+00  0.0000000000000000e+00  0.0000000000000000e+00  0.0000000000000000e+00  0.0000000000000000e+00  0.0000000000000000e+00  0.0000000000000000e+00  0.0000000000000000e+00  0.0000000000000000e+00  0.0000000000000000e+00  0.0000000000000000e+00  0.0000000000000000e+00  0.0000000000000000e+00  0.0000000000000000e+00  0.0000000000000000e+00  0.0000000000000000e+00  0.0000000000000000e+00  0.0000000000000000e+00  0.0000000000000000e+00  0.0000000000000000e+00  0.0000000000000000e+00  0.0000000000000000e+00  0.0000000000000000e+00  0.0000000000000000e+00  0.0000000000000000e+00  0.0000000000000000e+00  0.0000000000000000e+00  0.0000000000000000e+00  0.0000000000000000e+00  0.0000000000000000e+00  0.0000000000000000e+00  0.0000000000000000e+00  0.0000000000000000e+00  0.0000000000000000e+00  0.0000000000000000e+00  0.0000000000000000e+00  0.0000000000000000e+00  0.0000000000000000e+00  0.0000000000000000e+00  0.0000000000000000e+00  0.0000000000000000e+00  0.0000000000000000e+00  0.0000000000000000e+00  0.0000000000000000e+00  0.0000000000000000e+00  0.0000000000000000e+00  0.0000000000000000e+00  0.0000000000000000e+00  0.0000000000000000e+00  0.0000000000000000e+00  0.0000000000000000e+00  0.0000000000000000e+00  0.0000000000000000e+00  0.0000000000000000e+00  0.0000000000000000e+00  0.0000000000000000e+00  0.0000000000000000e+00  0.0000000000000000e+00  0.0000000000000000e+00  0.0000000000000000e+00  0.0000000000000000e+00  0.0000000000000000e+00  0.0000000000000000e+00  0.0000000000000000e+00  0.0000000000000000e+00  0.0000000000000000e+00  0.0000000000000000e+00  0.0000000000000000e+00  0.0000000000000000e+00  0.0000000000000000e+00  0.0000000000000000e+00  0.0000000000000000e+00  0.0000000000000000e+00  0.0000000000000000e+00  0.0000000000000000e+00  0.0000000000000000e+00  0.0000000000000000e+00  0.0000000000000000e+00  0.0000000000000000e+00  0.0000000000000000e+00  8.2936539047971891e-01  8.3808892463898821e-01  8.7332102072808693e-01  8.7239302360279614e-01  8.5117671748182167e-01  8.1035022321029615e-01  8.1844911905010431e-01  8.5971169244271972e-01  8.4398275033135894e-01  8.0746220679013492e-01  8.2358023962181337e-01  8.3233506888177644e-01  7.9833664299305762e-01  8.4667576669165567e-01  8.4108922304694034e-01  8.4472801068820003e-01  8.6720992521553786e-01  8.3741088677241049e-01  8.2702781775930323e-01  8.4729898924800096e-01  8.3730847131970088e-01  8.4352080927860695e-01  8.3644344650330837e-01  8.2011118275309114e-01  8.3714341923234770e-01  8.5571196162440333e-01  8.3174949295381750e-01  8.4276141323011533e-01  8.6519592237257370e-01  8.5399854079460724e-01  8.4222862654836805e-01  8.3876875710893373e-01  8.4835214423807559e-01  7.9126188488562499e-01  8.4622097556722620e-01  8.2764612416720429e-01  8.4315954048661168e-01  8.1967116275248009e-01  8.2150056876196553e-01  8.4544254160866339e-01  8.7930175585960912e-01  8.0937453715759899e-01  8.5018014545448362e-01  8.2232487566075185e-01  8.3042856184373515e-01  8.4330239526396011e-01  7.7458773736846631e-01  8.0633437340107084e-01  8.3761883517318980e-01  8.2717511505707342e-01  8.4363945964737241e-01  8.5799491953174201e-01  8.4313911269981656e-01  8.1536110369631587e-01  8.3298062192147226e-01  8.3924431000561439e-01  8.5651250393373957e-01  8.3889801697720556e-01  7.9360157640189477e-01  8.2733446642944741e-01  8.3249336711591826e-01  8.2255249414900733e-01  -1.3729455348966166e-31  1.0069493532928523e-31  1.9568258396634535e-34  3.3289662081826673e-34  1.6940476421587283e-31  2.3169640168830052e-31  2.7848487287309467e-36  -2.8293217911170701e-35  -2.6786827512067996e-31  -9.6283474121094873e-32  4.5994764458895170e-32  6.4908065053037296e-32  3.5780907146416095e-32  4.2674058966530647e-32  2.2277703881415774e-30  1.1930363848810087e-30  -3.5503268098037322e-30  1.3930648911671634e-31  -5.1379375820971488e-30  -7.1790603572815681e-30  -1.1857179325577312e-30  -1.2939920229009551e-30  -3.4424075486726325e-30  -4.2933601287621035e-30  -2.5273796428848370e-30  -1.8789675972080257e-30  -6.0577604893911564e-29  1.1233448398672108e-29  -2.8689192024061061e-29  -1.5002694666388187e-28  5.3602642741399090e-30  -1.2424293529423539e-30  -3.1708221970765500e-36  2.1542394873473979e-36  1.7193752737565667e-36  -3.1373194309987785e-36  3.0741582110254411e-33  2.0115902002520240e-33  1.6922920831046029e-33  1.9972134225414328e-33  -6.7922533705989314e-28  7.2706819065987519e-30  -3.1552130319104546e-31  1.1633299309929016e-27  6.9973358764067291e-36  4.1627416577221789e-36  9.1382647159229229e-36  -2.8730522356078865e-38  1.0419155141884714e-39  -3.1462433032657845e-38  1.0713391709183852e-38  -1.7228094474101455e-36  5.8605429653968397e-40  -1.1073257032151027e-37  -2.5118912869075472e-38  -9.7301388527049604e-40  -1.1760786418847695e-37  8.4267842551066667e-40  -6.5522258950809709e-38  -1.3090870433134121e-39  -2.7212231223800871e-40  -3.4424140304704383e-40  -2.8048692059188305e-40  -9.5238039296158669e-42  -1.5234155811670512e-42  3.1305419264539636e-41  4.0346249575750743e-41  -3.5961191905243048e-40  1.1182863114807098e-27  1.5159883716228777e-30  -9.1941791753325189e-31  1.0432218672605151e-27  1.9726377715452336e-30  1.0823846506404425e-30  5.1865618661237950e-30  4.7816775065634021e-30  1.1503302286775141e-30  1.1344971021766403e-30  -9.1146147398810964e-31  -6.5189399684141888e-30  -1.1430074736909409e-30  -3.2367634339897989e-31  2.2544168881631042e-29  3.7117967741000720e-29  -2.2519616827562405e-31  1.1860358086375049e-30  -8.3936579901384641e-31  5.0089758896705157e-31  -1.4292352397703914e-30  -1.1015447870462062e-30  -1.1422710931453693e-32  -1.0458222786831863e-32  -2.8269122837028050e-31  -3.1608258292501096e-31  5.9612167099628880e-33  5.8856130936622095e-33  2.7188596443142758e-35  -1.1351266893062609e-32  1.8638982728754816e-32  -2.7504564996310091e-35  6.3267539017941823e-33  -2.7320194246810136e-35  2.5390613140725758e-35  2.5326995578479007e-32  1.5118877172196595e-42  5.5138795756748608e-42  -1.1202197303255093e-42  -2.2769272206810706e-42  -5.9594399963363560e-43  -1.6625039015977850e-42  2.4417766935599224e-42  1.8001810479399682e-42  2.2005188987009260e-28  1.0869019039610602e-29  1.9568108728806254e-30  1.1819509854663769e-27  4.2599361234413481e-32  -1.3086702088144837e-33  -1.5247438373870524e-33  -1.1855625531001943e-31  1.5133694439207961e-33  1.1915683743354953e-31  2.0483874362081295e-31  1.3784962939084391e-33  -4.2513679353276569e-37  -6.6102282386747824e-34  -2.9941272116385655e-34  -4.0846314713343839e-39  -3.4626621134199579e-37  -8.7366481163059975e-36  -4.0897584983664011e-34  1.0151651099731996e-37  2.2616709049610424e-39  -1.3447596806419526e-40  -1.1963832511591061e-36  -2.2795063016401907e-39  -4.6333523096764379e-37  -2.1550447674558141e-39  7.1558223668374599e-39  -7.7997116982623217e-41  -5.7752662135001183e-37  -3.1311930784994120e-39  6.5745355886936627e-41  -1.1868573486950986e-40  6.6820535380627119e-39  -3.7605458909178722e-41  -2.9681034370087599e-37  -2.9632208402059911e-39  -5.6802638353717396e-43  2.4648433894473064e-43  -3.6302307927158073e-43  -8.5107783274174806e-43  -2.9472058159733454e-28  4.3710716122346766e-29  -1.4542394094415328e-27  3.4798607605485095e-27  5.8622624971428417e-27  -2.0971993705179203e-26  -1.7766032037971184e-26  8.2977272501539916e-26  3.8304641668020086e-26  -2.4821208896037186e-25  -2.9219885474512117e-26  5.2130945887479005e-25  -2.2808750612664050e-25  -3.4127076859117242e-25  1.5471046209949417e-24  -3.4388218909220399e-24  -6.1320131376810972e-24  2.2220256522186196e-23  1.7980450354091081e-23  -8.6351616465873930e-23  -3.7731087955211890e-23  -5.1612164348209142e-23  2.4952279558692984e-22  3.2989902409788258e-23  -5.0849917511102745e-22  1.5504068141867978e-22  3.5117962971104670e-22  -9.5245385828524669e-22  2.4751224639232445e-21  2.9098034624540620e-21  -1.3774951428090139e-20  -4.8094178709172843e-21  3.3723911101560754e-21  3.9873792584732538e-20  -3.1385419674089272e-21  -5.6168378478595269e-20  4.8132514139960118e-20  -8.4678343476502804e-20  -1.5067275770367850e-19  7.3382633081668130e-19  1.6785979591588703e-19  -1.9388166018728114e-18  5.1462280283475329e-19  -1.7887704365439627e-18  1.1399057661827568e-18  -2.6703545375292898e-18  9.8861393945794853e-18  3.9705317025552451e-18  1.2366842062554731e-19  -2.8011167211526062e-18  6.8726621437305306e-18  5.4772611620206430e-18  -1.4227489392036011e-19  -2.7703450615402643e-18  5.6835534253859689e-19  -1.5471592718154960e-19  5.4673993029758207e-18  -2.7220285322350161e-18  5.2730150764406084e-19  7.1546148677983608e-20  -1.6103353592464591e-19  3.9855915331772375e-19  -2.4735504242732939e-18  3.6309732241613010e-19  -1.6522127247623451e-19  2.1063950114960945e-19  -1.8507594272854217e-18  5.2026335810795504e-19  -1.3768421634128501e-19  3.7326451455440979e-20  -1.0711919761323005e-18  5.2635386387796799e-19  -1.7166759091636032e-18  2.8875760352601383e-20  -2.1850548339180947e-19  4.2606041145305832e-18  -2.0171071602145451e-18  6.1925789355235193e-18  1.1072468910004110e-18  -2.2792014239492981e-17  1.3387375847839311e-17  -7.1922219540376147e-17  -1.7990037601832066e-18  2.0393417301869496e-17  -4.7560647425560685e-17  -7.8262729962194448e-18  1.4045529442641438e-16  -7.3821034153524720e-17  3.8936327471584686e-16  -1.1779353544655904e-16  4.0661026215867183e-16  -7.2181724652534856e-17  7.8352528026607284e-17  3.1644090940181823e-17  -2.5861200423308147e-16  2.8363469426999293e-17  9.5134105139060670e-18  -2.3943295202724649e-01  7.4927266395010190e-17  -1.9827112288109958e-16  7.3926115764689006e-18  1.6327331118456215e-16  -2.5187283250621628e-01  -8.1787341580184022e-17  3.7538287660298648e-16  -2.3606713884902350e-01  -9.3223606945383248e-17  2.5913174313376953e-16  -1.3131229238843095e-15  -5.1975518801615905e-16  3.6584899682823152e-17  1.4060115434191438e-16  -1.6725761965015777e-15  2.6254111118906193e-17  -6.9205647854067918e-17  2.6451874066929995e-16  -9.7693785528371703e-16  -7.4504605482259215e-16  1.2056013744610799e-16  -1.7520133023620219e-16  1.6052375414953419e-15  -3.3428169380010316e-18  7.0074080327606171e-17  -2.5979370198523473e-16  1.0371396094627415e-15  3.9910688043709019e-16  1.9081546018580467e-17  -3.3998517599478546e-16  6.6470299872240997e-16  9.4329959021444221e-16  -6.0886348181971824e-17  -4.1043165237596439e-16  -4.4259053966764119e-17  1.7002071495273692e-15  -1.9550285715999555e-16  -3.8319995767376437e-16  -1.3406657030827796e-15  2.2894835288344896e-15  -9.2674988449733091e-15  -2.0270510544536802e-15  -3.9676612281430229e-16  2.5812182727732501e-15  -1.0949795149322688e-14  -1.1992502657702318e-15  -5.6553878446991973e-16  2.3772162132761605e-15  -1.2499189210805367e-14  1.0500359605193069e-15  1.3947858211784847e-14  -1.0730718893510564e-14  4.7689558179717396e-14  -2.6501980760007962e-15  2.8758843561264682e-15  -4.5553108669929775e-15  3.2852867793686634e-14  -8.1242492114627528e-15  4.9216895656296047e-15  1.3403141539497007e-14  -9.8258373973403275e-14  2.8318798169069286e-14  -4.9834564725765645e-14  -2.5327374188646181e-14  -2.7563260300168693e-15  2.0588512418513897e-14  -1.3086281764480127e-13  4.6912544318220994e-14  -2.0616733767574988e-13  5.9341817886244481e-14  -2.2830829311387927e-13  6.3192073468368876e-14  -2.4559505758245610e-13  7.0528616561843587e-14  -2.8162717102206487e-13  8.0216929502190192e-14  -3.0724334343702631e-13  8.0502688275609149e-14  -2.7364700904956389e-13  6.0050668018218509e-14  -1.5833264901918342e-13  2.3064546162776040e-14  -1.9825321936113199e-14  -6.8049884483639140e-15  4.8068399093845413e-14  -1.2195751878946311e-14  2.9349769538229080e-14  -2.9956601499988098e-15  -3.4096747462971737e-15  2.1935153258585976e-15  -1.2301439569500694e-16  -2.5159858490878973e-16  1.3922716794401030e-16  -4.5149839080776536e-19  -3.5479551182818313e-17  8.8787410352212239e-18  5.0592910835639944e-18  -2.5558558982017749e-18  -1.1169761530340643e-19  -2.8915204076337399e-18  4.1493727522299440e-19  -1.6496254945121542e-14  8.0998119813229209e-19  -1.5943098408104803e-18  4.5233984075971051e-20  8.1961307952104003e-19  -2.1917709353587007e-19  3.6762081318583971e-19  7.2699447198593054e-22 